units real
atom_style full
boundary p p p

# --- Force Field Styles ---
pair_style lj/class2/coul/long 9.5 9.5
kspace_style pppm 1e-6
dielectric 1.000000
bond_style class2
angle_style class2
dihedral_style class2
improper_style class2
special_bonds lj/coul 0 0 1
pair_modify mix sixthpower tail yes
neighbor 2.0 bin
neigh_modify delay 0 every 1 check yes
neigh_modify one 4000
# KOKKOS: package loaded via -pk kokkos on the command line

read_data /home/arz2/PolyJarvis/data/PLA3/lammps/equil/npt_prod300/npt_prod300_out.data
Reading data file ...
  orthogonal box = (4.511543 4.511543 4.511543) to (41.12158 41.12158 41.12158)
  1 by 1 by 1 MPI processor grid
  reading atoms ...
  4520 atoms
  reading velocities ...
  4520 velocities
  scanning bonds ...
  4 = max bonds/atom
  scanning angles ...
  12 = max angles/atom
  scanning dihedrals ...
  21 = max dihedrals/atom
  scanning impropers ...
  8 = max impropers/atom
  orthogonal box = (4.511543 4.511543 4.511543) to (41.12158 41.12158 41.12158)
  1 by 1 by 1 MPI processor grid
  reading bonds ...
  4510 bonds
  reading angles ...
  8000 angles
  reading dihedrals ...
  9970 dihedrals
  reading impropers ...
  4500 impropers
Finding 1-2 1-3 1-4 neighbors ...
  special bond factors lj:    0        0        1       
  special bond factors coul:  0        0        1       
     4 = max # of 1-2 neighbors
     6 = max # of 1-3 neighbors
    10 = max # of special neighbors
  special bonds CPU = 0.003 seconds
  read_data CPU = 0.242 seconds


# --- Thermo Output ---
thermo_style custom step time temp press enthalpy etotal ke pe ebond eangle edihed eimp evdwl ecoul elong etail vol lx ly lz density pxx pyy pzz
thermo_modify flush yes
thermo 100

# --- Trajectory ---
dump dump_npt all custom 1000 /home/arz2/PolyJarvis/data/PLA3/lammps/mechanical/bm_series/bm_P1500/bm_P1500.dump id type mol x y z ix iy iz vx vy vz

# --- Restart Checkpointing ---
restart 10000 npt_1.rst npt_2.rst

# --- Initial Velocities (optional) ---
# Velocities read from data file

# --- SHAKE Constraints ---
fix shake_fix all shake 1e-4 1000 0 m 1.008
Finding SHAKE clusters ...
     500 = # of size 2 clusters
      10 = # of size 3 clusters
     500 = # of size 4 clusters
       0 = # of frozen angles
  find clusters CPU = 0.002 seconds

# --- NPT Thermostat + Barostat (Nose-Hoover) ---
# T_damp = 100.0 fs  (heat bath coupling)
# P_damp = 1000.0 fs  (pressure bath coupling, ~10x T_damp typical)
# Ramp: T=300.0->300.0K  P=1500.0->1500.0atm
timestep 1.0
fix npt_fix all npt temp 300.0 300.0 100.0 iso 1500.0 1500.0 1000.0

run 500000
PPPM Kokkos initialization ...
  using 12-bit tables for long-range coulomb
  G vector (1/distance) = 0.34295744
  grid = 45 45 45
  stencil order = 5
  estimated absolute RMS force accuracy = 0.0002514336
  estimated relative force accuracy = 7.5718481e-07
  using double precision cuFFT
  3d grid and FFT values/proc = 140608 91125
Generated 21 of 21 mixed pair_coeff terms from sixthpower/sixthpower mixing rule
Neighbor list info ...
  update: every = 1 steps, delay = 0 steps, check = yes
  max neighbors/atom: 4000, page size: 100000
  master list distance cutoff = 11.5
  ghost atom cutoff = 11.5
  binsize = 11.5, bins = 4 4 4
  1 neighbor lists, perpetual/occasional/extra = 1 0 0
  (1) pair lj/class2/coul/long/kk, perpetual
      attributes: full, newton off, kokkos_device
      pair build: full/bin/kk/device
      stencil: full/bin/3d
      bin: kk/device
Per MPI rank memory allocation (min/avg/max) = 38.17 | 38.17 | 38.17 Mbytes
   Step          Time           Temp          Press         Enthalpy        TotEng         KinEng         PotEng         E_bond        E_angle        E_dihed        E_impro         E_vdwl         E_coul         E_long         E_tail         Volume           Lx             Ly             Lz          Density          Pxx            Pyy            Pzz      
         0   0              363.07883      753.43453      16426.956      15887.791      4162.0459      11725.745      1509.3747      3773.9681     -4089.5527      161.65787     -2505.6542      44871.786     -31995.835     -385.42939      49068.244      36.610037      36.610037      36.610037      1.2200584     -1963.265       3398.6367      824.93186    
       100   100            302.32168     -66.39472       15160.695      15207.968      3465.5744      11742.393      1506.02        3795.2337     -4052.1038      145.45245     -2492.4769      44837.471     -31997.203     -387.38762      48820.206      36.548246      36.548246      36.548246      1.2262571     -601.21563      147.67454      254.35693    
       200   200            300.54029      1619.1429      16281.377      15142.826      3445.154       11697.672      1490.8017      3789.426      -4074.5019      130.65546     -2499.1811      44852.729     -31992.258     -392.24156      48216.062      36.396859      36.396859      36.396859      1.241622       2286.7662      2251.5313      319.13111    
       300   300            299.3772       1177.5138      15911.919      15092.753      3431.8212      11660.932      1529.7993      3716.8787     -4047.0882      156.89782     -2527.2819      44828.033     -31996.307     -396.47438      47701.3        36.26687       36.26687       36.26687       1.2550208      1562.5224      234.88289      1735.1362    
       400   400            299.3045       2960.7534      17060.051      15012.801      3430.9879      11581.813      1435.5846      3618.6895     -4039.1697      147.33436     -2475.5036      44893.079     -31998.201     -398.88942      47412.497      36.19353       36.19353       36.19353       1.2626655      2671.3639      2954.2868      3256.6096    
       500   500            292.37884      2533.8786      16744.603      14990.102      3351.5976      11638.505      1520.2392      3715.8706     -4045.4159      163.25927     -2528.4417      44810.258     -31997.264     -398.33962      47477.938      36.210174      36.210174      36.210174      1.2609251      2466.827       3208.9502      1925.8585    
       600   600            301.72187      1665.305       16193.102      15035.583      3458.6987      11576.884      1424.778       3745.7678     -4041.3696      147.07718     -2562.333       44858.768     -31995.804     -396.8139       47660.486      36.256523      36.256523      36.256523      1.2560955      1782.7427     -128.67471      3341.847     
       700   700            300.6806       1400.0778      16105.213      15127.572      3446.7624      11680.81       1523.4824      3708.9046     -4046.212       143.29831     -2529.6054      44875.907     -31994.965     -394.99747      47879.657      36.312014      36.312014      36.312014      1.2503457      1314.0524      1647.073       1239.108     
       800   800            308.06835      1634.3916      16324.089      15179.687      3531.4497      11648.237      1440.9093      3789.2379     -4074.3638      142.54069     -2487.7767      44832.077     -31994.387     -393.91158      48011.647      36.345351      36.345351      36.345351      1.2469083      1947.63        2699.7448      255.80007    
       900   900            303.4992       1035.4662      15851.732      15126.027      3479.0726      11646.954      1497.6198      3807.7921     -4080.6434      149.85377     -2547.896       44819.045     -31998.817     -393.54752      48056.06       36.356555      36.356555      36.356555      1.2457559      1074.0093      399.68311      1632.7061    
      1000   1000           301.89809      1351.3793      16025.301      15082.479      3460.7188      11621.761      1496.1526      3753.6661     -4089.4421      136.7392      -2503.2401      44826.552     -31998.667     -395.33835      47838.373      36.301575      36.301575      36.301575      1.2514247      1191.1271      2539.8727      323.13805    
      1100   1100           297.39869      1999.7694      16412.645      15025.092      3409.1412      11615.951      1476.971       3750.5919     -4079.3523      147.32544     -2562.911       44874.081     -31990.755     -397.51334      47576.626      36.235246      36.235246      36.235246      1.2583095      1647.2787      831.46862      3520.5609    
      1200   1200           293.3836       1221.0541      15838.851      14993.594      3363.1154      11630.479      1540.9025      3693.4363     -4078.7969      119.59986     -2519.6866      44870.682     -31995.659     -398.44383      47465.519      36.207017      36.207017      36.207017      1.261255       2006.1786      1059.0833      597.90022    
      1300   1300           299.79204      2793.6712      16992.642      15052.138      3436.5766      11615.562      1421.8099      3738.2891     -4033.5542      155.1259      -2557.887       44884.159     -31992.381     -397.08361      47628.115      36.248313      36.248313      36.248313      1.2569492      4285.72        633.26391      3462.0297    
      1400   1400           301.20738      687.27693      15590.328      15111.295      3452.801       11658.494      1551.8484      3682.3267     -4073.8441      156.21713     -2504.1554      44841.988     -31995.887     -395.71954      47792.291      36.289915      36.289915      36.289915      1.2526314      433.71471      101.7206       1526.3955    
      1500   1500           305.16171      2196.0904      16658.914      15128.385      3498.1303      11630.255      1489.7163      3698.2954     -4056.9561      145.92581     -2508.0944      44854.737     -31993.369     -395.7582       47787.622      36.288733      36.288733      36.288733      1.2527537     -496.19457      4121.9778      2962.4878    
      1600   1600           299.78921      1781.208       16243          15001.756      3436.5443      11565.212      1473.8317      3768.9724     -4100.2343      143.50402     -2535.659       44808.94      -31994.143     -395.80289      47782.227      36.287367      36.287367      36.287367      1.2528952      2350.6294      2273.9433      719.05136    
      1700   1700           297.76264      207.56689      15100.984      14956.605      3413.3133      11543.292      1506.9864      3667.1863     -4093.2064      140.58862     -2530.8993      44852.053     -31999.416     -396.52902      47694.728      36.265204      36.265204      36.265204      1.2551937      1359.752      -126.90693     -610.1444     
      1800   1800           298.74943      2270.0684      16574.246      14995.894      3424.6251      11571.269      1399.901       3735.6489     -3999.9614      136.66052     -2578.9916      44869.152     -31991.14      -396.69483      47674.792      36.260151      36.260151      36.260151      1.2557186      2452.0103      2502.5514      1855.6435    
      1900   1900           297.73214      1267.3158      15961.568      15081.13       3412.9636      11668.166      1445.0195      3789.0964     -4067.4419      153.49184     -2501.0109      44850.515     -32001.504     -397.01523      47636.317      36.250394      36.250394      36.250394      1.2567328      1815.1976      1622.8043      363.94539    
      2000   2000           301.50464      2554.2742      16876.81       15099.382      3456.2086      11643.174      1524.5625      3725.6669     -4049.1159      146.83137     -2533.6112      44831.733     -32002.893     -396.36638      47714.298      36.270163      36.270163      36.270163      1.2546789      3763.8501      2220.8901      1678.0823    
      2100   2100           303.08265      1292.8881      15969.59       15066.976      3474.2976      11592.679      1443.4509      3741.9228     -4043.8787      142.17063     -2539.9092      44845.403     -31996.481     -395.07584      47870.16       36.309614      36.309614      36.309614      1.2505937      647.66081      2800.8691      430.1343     
      2200   2200           300.16764      1816.4266      16293.957      15023.157      3440.8822      11582.274      1532.9864      3724.7505     -4108.3415      146.45171     -2543.39        44826.981     -31997.164     -394.24113      47971.513      36.335221      36.335221      36.335221      1.2479515      1737.7849      2368.0052      1343.4899    
      2300   2300           293.09442     -310.40121      14809.571      15026.576      3359.8005      11666.775      1561.1557      3750.4822     -4086.4177      151.58663     -2565.7944      44845.523     -31989.761     -394.52605      47936.869      36.326472      36.326472      36.326472      1.2488534     -1272.5838      1092.8232     -751.44298    
      2400   2400           301.80297      1149.7014      15860.608      15060.442      3459.6284      11600.814      1420.5067      3757.8242     -4045.4883      140.2265      -2558.2818      44874.938     -31988.912     -396.30214      47722.032      36.272123      36.272123      36.272123      1.2544756      1410.71        1159.199       879.19527    
      2500   2500           302.03079      1585.9401      16186.391      15086.139      3462.2399      11623.899      1460.3419      3746.0414     -4056.7829      137.94373     -2544.7737      44873.723     -31992.594     -397.57229      47569.572      36.233455      36.233455      36.233455      1.2584961      1714.5571      1831.3524      1211.9108    
      2600   2600           299.41386      1913.9638      16378.029      15051.354      3432.2415      11619.113      1479.1617      3730.9129     -4044.7335      142.18514     -2564.155       44875.522     -31999.78      -397.91523      47528.574      36.223043      36.223043      36.223043      1.2595817      1618.6762      2546.4634      1576.7517    
      2700   2700           298.56426      947.95332      15623.266      14965.413      3422.5024      11542.91       1451.9453      3728.689      -4034.9765      131.81942     -2570.9885      44837.523     -32001.101     -397.44688      47584.582      36.237266      36.237266      36.237266      1.2580992     -356.77229      2105.784       1094.8483    
      2800   2800           300.13039      1295.5599      15853.569      14953.445      3440.4553      11512.99       1447.6511      3727.553      -4104.9485      148.83588     -2567.8833      44863.107     -32001.325     -396.98717      47639.684      36.251248      36.251248      36.251248      1.256644       3593.9389      1490.6437     -1197.9029    
      2900   2900           297.11441      2237.1454      16626.537      15068.681      3405.8824      11662.799      1483.1762      3673.3901     -4038.2358      155.41561     -2486.5776      44874.781     -31999.151     -396.08492      47748.204      36.278753      36.278753      36.278753      1.2537879      1910.8719      3666.5788      1133.9854    
      3000   3000           299.68042      816.90925      15699.053      15128.351      3435.2972      11693.054      1545.7868      3762.5849     -4059.8325      136.67384     -2566.4197      44869.659     -31995.398     -394.80819      47902.612      36.317817      36.317817      36.317817      1.2497465      682.77245      1192.059       575.89634    
      3100   3100           305.99993      2069.0769      16533.332      15088.978      3507.739       11581.239      1411.3725      3732.3943     -4101.7397      153.71252     -2505.5245      44883.83      -31992.806     -395.11578      47865.321      36.30839       36.30839       36.30839       1.2507202      1322.6204      2099.2031      2785.407     
      3200   3200           297.14025      651.48405      15466.436      15011.733      3406.1787      11605.554      1500.0454      3706.4989     -4059.9169      151.28263     -2517.6207      44821.241     -31995.976     -395.18213      47857.284      36.306358      36.306358      36.306358      1.2509302      559.15503      1391.6741      3.6230424    
      3300   3300           296.06568      1010.6915      15701.732      14998.246      3393.8607      11604.385      1418.7333      3803.1133     -4058.2591      140.16266     -2555.5075      44849.033     -31992.891     -396.26333      47726.705      36.273307      36.273307      36.273307      1.2543527      1875.3102      1071.1821      85.582222    
      3400   3400           300.68362      943.81859      15687.946      15033.526      3446.797       11586.729      1498.0383      3777.6014     -4115.5133      137.43232     -2559.2939      44837.268     -31988.804     -397.78918      47543.635      36.226868      36.226868      36.226868      1.2591827      1055.8741      163.12203      1612.4596    
      3500   3500           298.63517      1377.5797      16034.242      15082.669      3423.3153      11659.354      1439.6266      3750.5516     -4029.0665      157.22453     -2538.8461      44872.62      -31992.756     -399.29701      47364.1        36.181211      36.181211      36.181211      1.2639557      772.89936      1239.8113      2120.0285    
      3600   3600           306.66565      2607.6337      17029.042      15226.047      3515.3703      11710.677      1481.8765      3813.8346     -4071.3881      157.4058      -2551.6959      44873.612     -31992.968     -398.90843      47410.238      36.192955      36.192955      36.192955      1.2627256      2357.2937      2175.5904      3290.0169    
      3700   3700           305.73863      2173.8368      16675.88       15167.538      3504.7437      11662.794      1475.0175      3683.5559     -4022.4168      147.15072     -2513.5432      44891.251     -31998.221     -397.5104       47576.978      36.235335      36.235335      36.235335      1.2583002      508.59786      2206.344       3806.5686    
      3800   3800           298.99726      798.69366      15613.15       15055.954      3427.466       11628.488      1495.1822      3749.9954     -4080.0399      170.79886     -2542.9358      44835.76      -32000.272     -395.36042      47835.702      36.300899      36.300899      36.300899      1.2514946      585.74755     -282.38819      2092.7216    
      3900   3900           300.42432      1537.4555      16097.934      15021.984      3443.8246      11578.159      1468.3335      3685.6057     -4070.5387      137.15792     -2497.8809      44852.271     -31996.789     -394.12296      47985.896      36.338852      36.338852      36.338852      1.2475775      705.2516       1654.5623      2252.5525    
      4000   4000           302.07586      755.89209      15576.018      15046.501      3462.7566      11583.744      1469.2166      3687.2528     -4061.8415      145.51073     -2541.9556      44874.576     -31989.014     -393.73245      48033.489      36.350862      36.350862      36.350862      1.2463413     -1001.7339      1314.1226      1955.2875    
      4100   4100           300.92829      1094.203       15873.514      15108.23       3449.6017      11658.629      1525.8308      3725.6976     -4109.8577      137.52945     -2519.0066      44879.489     -31981.054     -394.36372      47956.601      36.331456      36.331456      36.331456      1.2483396      1367.0802      1169.9139      745.61488    
      4200   4200           304.20586      2604.1817      17003.482      15187.911      3487.1731      11700.738      1445.5377      3791.6774     -4065.7971      150.84341     -2492.0953      44863.964     -31993.392     -395.62101      47804.194      36.292928      36.292928      36.292928      1.2523194      2986.5589      2305.6505      2520.3357    
      4300   4300           306.68175      1601.2243      16279.592      15166.643      3515.5548      11651.088      1459.7835      3767.7587     -4065.6728      134.91724     -2526.3109      44873.285     -31992.673     -396.82426      47659.242      36.256208      36.256208      36.256208      1.2561283      2263.713      -408.14111      2948.101     
      4400   4400           299.57301      1518.9336      16084.976      15029.144      3434.0659      11595.078      1435.677       3768.2648     -4086.9368      140.48122     -2532.4773      44864.468     -31994.399     -396.79409      47662.866      36.257127      36.257127      36.257127      1.2560328      1793.8023      1534.9779      1228.0205    
      4500   4500           297.2829       2513.6278      16751.169      15000.294      3407.8139      11592.48       1474.8416      3743.9661     -4083.6849      131.05596     -2512.7373      44835.167     -31996.128     -395.97438      47761.533      36.282128      36.282128      36.282128      1.253438       2103.0167      1585.6084      3852.2584    
      4600   4600           298.07691      1250.2643      15898.62       15026.76       3416.9158      11609.844      1518.3084      3698.7119     -4080.6563      146.79562     -2496.8217      44817.298     -31993.792     -395.52711      47815.543      36.295799      36.295799      36.295799      1.2520222      1128.6479      1192.5899      1429.5551    
      4700   4700           299.46581      2733.518       16993.721      15087.764      3432.837       11654.927      1468.6709      3685.0969     -4045.253       151.2318      -2483.0573      44867.285     -31989.048     -395.57596      47809.639      36.294305      36.294305      36.294305      1.2521768      1862.4096      2421.8724      3916.2719    
      4800   4800           306.07003      2187.9803      16690.772      15164.267      3508.5425      11655.725      1444.4374      3774.2325     -4037.5379      142.99913     -2507.0385      44832.156     -31993.524     -395.33616      47838.637      36.301642      36.301642      36.301642      1.2514178      3117.5349      1171.3469      2275.0592    
      4900   4900           305.66865      1402.8391      16125.365      15146.119      3503.9414      11642.178      1526.0282      3720.0463     -4064.9218      133.32241     -2546.7865      44867.226     -31992.737     -395.12776      47863.869      36.308023      36.308023      36.308023      1.2507581      1197.1391     -464.80673      3476.1848    
      5000   5000           299.7049       1432.4621      16023.454      15025.642      3435.5777      11590.064      1387.2586      3733.2573     -4033.547       143.50391     -2547.4146      44895.453     -31988.448     -395.96378      47762.812      36.282452      36.282452      36.282452      1.2534045      784.04794      1795.8624      1717.476     
      5100   5100           295.64757      714.84169      15505.676      15009.022      3389.0678      11619.954      1521.7525      3810.611      -4104.5463      139.81844     -2600.5882      44847.372     -31994.466     -396.98768      47639.623      36.251232      36.251232      36.251232      1.2566456      1599.6068      189.96279      354.95543    
      5200   5200           304.72036      2390.1997      16706.549      15048.637      3493.071       11555.566      1421.9586      3751.5911     -4080.9726      131.29512     -2550.1335      44875.931     -31994.104     -397.64363      47561.037      36.231288      36.231288      36.231288      1.258722       1196.7505      3389.3592      2584.4895    
      5300   5300           297.63405      1375.0489      16032.173      15076.743      3411.8391      11664.904      1484.6112      3810.4494     -4068.9707      151.43004     -2528.9989      44813.143     -31996.76      -396.95413      47643.649      36.252253      36.252253      36.252253      1.2565394      1189.5081      2570.7312      364.90734    
      5400   5400           300.39877      2195.2112      16628.274      15099.622      3443.5318      11656.091      1483.5808      3769.4205     -4111.0218      156.18169     -2486.5861      44842.04      -31997.525     -396.08545      47748.14       36.278737      36.278737      36.278737      1.2537896      2035.2109      2151.0611      2399.3616    
      5500   5500           300.45167      1674.985       16271.375      15101.573      3444.1381      11657.435      1477.2724      3832.4989     -4072.8984      125.36746     -2510.2729      44801.52      -31996.053     -394.92981      47887.86       36.314088      36.314088      36.314088      1.2501315      1787.9957      1186.9583      2050.0011    
      5600   5600           297.98523      1622.4172      16174.29       15041.252      3415.8648      11625.387      1501.0893      3721.2431     -4082.7542      144.68595     -2493.7648      44837.542     -32002.654     -394.9475       47885.716      36.313546      36.313546      36.313546      1.2501875      402.4165       2874.6453      1590.1897    
      5700   5700           293.80418      1083.1975      15733.837      14978.214      3367.9366      11610.278      1485.323       3788.4911     -4083.5888      146.76851     -2552.9966      44828.744     -32002.463     -395.38854      47832.301      36.300039      36.300039      36.300039      1.2515836     -697.06102      1594.3906      2352.263     
      5800   5800           302.00089      1088.3751      15752.548      14994.825      3461.8972      11532.928      1400.8388      3691.0829     -4077.0287      148.88205     -2539.6771      44904.782     -31995.952     -396.17747      47737.049      36.275927      36.275927      36.275927      1.2540809      1156.7275      938.33983      1170.0581    
      5900   5900           300.18316      1216.3891      15959.638      15113.931      3441.0602      11672.871      1468.958       3793.2411     -4081.7219      150.57109     -2554.7743      44884.786     -31988.189     -396.71086      47672.866      36.259662      36.259662      36.259662      1.2557693      1158.9646      424.70029      2065.5023    
      6000   6000           305.76642      1988.7626      16525.05       15143.118      3505.0621      11638.055      1494.0581      3783.5028     -4102.3147      146.12446     -2564.4607      44874.618     -31993.473     -396.9332       47646.161      36.252891      36.252891      36.252891      1.2564731      1922.7843      1602.1636      2441.34      
      6100   6100           302.45897      918.72101      15729.215      15090.833      3467.1482      11623.684      1444.616       3770.2488     -4036.2359      144.25887     -2576.5762      44874.489     -31997.116     -396.93896      47645.471      36.252715      36.252715      36.252715      1.2564914      1278.9762      1138.6997      338.48714    
      6200   6200           300.19836      901.46814      15675.107      15048.524      3441.2344      11607.29       1493.3715      3722.7833     -4046.4286      134.77064     -2586.0855      44886.042     -31997.164     -396.81963      47659.798      36.256349      36.256349      36.256349      1.2561136      1454.2786      1270.4757     -20.349878    
      6300   6300           299.28202      2087.6553      16480.953      15029.726      3430.7302      11598.996      1460.0778      3685.4161     -4058.2088      146.268       -2517.5408      44881.143     -31998.159     -396.77538      47665.114      36.257697      36.257697      36.257697      1.2559736      1122.9364      2238.5979      2901.4317    
      6400   6400           297.67852      1751.1383      16276.825      15058.152      3412.3489      11645.803      1527.3642      3709.2821     -4066.1891      151.01892     -2519.6396      44845.827     -32001.861     -396.32773      47718.951      36.271342      36.271342      36.271342      1.2545565      1619.5591      1055.3378      2578.518     
      6500   6500           303.51194      731.46614      15655.296      15145.263      3479.2186      11666.044      1472.3557      3756.3712     -4043.0362      146.18609     -2505.6654      44837.16      -31997.327     -395.56457      47811.015      36.294653      36.294653      36.294653      1.2521408     -100.39643      1045.5895      1249.2054    
      6600   6600           301.67562      1110.479       15924.864      15150.118      3458.1685      11691.949      1525.9475      3759.9193     -4063.6156      158.49581     -2534.4804      44841.828     -31996.145     -395.34113      47838.037      36.30149       36.30149       36.30149       1.2514335      1126.8757      998.15897      1206.4025    
      6700   6700           297.81084      2716.2216      16950.96       15060.024      3413.8658      11646.158      1497.277       3679.932      -4033.9777      152.07771     -2538.7435      44880.696     -31991.104     -396.19542      47734.886      36.275379      36.275379      36.275379      1.2541377      3229.4213      1995.546       2923.6976    
      6800   6800           299.38928      1851.6839      16306.159      15018.824      3431.9597      11586.864      1455.2558      3719.3593     -4047.6883      132.64898     -2534.8703      44849.344     -31987.186     -396.7312       47670.421      36.259042      36.259042      36.259042      1.2558337      2006.5422      640.85449      2907.655     
      6900   6900           298.32157      1601.9139      16140.356      15027.12       3419.7204      11607.4        1441.3747      3649.9785     -4022.9584      154.08014     -2485.6014      44869.489     -31998.963     -396.89275      47651.017      36.254122      36.254122      36.254122      1.2563451      1991.5733      1645.1532      1169.0152    
      7000   7000           303.82123      1701.203       16226.729      15042.441      3482.7641      11559.677      1492.9844      3703.3606     -4058.9907      139.59198     -2525.3748      44809.693     -32001.588     -396.20521      47733.708      36.275081      36.275081      36.275081      1.2541687      1113.4906      1939.6799      2050.4384    
      7100   7100           298.05667      962.59671      15717.749      15046.582      3416.6838      11629.898      1518.5607      3706.2173     -4064.611       153.86201     -2524.2213      44838.473     -31998.383     -395.58042      47809.099      36.294169      36.294169      36.294169      1.252191      -540.6136       1641.553       1786.8508    
      7200   7200           304.72482      1728.2858      16260.058      15053.782      3493.1221      11560.66       1466.2726      3766.3202     -4124.3989      142.40581     -2530.45        44835.555     -31995.045     -395.17575      47858.057      36.306553      36.306553      36.306553      1.25091        2131.8077      597.57576      2455.474     
      7300   7300           301.61645      1148.6083      15831.781      15029.071      3457.4902      11571.581      1456.4096      3708.5354     -4091.406       151.6859      -2540.688       44877.597     -31990.553     -394.67041      47919.335      36.322042      36.322042      36.322042      1.2493104      1947.2194      1644.5217     -145.91644    
      7400   7400           297.88458     -119.07501      14925.172      15008.511      3414.7111      11593.8        1516.4762      3782.3726     -4085.7482      137.86452     -2610.8621      44846.598     -31992.901     -394.08838      47990.106      36.339915      36.339915      36.339915      1.247468       1016.841      -3048.8316      1674.7656    
      7500   7500           296.40555      905.80586      15652.431      15021.801      3397.7566      11624.045      1468.3473      3765.0237     -4074.8835      128.20931     -2536.4275      44858.497     -31984.721     -396.17067      47737.869      36.276135      36.276135      36.276135      1.2540594      990.12501     -41.063612      1768.3562    
      7600   7600           300.99933      2086.8684      16553.17       15109.493      3450.4161      11659.077      1419.4139      3739.0005     -4038.9287      147.22172     -2491.6131      44876.333     -31992.351     -398.69992      47435.032      36.199263      36.199263      36.199263      1.2620656      1629.1363      1540.3353      3091.1336    
      7700   7700           305.06412      1711.4547      16321.753      15138.459      3497.0116      11641.447      1473.0052      3678.0748     -4023.8458      139.30439     -2537.5636      44904.739     -31992.267     -398.92738      47407.985      36.192382      36.192382      36.192382      1.2627856      2800.8924      745.93981      1587.5319    
      7800   7800           298.32357      1591.4749      16125.561      15019.801      3419.7433      11600.058      1477.0488      3774.0393     -4090.9472      141.84999     -2556.4996      44845.709     -31991.142     -396.97251      47641.444      36.251694      36.251694      36.251694      1.2565976      3644.3376      1022.6878      107.39929    
      7900   7900           294.88864     -58.816754      14930.658      14971.743      3380.368       11591.375      1474.5264      3752.2611     -4077.5199      131.72408     -2538.4744      44849.313     -32000.455     -394.8526       47897.224      36.316455      36.316455      36.316455      1.2498871     -2916.8163      182.14054      2558.2255    
      8000   8000           293.39616      1585.0995      16113.257      15000.289      3363.2594      11637.029      1514.5669      3744.2096     -4085.9176      149.46579     -2549.2721      44859.003     -31995.027     -392.82136      48144.896      36.378944      36.378944      36.378944      1.2434573      1720.5231      988.17174      2046.6037    
      8100   8100           300.86905      1166.3169      15878.467      15058.646      3448.9227      11609.723      1442.9004      3717.6661     -4075.0458      154.25994     -2510.075       44869.915     -31989.897     -392.39056      48197.753      36.392252      36.392252      36.392252      1.2420936      189.07068      1390.4531      1919.4268    
      8200   8200           300.80589      248.47135      15298.119      15123.924      3448.1986      11675.725      1566.3096      3706.3692     -4057.6483      162.48202     -2543.1281      44836.73      -31995.389     -393.42558      48070.956      36.360311      36.360311      36.360311      1.2453699      1327.754      -2245.1959      1662.856     
      8300   8300           302.46527      2243.2615      16689.424      15127.508      3467.2205      11660.287      1472.894       3759.8614     -4052.8889      149.86079     -2505.6807      44831.567     -31995.327     -396.13514      47742.15       36.277219      36.277219      36.277219      1.2539469      1066.5354      3591.5374      2071.7115    
      8400   8400           301.00424      1479.9547      16062.465      15038.144      3450.4723      11587.672      1461.7958      3689.6812     -4075.3463      170.23358     -2500.5687      44833.594     -31991.718     -398.50473      47458.266      36.205173      36.205173      36.205173      1.2614477      3220.4482     -272.30722      1491.7229    
      8500   8500           296.46694      1625.1582      16080.399      14955.434      3398.4604      11556.974      1483.1461      3727.7541     -4080.8976      146.16351     -2571.3211      44844.239     -31992.11      -398.45363      47464.352      36.20672       36.20672       36.20672       1.261286       1885.2743      918.728        2071.4723    
      8600   8600           299.52184      2006.5036      16398.234      15006.597      3433.4793      11573.118      1400.3075      3659.0963     -4006.8101      155.72251     -2518.2761      44879.902     -31996.824     -397.68145      47556.514      36.230139      36.230139      36.230139      1.2588417      1382.5195      1479.8298      3157.1616    
      8700   8700           309.35079      1190.8922      15907.214      15077.32       3546.1506      11531.17       1438.5403      3760.3401     -4083.65        148.7924      -2578.4385      44838.747     -31993.161     -395.79573      47783.091      36.287586      36.287586      36.287586      1.2528725      1118.0805      526.42687      1928.1692    
      8800   8800           299.50476      161.26086      15199.207      15086.404      3433.2835      11653.121      1482.0847      3727.8165     -4074.7648      146.47535     -2527.0538      44888.667     -31990.104     -394.30488      47963.757      36.333263      36.333263      36.333263      1.2481533      168.42686      1021.9274     -706.57168    
      8900   8900           301.18366      1505.7262      16098.234      15043.684      3452.5291      11591.155      1457.0926      3794.9321     -4117.5787      147.47831     -2560.6665      44865.221     -31995.324     -393.82214      48022.55       36.348102      36.348102      36.348102      1.2466252      2056.2261     -3.4220342      2464.3747    
      9000   9000           297.08305      1684.8297      16161.215      14984.492      3405.523       11578.969      1475.5014      3685.2935     -4060.6444      149.24774     -2559.6649      44882.943     -31993.708     -394.9144       47889.729      36.31456       36.31456       36.31456       1.2500827      895.7693       2459.9747      1698.7451    
      9100   9100           297.32225      1787.0592      16222.086      14976.436      3408.2649      11568.171      1422.6367      3697.2003     -4053.5737      148.46097     -2546.7151      44890.775     -31990.612     -395.69836      47794.849      36.290562      36.290562      36.290562      1.2525643      3204.1459      602.54208      1554.4895    
      9200   9200           301.51624      1806.3104      16350.932      15093.122      3456.3415      11636.78       1395.4776      3736.0099     -4017.6608      161.48052     -2539.6718      44890.61      -31989.466     -396.09408      47747.1        36.278473      36.278473      36.278473      1.2538169      3502.5851      782.78019      1133.5658    
      9300   9300           305.47061      1839.096       16414.057      15134.354      3501.6713      11632.683      1450.0462      3649.2683     -4022.681       146.81096     -2505.522       44905.758     -31990.998     -396.3843       47712.14       36.269617      36.269617      36.269617      1.2547356      2139.6084      1224.5412      2153.1385    
      9400   9400           304.96546      1632.3895      16220.482      15082.914      3495.8806      11587.033      1447.0551      3780.8826     -4074.5518      150.86646     -2579.0109      44855.844     -31994.052     -395.79244      47783.488      36.287687      36.287687      36.287687      1.2528621      2226.8843      2783.8181     -113.53393    
      9500   9500           296.09836     -346.59234      14760.611      15002.272      3394.2352      11608.036      1526.0923      3729.6857     -4049.2543      134.07137     -2584.5221      44844.741     -31992.777     -395.58049      47809.09       36.294166      36.294166      36.294166      1.2521912     -22.327714     -927.67594     -89.773356    
      9600   9600           300.90035      2497.1206      16734.804      14994.691      3449.2815      11545.409      1463.71        3592.7363     -4043.8882      137.87269     -2511.0126      44903.504     -31997.513     -395.80679      47781.756      36.287248      36.287248      36.287248      1.2529075      4317.7864      2626.4785      547.09685    
      9700   9700           303.00367      1338.0297      15953.321      15019.608      3473.3923      11546.216      1413.067       3757.3325     -4072.5518      148.06061     -2566.5432      44861.311     -31994.46      -395.25194      47848.831      36.30422       36.30422       36.30422       1.2511512      548.10138      2023.6035      1442.3841    
      9800   9800           300.91142      1555.6176      16137.24       15051.6        3449.4084      11602.191      1523.9602      3661.4563     -4095.9396      142.56971     -2475.5853      44842.973     -31997.243     -395.21949      47852.76       36.305214      36.305214      36.305214      1.2510485      946.22089      1766.1108      1954.5211    
      9900   9900           300.89784      1953.5299      16435.856      15073.113      3449.2527      11623.861      1410.8903      3753.4768     -4036.6199      134.92986     -2488.7959      44846.106     -31996.127     -395.39151      47831.941      36.299948      36.299948      36.299948      1.251593       2513.0367      2047.291       1300.2619    
     10000   10000          297.70786      2154.8562      16586.16       15083.319      3412.6853      11670.634      1446.4862      3737.2152     -4039.723       149.53728     -2495.555       44864.189     -31991.516     -395.48185      47821.015      36.297184      36.297184      36.297184      1.251879       2380.4152      1594.1869      2489.9665    
     10100   10100          300.74627      732.44577      15618.553      15107.834      3447.5153      11660.318      1496.1288      3748.2973     -4048.7605      150.92296     -2513.0787      44821.505     -31994.697     -395.56147      47811.389      36.294748      36.294748      36.294748      1.252131       1779.9703     -178.30092      595.66793    
     10200   10200          300.6777       2685.2268      16955.888      15084.166      3446.7291      11637.437      1371.5243      3800.7166     -4046.9865      153.45733     -2528.6427      44881.61      -31994.242     -395.69523      47795.227      36.290658      36.290658      36.290658      1.2525544      2073.6893      2857.0455      3124.9454    
     10300   10300          296.43286      589.81982      15433.532      15022.134      3398.0697      11624.064      1581.3662      3687.766      -4108.1732      143.217       -2512.5159      44824.002     -31991.598     -395.43839      47826.271      36.298513      36.298513      36.298513      1.2517414      1262.4889      462.21984      44.7507      
     10400   10400          300.85429      2493.9017      16722.99       14983.577      3448.7535      11534.823      1412.5699      3779.4626     -4087.1018      130.6631      -2538.9678      44832.459     -31994.262     -395.45566      47824.182      36.297985      36.297985      36.297985      1.2517961      2644.9523      2426.2007      2410.5521    
     10500   10500          296.60787      1327.2073      15890.12       14964.466      3400.0759      11564.39       1517.7033      3631.9234     -4086.4942      147.66568     -2459.6931      44810.289     -31997.004     -395.46809      47822.679      36.297605      36.297605      36.297605      1.2518354      1216.2134      2098.9517      666.45674    
     10600   10600          296.05724      1369.5403      15984.393      15028.487      3393.7639      11634.723      1459.2965      3761.0284     -4055.7065      143.31808     -2522.0945      44845.222     -31996.34      -395.16732      47859.077      36.306811      36.306811      36.306811      1.2508833     -99.784011      2006.875       2201.5299    
     10700   10700          308.98289      2498.8903      16864.577      15119.001      3541.9332      11577.067      1489.5553      3707.7991     -4099.3648      129.47634     -2507.6248      44859.085     -32001.859     -394.84762      47897.828      36.316608      36.316608      36.316608      1.2498713      1978.5169      1893.8041      3624.3498    
     10800   10800          302.28422      188.88286      15254.291      15122.277      3465.145       11657.132      1527.6227      3701.0607     -4050.0114      145.68695     -2524.5926      44860.553     -32003.187     -394.63253      47923.934      36.323204      36.323204      36.323204      1.2491905     -1179.5218      774.76703      971.40334    
     10900   10900          292.67328      2230.5324      16601.277      15044.884      3354.9729      11689.911      1438.9206      3775.8949     -4043.2489      139.35065     -2517.0781      44890.441     -31994.37      -395.28504      47844.824      36.303207      36.303207      36.303207      1.251256       3002.0579      2111.8087      1577.7306    
     11000   11000          297.95629      1320.7987      15915.393      14996.219      3415.5331      11580.686      1506.3418      3656.9123     -4037.2067      128.79247     -2542.291       44866.95      -31998.813     -396.33294      47718.324      36.271184      36.271184      36.271184      1.254573       1225.0208      1318.987       1418.3881    
     11100   11100          295.87906      1727.3473      16203.861      15004.034      3391.7214      11612.312      1455.4299      3741.9801     -4001.2459      146.38298     -2518.6007      44793.895     -32005.529     -397.08397      47628.07       36.248302      36.248302      36.248302      1.2569504      1867.2618      945.78668      2368.9935    
     11200   11200          305.00251      2426.3431      16831.846      15146.441      3496.3054      11650.135      1409.0772      3793.101      -4048.8285      148.66589     -2523.3276      44871.563     -32000.116     -397.0719       47629.519      36.248669      36.248669      36.248669      1.2569122      1145.3536      3078.7593      3054.9165    
     11300   11300          305.30863     -411.29262      14874.636      15161.015      3499.8144      11661.201      1546.9707      3749.0402     -4069.3065      150.23379     -2530.8483      44814.328     -31999.218     -396.12385      47743.511      36.277564      36.277564      36.277564      1.2539112     -1608.9414      840.73979     -465.67625    
     11400   11400          299.81973      941.64089      15723.322      15067.27       3436.8941      11630.376      1504.2066      3701.9995     -4055.7235      169.39806     -2532.9771      44843.09      -31999.617     -395.88438      47772.391      36.284877      36.284877      36.284877      1.2531532      1705.7508     -264.12283      1383.2947    
     11500   11500          293.9431       2632.507       16840.776      15004.797      3369.5291      11635.268      1482.6191      3666.1418     -4081.2169      144.47207     -2468.3859      44884.803     -31993.166     -395.47859      47821.409      36.297283      36.297283      36.297283      1.2518687      3045.1233      2496.7462      2355.6514    
     11600   11600          300.63964     -16.055321      14999.897      15011.107      3446.2929      11564.814      1519.9356      3686.6443     -4089.6729      145.38064     -2576.5874      44877.344     -31998.23      -395.02616      47876.18       36.311136      36.311136      36.311136      1.2504365      917.06534     -390.04337     -575.18793    
     11700   11700          308.03861      1156.2757      15889.693      15084.012      3531.1087      11552.904      1439.0294      3662.5707     -4046.8697      156.75129     -2524.449       44863.74      -31997.869     -395.84025      47777.717      36.286226      36.286226      36.286226      1.2530135     -1450.3002      3174.256       1744.8714    
     11800   11800          306.94319      2442.7695      16879.924      15181.752      3518.5518      11663.2        1465.4186      3699.9011     -4053.2954      147.85943     -2494.3345      44887.709     -31990.058     -396.75465      47667.603      36.258328      36.258328      36.258328      1.255908       3152.9098      2944.3981      1231.0006    
     11900   11900          309.34346      1811.6072      16462.629      15201.319      3546.0665      11655.252      1528.6136      3733.9645     -4073.0666      131.70965     -2516.3167      44847.964     -31997.616     -396.15348      47739.941      36.27666       36.27666       36.27666       1.254005       2399.8476      1347.7116      1687.2624    
     12000   12000          294.31544      962.0933       15703.253      15032.961      3373.7973      11659.164      1481.956       3716.9625     -4061.3287      148.63616     -2489.4148      44857.995     -31995.642     -395.89016      47771.694      36.284701      36.284701      36.284701      1.2531714      778.18438      409.65079      1698.4447    
     12100   12100          300.50764      1926.5632      16338.004      14994.838      3444.7797      11550.058      1505.6239      3582.0197     -4051.6136      167.7059      -2519.4994      44857.596     -31991.775     -395.61685      47804.697      36.293055      36.293055      36.293055      1.2523063      2922.8061      1738.6793      1118.2044    
     12200   12200          301.92531      1749.9839      16229.346      15008.107      3461.0308      11547.076      1467.7761      3676.5688     -4046.884       136.54266     -2535.2969      44841.725     -31993.355     -395.23441      47850.954      36.304757      36.304757      36.304757      1.2510957      1357.7405      1531.4713      2360.7398    
     12300   12300          301.46493      1787.7256      16283.937      15036.687      3455.7534      11580.934      1511.3928      3664.2673     -4065.9073      154.16693     -2553.2822      44868.652     -31998.355     -395.33809      47838.405      36.301583      36.301583      36.301583      1.2514239      1710.8199      2454.854       1197.5029    
     12400   12400          300.31909      1165.7817      15914.827      15102.423      3442.6183      11659.804      1508.0051      3732.7247     -4055.8704      147.84282     -2533.1041      44860.539     -32000.333     -395.79113      47783.647      36.287727      36.287727      36.287727      1.252858       1872.2226     -45.317772      1670.4403    
     12500   12500          300.49943      2533.0737      16904.036      15142.48       3444.6856      11697.795      1510.6516      3738.2238     -4062.2511      158.4476      -2506.1221      44859.696     -32000.851     -396.61822      47684.001      36.262485      36.262485      36.262485      1.2554761      2074.4234      2567.7382      2957.0596    
     12600   12600          301.97975      1505.4669      16112.766      15066.383      3461.6549      11604.728      1454.8007      3724.0269     -4038.705       167.35381     -2552.1196      44846.168     -31996.796     -396.82761      47658.839      36.256106      36.256106      36.256106      1.2561389      695.02445      3083.677       737.69934    
     12700   12700          300.88087      1589.6807      16080.37       14975.774      3449.0581      11526.716      1449.2859      3620.4502     -4053.0708      152.34753     -2530.7502      44878.209     -31989.756     -396.94244      47645.053      36.252609      36.252609      36.252609      1.2565024      390.93255      2830.6397      1547.4699    
     12800   12800          296.21741      1528.5929      16051.313      14989.111      3395.6         11593.512      1484.8132      3755.0874     -4076.0408      147.52529     -2578.3144      44854.914     -31994.473     -396.923        47647.387      36.253201      36.253201      36.253201      1.2564408      360.88544      1750.7157      2474.1776    
     12900   12900          301.79421      2032.8691      16459.102      15046.292      3459.5279      11586.764      1469.6939      3710.9079     -4076.7479      138.68752     -2547.4219      44891.2       -31999.556     -396.86864      47653.912      36.254856      36.254856      36.254856      1.2562688      1985.8091      1311.9128      2800.8854    
     13000   13000          301.84587      1955.2616      16481.139      15120.068      3460.1201      11659.948      1487.6113      3764.3188     -4069.9243      157.32201     -2546.0396      44855.751     -31989.091     -396.22817      47730.941      36.27438       36.27438       36.27438       1.2542414      2182.1753      893.51552      2790.0939    
     13100   13100          309.28769      690.35347      15664.857      15184.2        3545.4272      11638.773      1510.0966      3696.6109     -4035.177       146.163       -2555.8075      44863.741     -31986.854     -396.14823      47740.573      36.27682       36.27682       36.27682       1.2539883     -542.18529      898.23329      1715.0124    
     13200   13200          299.43237      1156.0096      16016.255      15211.742      3432.4537      11779.288      1544.3911      3912.8802     -4092.9117      150.19623     -2551.0903      44814.325     -31998.502     -396.32338      47719.474      36.271475      36.271475      36.271475      1.2545428      388.90595      1291.9795      1787.1433    
     13300   13300          297.97478      2052.9446      16529.419      15104.59       3415.7451      11688.845      1510.1692      3753.6544     -4083.3716      166.33784     -2524.276       44853.903     -31987.572     -397.40721      47589.331      36.238471      36.238471      36.238471      1.2579736      955.36832      2344.8381      2858.6275    
     13400   13400          298.58914      1584.0364      16129.267      15031.202      3422.7875      11608.414      1479.3243      3812.4998     -4086.9521      138.9177      -2588.5181      44852.286     -31999.144     -397.88565      47532.108      36.22394       36.22394       36.22394       1.2594881      790.76243      1710.7249      2250.6218    
     13500   13500          293.90893      2561.9374      16776.758      15000.792      3369.1374      11631.654      1463.5667      3752.3844     -4052.1036      150.92616     -2537.9076      44848.448     -31993.66      -397.8826       47532.472      36.224033      36.224033      36.224033      1.2594784      1389.354       2316.7163      3979.7418    
     13600   13600          298.3753       529.17075      15383.504      15015.727      3420.3363      11595.39       1495.8324      3680.9055     -4020.2599      156.90821     -2591.4088      44865.193     -31991.78      -396.8558       47655.454      36.255247      36.255247      36.255247      1.2562281      1461.7354      757.89784     -632.121      
     13700   13700          305.78842      1759.1901      16342.756      15117.971      3505.3144      11612.656      1487.007       3737.4698     -4078.7796      142.57649     -2536.7289      44852.791     -31991.68      -396.16297      47738.796      36.27637       36.27637       36.27637       1.254035       75.519847      1554.165       3647.8854    
     13800   13800          306.72997      1242.4489      16004.509      15137.681      3516.1075      11621.574      1383.9078      3810.1477     -4069.6331      143.36108     -2520.9065      44866.395     -31991.698     -395.33641      47838.607      36.301634      36.301634      36.301634      1.2514186      543.48061      2599.8159      584.05013    
     13900   13900          301.51472      534.27293      15449.592      15076.218      3456.3241      11619.894      1526.5704      3748.7056     -4097.6447      156.0619      -2516.8626      44797.488     -31994.424     -394.67577      47918.683      36.321878      36.321878      36.321878      1.2493274      1473.4765      533.73019     -404.38791    
     14000   14000          299.28349      2287.6169      16632.697      15034.723      3430.747       11603.976      1430.4742      3811.2007     -4093.9149      137.25149     -2538.4033      44853.236     -31995.869     -394.85238      47897.251      36.316462      36.316462      36.316462      1.2498864      285.41438      2752.5187      3824.9175    
     14100   14100          297.98281     -156.04697      14927.915      15036.875      3415.8371      11621.037      1531.3182      3725.4565     -4095.9462      157.63235     -2501.1736      44799.666     -31995.916     -395.01252      47877.833      36.311553      36.311553      36.311553      1.2503933     -904.07817      866.59489     -430.65763    
     14200   14200          301.0867       2894.9386      17042.41       15025.469      3451.4176      11574.052      1440.3487      3723.0094     -4104.1515      153.50808     -2481.7229      44843.61      -32000.55      -395.88358      47772.488      36.284902      36.284902      36.284902      1.2531506      3925.4826      1054.9784      3704.3548    
     14300   14300          297.52336      1286.3366      15905.911      15011.612      3410.5703      11601.042      1466.9638      3705.8625     -4036.7844      164.39256     -2563.6875      44860.603     -31996.307     -396.72853      47670.742      36.259124      36.259124      36.259124      1.2558253      29.623092      1391.9988      2437.3881    
     14400   14400          294.74695      2117.5787      16532.909      15062.712      3378.7438      11683.969      1502.5114      3748.026      -4070.6266      140.24965     -2519.0678      44874.228     -31991.352     -397.26969      47605.805      36.242652      36.242652      36.242652      1.2575383      2276.0021      2579.7583      1496.9758    
     14500   14500          305.06947      220.28863      15295.297      15142.048      3497.073       11644.975      1523.5949      3719.6877     -4043.0416      135.59278     -2547.5342      44851.766     -31995.091     -396.47339      47701.419      36.2669        36.2669        36.2669        1.2550176     -60.368336      560.70761      160.52662    
     14600   14600          302.63235      2433.2346      16812.388      15117.247      3469.1358      11648.112      1430.2359      3700.717      -3995.2443      146.93258     -2501.7909      44864.453     -31997.192     -395.91285      47768.956      36.284008      36.284008      36.284008      1.2532433      2466.8341      1307.5997      3525.2699    
     14700   14700          298.64517      1138.5428      15817.314      15022.292      3423.4299      11598.862      1488.9147      3738.697      -4079.2438      161.75521     -2530.9313      44814.823     -31995.153     -394.99499      47879.958      36.312091      36.312091      36.312091      1.2503378      1238.871       759.45771      1417.2998    
     14800   14800          293.79166      1106.6647      15754.901      14981.545      3367.7931      11613.752      1481.8441      3673.9983     -4053.1446      146.27281     -2507.9355      44870.976     -31998.259     -394.69161      47916.761      36.321392      36.321392      36.321392      1.2493775      1908.2378      1531.7613     -120.00516    
     14900   14900          296.83305      1814.9698      16271.439      15002.553      3402.6571      11599.895      1490.0474      3724.4943     -4109.3118      153.55649     -2496.7187      44835.552     -31997.724     -394.51885      47937.743      36.326693      36.326693      36.326693      1.2488306      1246.2896      2234.3792      1964.2407    
     15000   15000          299.50037      1757.8952      16268.267      15041.048      3433.2332      11607.815      1481.8273      3687.2555     -4088.7804      141.62404     -2465.4928      44841.161     -31989.78      -395.08651      47868.867      36.309287      36.309287      36.309287      1.2506275      2015.9731      1359.1119      1898.6007    
     15100   15100          302.23781      1830.9747      16361.841      15086.851      3464.613       11622.238      1546.3727      3690.5144     -4076.2929      140.43765     -2551.1654      44855.612     -31983.24      -396.09254      47747.286      36.27852       36.27852       36.27852       1.2538121      1190.2054      3170.38        1132.3387    
     15200   15200          302.02863      1459.0807      16113.412      15100.355      3462.2152      11638.139      1437.7591      3803.7195     -4084.234       163.21626     -2538.3183      44846.16      -31990.163     -397.25225      47607.895      36.243183      36.243183      36.243183      1.2574831      1056.7856      1635.6728      1684.7835    
     15300   15300          295.03912      839.24065      15607.228      15024.501      3382.093       11642.408      1536.496       3737.2355     -4050.4138      136.05969     -2543.1795      44822.563     -31996.352     -397.23067      47610.481      36.243839      36.243839      36.243839      1.2574148      1421.57       -543.82324      1639.9752    
     15400   15400          296.81018      1730.2109      16153.395      14950.862      3402.3951      11548.467      1505.7672      3664.815      -4076.2038      144.78063     -2535.4768      44838.475     -31993.691     -396.84719      47656.488      36.255509      36.255509      36.255509      1.2562009      228.63838      3543.7439      1418.2505    
     15500   15500          299.10199      2160.484       16474.784      14972.235      3428.6665      11543.568      1427.5368      3696.1419     -4035.597       158.02037     -2545.6578      44835.39      -31992.266     -396.59157      47687.205      36.263297      36.263297      36.263297      1.2553917      3966.762       681.3934       1833.2967    
     15600   15600          301.20654      1283.0337      15964.346      15073.663      3452.7913      11620.872      1459.8078      3755.6216     -4064.3604      156.46752     -2534.3697      44840.403     -31992.698     -397.31582      47600.278      36.24125       36.24125       36.24125       1.2576843     -192.57357      1511.1171      2530.5577    
     15700   15700          301.3412       2366.0644      16743.061      15102.894      3454.335       11648.559      1471.6242      3736.1094     -4019.1474      144.61676     -2527.0624      44840.052     -31997.633     -397.88689      47531.959      36.223903      36.223903      36.223903      1.259492       2521.5627      3191.2855      1385.3451    
     15800   15800          296.60771      680.52717      15551.523      15079.619      3400.0741      11679.545      1406.8408      3813.749      -4000.9263      152.19753     -2572.3643      44875.408     -31995.36      -397.75221      47548.054      36.227991      36.227991      36.227991      1.2590657      418.14946     -341.17017      1964.6022    
     15900   15900          290.93513      2278.5563      16617.364      15035.439      3335.0481      11700.391      1491.7067      3753.2456     -4053.5795      140.37426     -2512.4072      44876.695     -31995.643     -397.27871      47604.725      36.242378      36.242378      36.242378      1.2575668      2295.1713      2724.3138      1816.1838    
     16000   16000          293.81949      354.11835      15257.729      15011.352      3368.1121      11643.24       1468.7627      3782.4852     -4030.4173      152.98624     -2573.9083      44836.805     -31993.474     -396.43285      47706.297      36.268136      36.268136      36.268136      1.2548893     -458.54501      382.48829      1138.4118    
     16100   16100          298.44699      3038.4514      17087.898      14973.816      3421.1581      11552.658      1449.3782      3666.5945     -4066.2583      131.09939     -2528.76        44888.337     -31987.733     -396.41652      47708.262      36.268634      36.268634      36.268634      1.2548376      3829.8186      1785.95        3499.5857    
     16200   16200          291.71053     -411.99164      14690.883      14977.877      3343.9366      11633.94       1436.2414      3785.6839     -4028.2972      160.02292     -2594.4939      44867.671     -31992.888     -395.94695      47764.842      36.282966      36.282966      36.282966      1.2533512     -996.83565      348.62213     -587.76139    
     16300   16300          304.40126      1941.5626      16416.212      15066.633      3489.4131      11577.22       1481.9251      3702.0276     -4090.5218      142.93728     -2532.8037      44872.13      -31998.474     -396.80226      47661.884      36.256878      36.256878      36.256878      1.2560587      2797.0113      1045.5265      1982.1499    
     16400   16400          304.06185      925.82504      15759.101      15116.308      3485.5223      11630.786      1484.9155      3760.2949     -4069.0869      139.07041     -2536.7918      44847.017     -31994.633     -397.26396      47606.492      36.242827      36.242827      36.242827      1.2575201      1124.1787      404.08701      1249.2094    
     16500   16500          302.38038      1385.6301      16081.784      15118.118      3466.2474      11651.87       1450.0228      3765.7126     -4038.8941      149.49086     -2547.3094      44866.475     -31993.628     -396.58985      47687.411      36.26335       36.26335       36.26335       1.2553863      790.66681      1822.1344      1544.0889    
     16600   16600          300.69331      447.32124      15308.628      14996.476      3446.9081      11549.568      1519.0983      3701.2147     -4095.9202      151.68596     -2554.8586      44821.086     -31992.738     -395.25271      47848.738      36.304196      36.304196      36.304196      1.2511536      41.685897      1243.2941      56.983729    
     16700   16700          298.35394      1553.7497      16032.926      14947.276      3420.0915      11527.185      1434.6026      3676.9271     -4071.7147      135.24764     -2507.0598      44849.898     -31990.716     -394.74135      47910.723      36.319866      36.319866      36.319866      1.2495349      1406.634       722.22634      2532.3888    
     16800   16800          297.3244       1371.5322      15960.372      15003.47       3408.2896      11595.18       1521.9329      3695.0926     -4090.1307      151.09178     -2523.0343      44834.033     -31993.806     -395.32968      47839.423      36.30184       36.30184       36.30184       1.2513973      1101.0731      1130.5568      1882.9666    
     16900   16900          300.57412      401.51548      15334.339      15054.9        3445.5418      11609.359      1463.1144      3726.6311     -4047.8838      126.58648     -2507.9071      44838.185     -31989.368     -396.31136      47720.922      36.271842      36.271842      36.271842      1.2545047      448.43472     -47.026298      803.13801    
     17000   17000          301.70561      1370.5957      16034.383      15082.082      3458.5124      11623.569      1446.3505      3753.6628     -4063           142.13591     -2523.8326      44864.615     -31996.362     -396.96861      47641.911      36.251813      36.251813      36.251813      1.2565852      2061.4836      1049.296       1001.0075    
     17100   17100          305.21855      2379.7569      16783.678      15127.848      3498.7819      11629.066      1448.7314      3717.91       -4035.0089      139.3444      -2535.8397      44895.293     -32001.364     -396.40404      47709.765      36.269015      36.269015      36.269015      1.2547981      1811.9295      1068.625       4258.7161    
     17200   17200          306.43691      326.03723      15429.326      15201.757      3512.7482      11689.009      1499.6179      3754.5771     -4022.3037      159.61534     -2552.2134      44846.545     -31996.83      -395.1621       47859.71       36.306971      36.306971      36.306971      1.2508668      543.23172      835.82178     -400.94179    
     17300   17300          304.90306      1237.6946      16017.951      15151.876      3495.1653      11656.711      1465.7483      3778.3336     -4073.0217      156.67717     -2556.2923      44874.05      -31988.784     -394.16591      47980.667      36.337532      36.337532      36.337532      1.2477134      2080.7996      1044.4676      587.8166     
     17400   17400          300.07962      104.45919      15125.1        15051.802      3439.8732      11611.929      1535.3073      3707.9836     -4110.8816      151.79057     -2562.1481      44882.39      -31992.512     -393.07595      48113.713      36.371088      36.371088      36.371088      1.2442632     -87.37509       114.01745      286.7352     
     17500   17500          300.88243      2453.6636      16760.063      15039.551      3449.076       11590.475      1405.5045      3748.1506     -4083.511       141.49938     -2522.5066      44893.179     -31991.841     -393.34936      48080.27       36.362659      36.362659      36.362659      1.2451287      2406.1356      2071.2426      2883.6127    
     17600   17600          298.17092     -849.23246      14448.534      15041.767      3417.9934      11623.774      1566.2288      3712.9814     -4071.3972      140.71828     -2600.4131      44865.265     -31989.61      -394.84134      47898.59       36.3168        36.3168        36.3168        1.2498515     -797.37476     -1367.7795     -382.54308    
     17700   17700          300.17791      3189.1291      17251.065      15037.783      3441           11596.783      1513.4108      3707.6231     -4081.3464      135.10604     -2569.1461      44878.558     -31987.423     -397.42627      47587.05       36.237892      36.237892      36.237892      1.2580339      2232.7289      4279.2126      3055.4459    
     17800   17800          299.67228      1422.1703      16016.334      15032.584      3435.2038      11597.38       1450.5901      3731.2998     -4056.9774      149.4149      -2547.1731      44867.526     -31997.3       -398.73811      47430.489      36.198108      36.198108      36.198108      1.2621865      1956.3857      771.71324      1538.412     
     17900   17900          299.96863      1367.3309      15976.448      15029.229      3438.6009      11590.628      1470.2122      3736.0186     -4017.07        132.47412     -2583.2218      44841.657     -31989.442     -398.1479       47500.799      36.215985      36.215985      36.215985      1.2603182      1308.1787      629.16988      2164.6442    
     18000   18000          303.5429       1388.2042      16016.845      15051.78       3479.5736      11572.207      1530.4714      3742.8669     -4083.1984      140.65952     -2630.6856      44863.141     -31991.048     -396.75123      47668.015      36.258432      36.258432      36.258432      1.2558971      1537.246       742.22768      1885.1389    
     18100   18100          303.52294      698.2987       15542.279      15056.073      3479.3447      11576.728      1476.7799      3728.2309     -4065.3152      132.12811     -2560.2884      44861.127     -31995.934     -396.13399      47742.289      36.277254      36.277254      36.277254      1.2539433      1355.4714     -277.73648      1017.1612    
     18200   18200          294.68459      941.86415      15686.253      15029.731      3378.029       11651.702      1470.4603      3768.6648     -4072.3104      137.72686     -2545.3507      44884.912     -31992.401     -395.69481      47795.278      36.290671      36.290671      36.290671      1.2525531      1586.3274      663.93893      575.32612    
     18300   18300          297.97495      2672.131       16885.299      15021.138      3415.747       11605.391      1453.9563      3752.0616     -4055.1829      149.36817     -2597.6379      44899.849     -31997.023     -395.3626       47835.439      36.300833      36.300833      36.300833      1.2515015      2832.2107      2312.234       2871.9483    
     18400   18400          296.63635      848.92283      15648.329      15055.79       3400.4023      11655.387      1492.6976      3720.8798     -4053.6988      134.85533     -2541.9567      44890.508     -31987.898     -395.15973      47859.996      36.307044      36.307044      36.307044      1.2508593     -578.70595      1044.8435      2080.6309    
     18500   18500          302.23156      1361.0119      16088.528      15137.583      3464.5413      11673.041      1454.8579      3810.1115     -4079.1151      154.12433     -2528.731       44854.127     -31992.333     -394.75475      47909.097      36.319455      36.319455      36.319455      1.2495773     -793.67515      1508.3576      3368.3532    
     18600   18600          296.53167      1431.9102      16125.086      15121.95       3399.2024      11722.748      1531.1703      3807.3585     -4066.8772      150.82362     -2536.24        44835.176     -31998.664     -393.7107       48036.143      36.351531      36.351531      36.351531      1.2462725      659.30265      2018.4064      1618.0214    
     18700   18700          297.26547      752.97696      15537.745      15010.581      3407.6141      11602.967      1523.9219      3699.3699     -4061.9714      128.36057     -2554.1816      44866.511     -31999.043     -393.96506      48005.129      36.343706      36.343706      36.343706      1.2470776      49.634803      765.05843      1444.2377    
     18800   18800          298.2071       776.12266      15526.388      14985.206      3418.4082      11566.797      1499.6103      3695.9229     -4056.9265      134.00891     -2567.0563      44859.689     -31998.451     -395.55628      47812.016      36.294907      36.294907      36.294907      1.2521146      259.61818      789.35956      1279.3902    
     18900   18900          297.33767      2357.9376      16664.594      15025.714      3408.4417      11617.272      1490.3847      3671.5418     -4053.8359      141.96851     -2505.914       44871.772     -31998.645     -396.83171      47658.347      36.255981      36.255981      36.255981      1.2561519      2244.7385      1668.4819      3160.5924    
     19000   19000          301.92823      1027.9753      15794.196      15079.896      3461.0643      11618.832      1457.7838      3779.8764     -4061.1468      141.97912     -2556.3204      44849.698     -31993.039     -396.93842      47645.535      36.252732      36.252732      36.252732      1.2564897      1496.2033      1355.2025      232.52008    
     19100   19100          306.23944      2647.0698      16940.128      15101.035      3510.4845      11590.55       1493.432       3610.5853     -4052.2869      155.48194     -2507.7498      44891.229     -32000.141     -396.9931       47638.973      36.251067      36.251067      36.251067      1.2566627      3381.5598      244.31652      4315.333     
     19200   19200          302.76345      1684.8769      16168.197      14995.647      3470.6386      11525.009      1427.8128      3701.5297     -4037.6159      144.98927     -2574.5947      44859.866     -31996.979     -396.33104      47718.553      36.271241      36.271241      36.271241      1.254567       2298.5594      1349.0548      1407.0165    
     19300   19300          294.40547      1182.0116      15753.215      14930.129      3374.8294      11555.299      1478.3752      3705.1011     -4076.4861      141.93039     -2533.769       44839.947     -31999.799     -396.09331      47747.193      36.278497      36.278497      36.278497      1.2538145      2319.3371      469.6511       757.04663    
     19400   19400          301.71707      1760.7314      16198.036      14975.215      3458.6437      11516.571      1455.3641      3687.0016     -4085.6302      166.98824     -2529.8374      44823.382     -32000.698     -397.14711      47620.498      36.246381      36.246381      36.246381      1.2571503      1728.5956      857.27115      2696.3273    
     19500   19500          301.18019      2476.7918      16777.718      15062.767      3452.4893      11610.278      1444.9172      3703.4338     -4050.3011      155.57135     -2538.069       44889.471     -31994.746     -398.3446       47477.343      36.210023      36.210023      36.210023      1.2609409      2209.5938      2703.4628      2517.3189    
     19600   19600          305.55101      2212.8843      16629.281      15095.681      3502.5929      11593.089      1461.3532      3787.2518     -4118.8352      154.67505     -2571.6571      44872.947     -31992.646     -397.98618      47520.101      36.22089       36.22089       36.22089       1.2598063      3350.9738      1626.5629      1661.1163    
     19700   19700          300.7874      -1.9375159      15060.802      15062.149      3447.9867      11614.163      1522.0246      3737.8173     -4071.3253      154.03869     -2584.2326      44855.443     -31999.603     -396.67948      47676.636      36.260618      36.260618      36.260618      1.25567       -958.1165       138.18269      814.12126    
     19800   19800          303.41403      2066.8975      16474.632      15036.437      3478.0963      11558.34       1523.0061      3681.472      -4083.8115      127.42872     -2595.2437      44898.38      -31992.891     -396.38973      47711.487      36.269451      36.269451      36.269451      1.2547528      2593.1129      834.64698      2772.9327    
     19900   19900          299.5788       1623.2788      16160.553      15031.161      3434.1323      11597.029      1497.0666      3705.529      -4061.6499      148.84783     -2566.9005      44870.876     -31996.741     -396.43287      47706.295      36.268136      36.268136      36.268136      1.2548894      713.04454      723.94037      3432.8516    
     20000   20000          305.44775      1703.8742      16316.942      15131.904      3501.4092      11630.494      1550.9907      3753.5296     -4094.7199      152.88429     -2581.7958      44842.297     -31992.691     -396.57585      47689.095      36.263776      36.263776      36.263776      1.255342      -108.0786       2156.0902      3063.6109    
     20100   20100          306.82238      1747.3894      16377.582      15163.269      3517.1669      11646.102      1534.6278      3717.0866     -4102.4689      146.91368     -2493.2555      44838.373     -31995.175     -396.89922      47650.241      36.253925      36.253925      36.253925      1.2563656      2084.0848      534.37371      2623.7098    
     20200   20200          300.14326      3359.7474      17413.777      15078.234      3440.6027      11637.631      1487.6887      3731.1746     -4067.3826      132.12253     -2529.0458      44873.762     -31990.688     -396.77102      47665.637      36.257829      36.257829      36.257829      1.2559598      2080.5936      3809.4643      4189.1844    
     20300   20300          302.00173      584.36983      15425.656      15018.847      3461.9068      11556.94       1473.9748      3666.3912     -4033.6955      137.96532     -2516.353       44826.916     -31998.259     -396.20363      47733.898      36.275129      36.275129      36.275129      1.2541637      1378.8679      213.67459      160.56695    
     20400   20400          297.0056       2366.4745      16651.95       15004.424      3404.6351      11599.789      1440.538       3705.6079     -4055.199       140.56424     -2505.7286      44867.503     -31993.496     -396.17854      47736.921      36.275895      36.275895      36.275895      1.2540843      1921.6755      4184.1484      993.59955    
     20500   20500          300.30567      1061.7598      15769.611      15031.967      3442.4646      11589.502      1522.8674      3772.1527     -4079.5546      132.6601      -2594.2825      44834.43      -31998.771     -397.00932      47637.026      36.250573      36.250573      36.250573      1.2567141      2656.9601     -215.99332      744.31256    
     20600   20600          298.47253      1292.1828      15982.937      15086.639      3421.4509      11665.188      1476.2387      3783.926      -4037.9014      148.17214     -2579.5344      44873.252     -31998.965     -397.64237      47561.188      36.231326      36.231326      36.231326      1.258718       710.0044       1477.2906      1689.2536    
     20700   20700          307.01571      2513.7796      16970.967      15225.533      3519.3831      11706.15       1514.7547      3782.8838     -4083.5246      149.85787     -2533.0435      44875.709     -32000.488     -397.2328       47610.226      36.243774      36.243774      36.243774      1.2574215      1944.4087      2692.9801      2903.95      
     20800   20800          301.90545      1299.8455      16092.423      15185.782      3460.8031      11724.979      1524.0371      3822.9076     -4066.8604      155.59868     -2567.4552      44856.872     -32000.121     -395.43726      47826.407      36.298548      36.298548      36.298548      1.2517378      1182.8082      2240.9318      475.79634    
     20900   20900          305.03933      1442.7101      16114.304      15103.961      3496.7274      11607.234      1493.9192      3736.8538     -4107.5547      158.07646     -2552.8706      44873.111     -31994.301     -393.85056      48019.084      36.347228      36.347228      36.347228      1.2467152      1886.5869      900.09457      1541.4489    
     21000   21000          303.11859      306.08343      15255.069      15040.691      3474.7096      11565.981      1525.9551      3679.6011     -4116.4508      167.56949     -2552.5932      44858.72      -31996.821     -393.80468      48024.679      36.348639      36.348639      36.348639      1.24657        380.82983      902.02402     -364.60357    
     21100   21100          295.09039      1951.4058      16376.523      15016.161      3382.6807      11633.48       1467.8341      3773.3786     -4105.9624      150.80931     -2514.1328      44855.739     -31994.185     -395.65306      47800.321      36.291947      36.291947      36.291947      1.2524209      3068.8552      1867.79        917.57221    
     21200   21200          299.93341      1587.9179      16127.729      15026.444      3438.1972      11588.247      1484.7556      3753.1857     -4058.6364      134.33176     -2609.9192      44876.364     -31991.835     -397.69429      47554.978      36.229749      36.229749      36.229749      1.2588823      1026.1734      781.63186      2955.9486    
[...]
    495200   495200         297.11865      286.61285      15201.179      15002.365      3405.931       11596.434      1476.7192      3795.5545     -4039.3096      152.48621     -2621.1369      44825.358     -31993.238     -397.621        47563.744      36.231975      36.231975      36.231975      1.2586503     -864.93249      424.85072      1299.9203    
    495300   495300         304.29375      2281.9759      16670.446      15091.472      3488.1807      11603.291      1472.3693      3672.9657     -4017.7593      162.64908     -2530.6885      44842.114     -31998.36      -398.61826      47444.749      36.201735      36.201735      36.201735      1.2618071      2652.9927      1835.1249      2357.8101    
    495400   495400         304.66912      3041.6123      17220.988      15116.263      3492.4836      11623.78       1492.8733      3675.5994     -4030.5889      156.35416     -2503.6383      44826.996     -31993.816     -398.59311      47447.743      36.202497      36.202497      36.202497      1.2617275      3692.2329      2367.2549      3065.349     
    495500   495500         298.92687      1443.79        16078.159      15076.939      3426.6591      11650.28       1528.935       3700.4969     -4022.8735      163.79794     -2546.6618      44827.278     -32000.693     -397.73656      47549.924      36.228466      36.228466      36.228466      1.2590161      639.41826      1865.9353      1826.0163    
    495600   495600         295.79912     -506.24458      14614.228      14965.878      3390.8051      11575.073      1517.0171      3691.3024     -3998.3836      156.51373     -2606.2557      44814.125     -31999.246     -397.07365      47629.309      36.248616      36.248616      36.248616      1.2569177     -476.74252     -228.53981     -813.45142    
    495700   495700         294.98733      2518.0753      16696.224      14950.151      3381.4993      11568.651      1473.3781      3630.2802     -4030.5017      147.05589     -2499.237       44850.976     -32003.3       -397.76589      47546.418      36.227575      36.227575      36.227575      1.259109       2148.9532      2659.4989      2745.774     
    495800   495800         299.22868      948.42247      15654.28       14996.466      3430.1187      11566.347      1493.8715      3656.8876     -4004.5776      157.47515     -2554.5892      44817.471     -32000.191     -397.66734      47558.201      36.230568      36.230568      36.230568      1.258797       721.9575       1387.8844      735.4255     
    495900   495900         299.94228      2931.806       17071.695      15040.674      3438.2989      11602.376      1456.6213      3722.4588     -4027.8212      145.48563     -2561.6761      44867.429     -32000.122     -398.14587      47501.042      36.216047      36.216047      36.216047      1.2603118      2887.2005      2425.73        3482.4875    
    496000   496000         301.70533      1046.2722      15803.505      15078.589      3458.5091      11620.08       1495.6938      3744.7886     -4040.1514      145.42303     -2576.5493      44853.127     -32002.251     -398.08724      47508.038      36.217825      36.217825      36.217825      1.2601262      1132.0372      1338.4975      668.28191    
    496100   496100         305.44957      1362.9788      16037.369      15092.346      3501.4301      11590.916      1482.3414      3715.0782     -4016.6679      142.8357      -2574.1039      44844.302     -32002.87      -397.80304      47541.979      36.226448      36.226448      36.226448      1.2592266      671.60404      2328.564       1088.7683    
    496200   496200         299.99454      1411.1188      16035.945      15056.993      3438.898       11618.095      1475.2096      3715.019      -4003.3289      156.78972     -2571.2388      44845.252     -31999.607     -397.57904      47568.764      36.23325       36.23325       36.23325       1.2585175      2706.537       1193.6106      333.20866    
    496300   496300         302.95267      700.91363      15442.818      14957.165      3472.8076      11484.357      1420.1328      3705.9913     -4035.5932      128.46306     -2587.5166      44855.172     -32002.292     -398.07003      47510.091      36.218347      36.218347      36.218347      1.2600717     -1855.1971      1706.4185      2251.5194    
    496400   496400         290.26458      2962.977       17014.637      14961.679      3327.3615      11634.318      1473.5533      3681.7904     -4032.998       141.04226     -2503.3036      44873.019     -31998.786     -398.07916      47509.002      36.21807       36.21807       36.21807       1.2601006      3482.2217      2737.877       2668.8323    
    496500   496500         304.23439      1668.71        16201.44       15041.217      3487.5003      11553.717      1489.9316      3695.6938     -4059.4344      143.15807     -2528.0462      44815.531     -32003.117     -396.69864      47674.334      36.260034      36.260034      36.260034      1.2557306      1565.7008      2081.6878      1358.7415    
    496600   496600         297.11608      803.44883      15620.855      15059.93       3405.9015      11654.029      1512.0075      3679.7044     -4051.7299      151.22694     -2487.4873      44851.339     -32001.032     -395.07089      47870.759      36.309765      36.309765      36.309765      1.2505781      1567.6308      113.39384      729.32181    
    496700   496700         301.02415      2156.6184      16568.55       15057.86       3450.7006      11607.159      1444.7016      3731.6991     -4071.3764      162.04723     -2479.4129      44822.702     -32003.201     -393.74875      48031.501      36.35036       36.35036       36.35036       1.2463929      2384.8439      424.68872      3660.3225    
    496800   496800         298.05542      553.74499      15434.736      15046.658      3416.6695      11629.988      1525.9278      3724.9029     -4073.735       146.72643     -2538.8466      44845.977     -32000.964     -393.56086      48054.432      36.356144      36.356144      36.356144      1.2457981      523.99873      2276.8268     -1139.5905    
    496900   496900         298.71356      1907.926       16425.525      15091.937      3424.2139      11667.723      1511.1627      3719.1174     -4048.9177      163.08451     -2538.5078      44863.36      -32001.576     -394.60384      47927.418      36.324085      36.324085      36.324085      1.2490997      1070.5492      1745.1444      2908.0844    
    497000   497000         306.10096      1955.9499      16560.962      15201.131      3508.8971      11692.234      1500.3866      3718.5336     -4015.9474      141.99585     -2520.1139      44863.991     -31996.612     -396.729        47670.685      36.259109      36.259109      36.259109      1.2558268      1834.5666      3341.4381      691.84498    
    497100   497100         312.2444       1543.2995      16242.555      15173.584      3579.3206      11594.264      1500.1942      3670.8364     -4042.1558      157.97166     -2519.2585      44827.12      -32000.445     -398.2042       47494.083      36.214278      36.214278      36.214278      1.2604964      1010.6984      196.06596      3423.1342    
    497200   497200         300.4987       3544.1959      17521.85       15071.991      3444.6773      11627.313      1490.6698      3731.5781     -4051.7315      150.66334     -2513.3361      44822.549     -32003.08      -399.02287      47396.64       36.189495      36.189495      36.189495      1.2630879      2850.7883      4205.8718      3575.9276    
    497300   497300         296.82419      910.40387      15661.456      15030.844      3402.5556      11628.288      1461.6832      3752.0547     -3981.2397      145.52805     -2579.9097      44829.52      -31999.349     -398.19244      47495.486      36.214635      36.214635      36.214635      1.2604592     -1195.8512      1671.7318      2255.3309    
    497400   497400         297.85817      1810.8673      16271          15015.296      3414.4083      11600.888      1494.9207      3712.3292     -4038.8303      150.92136     -2563.9949      44841.632     -31996.09      -397.75944      47547.19       36.227771      36.227771      36.227771      1.2590885      1031.8353      2140.461       2260.3056    
    497500   497500         294.30369      1652.4455      16156.742      15010.022      3373.6626      11636.36       1461.7719      3743.5775     -4048.4186      133.50379     -2527.0044      44871.844     -31998.915     -397.45786      47583.267      36.236932      36.236932      36.236932      1.2581339      2087.2055      1448.8491      1421.2819    
    497600   497600         301.29978      1776.7101      16279.2        15042.894      3453.8602      11589.034      1474.17        3743.5981     -4114.9397      145.09462     -2548.0684      44877.564     -31988.385     -396.3801       47712.646      36.269745      36.269745      36.269745      1.2547223      1334.7038      1309.4292      2685.9973    
    497700   497700         301.96203      1274.6581      16001.864      15113.622      3461.4517      11652.17       1415.2773      3799.0457     -4040.355       151.05794     -2564.964       44882.326     -31990.218     -395.8072       47781.707      36.287236      36.287236      36.287236      1.2529088      2349.1602      316.3341       1158.4801    
    497800   497800         304.71428      1559.5702      16222.898      15136.032      3493.0013      11643.031      1439.0249      3782.435      -4028.9572      158.45614     -2560.6873      44846.675     -31993.915     -395.7767       47785.389      36.288168      36.288168      36.288168      1.2528123      2240.389      -583.39105      3021.7125    
    497900   497900         293.32432      1668.3394      16209.964      15048.219      3362.4359      11685.783      1520.0366      3713.3098     -4059.0459      154.64106     -2487.4962      44844.844     -32000.506     -396.09077      47747.498      36.278574      36.278574      36.278574      1.2538065      1699.9138      1315.0729      1990.0316    
    498000   498000         295.9429       2117.6886      16456.422      14980.95       3392.4531      11588.496      1395.6389      3765.3366     -4045.5255      135.56195     -2550.1648      44882.669     -31995.02      -395.86958      47774.177      36.285329      36.285329      36.285329      1.2531063      2134.8628      1704.1837      2514.0193    
    498100   498100         294.30147      1844.8912      16296.258      15009.681      3373.6372      11636.044      1438.3136      3797.1729     -4080.092       158.76401     -2576.5549      44886.222     -31987.782     -395.50898      47817.734      36.296354      36.296354      36.296354      1.2519648      2912.5773      2079.5883      542.50802    
    498200   498200         303.84351      841.49352      15663.445      15076.476      3483.0194      11593.456      1460.9211      3690.0046     -4071.8129      136.55809     -2509.9043      44878.657     -31990.968     -395.41805      47828.73       36.299136      36.299136      36.299136      1.251677       2336.647      -758.33622      946.16978    
    498300   498300         302.74726      2088.3895      16545.126      15089.69       3470.453       11619.237      1418.7571      3756.0991     -4032.0841      146.14188     -2531.0932      44866.346     -32004.93      -395.76713      47786.545      36.28846       36.28846       36.28846       1.252782       1462.4248      1841.5749      2961.169     
    498400   498400         300.56477      2841.5466      17044.412      15068.368      3445.4347      11622.933      1433.3092      3722.5142     -4051.5797      135.14629     -2486.4947      44863.114     -31993.076     -396.62444      47683.252      36.262295      36.262295      36.262295      1.2554958      3302.8668      2332.9956      2888.7774    
    498500   498500         296.19822     -614.5363       14603.215      15030.302      3395.3799      11634.922      1491.5471      3779.096      -4049.4859      152.60091     -2556.041       44811.056     -31993.85      -396.87343      47653.337      36.25471       36.25471       36.25471       1.2562839     -1094.0102     -1300.6331      551.03439    
    498600   498600         293.8705       2928.2009      16935.9        14907.8        3368.6968      11539.104      1439.6387      3714.8897     -4062.6818      143.50787     -2545.2097      44842.212     -31993.253     -398.22888      47491.139      36.21353       36.21353       36.21353       1.2605746      2023.6412      3417.279       3343.6826    
    498700   498700         287.30447      1679.1809      16052.427      14892.151      3293.4292      11598.722      1471.1148      3720.6618     -4016.2957      133.99103     -2553.2524      44835.44      -31992.937     -399.16971      47379.205      36.185057      36.185057      36.185057      1.2635527      2224.0606      951.6469       1861.8351    
    498800   498800         298.79311      1774.8293      16188.039      14963.176      3425.1258      11538.05       1442.4917      3727.9051     -4045.8915      143.80601     -2579.9023      44843.164     -31993.522     -399.65983      47321.102      36.170259      36.170259      36.170259      1.2651042      1112.6758      1483.8511      2727.961     
    498900   498900         296.06507      1775.7404      16240.459      15013.17       3393.8537      11619.316      1481.4595      3764.6849     -4049.0235      152.8613      -2561.4776      44828.244     -31997.433     -399.07429      47390.533      36.18794       36.18794       36.18794       1.2632507      2136.5977      598.79651      2591.8269    
    499000   499000         305.31083      904.37314      15677.663      15051.256      3499.8396      11551.416      1430.6559      3750.4533     -4038.2312      140.6667      -2593.1941      44862.995     -32001.929     -398.21001      47493.39       36.214102      36.214102      36.214102      1.2605148      1753.7075      622.46021      336.95167    
    499100   499100         301.15448      1613.4363      16188.248      15068.701      3452.1946      11616.506      1452.4768      3755.6793     -4041.8256      164.28094     -2575.4337      44859.062     -31997.733     -397.49401      47578.939      36.235833      36.235833      36.235833      1.2582484      620.83152      1071.1881      3148.2893    
    499200   499200         300.87121      1339.7892      16001.753      15071.078      3448.9474      11622.13       1422.2789      3741.0462     -4038.9461      148.26224     -2538.3929      44876.577     -31988.695     -397.06326      47630.555      36.248932      36.248932      36.248932      1.2568848      1335.4292      2251.5911      432.3473     
    499300   499300         300.86581      1283.5281      15952.452      15059.778      3448.8855      11610.893      1478.5139      3776.8301     -4052.7405      150.91539     -2596.0052      44850.18      -31996.801     -396.58306      47688.228      36.263557      36.263557      36.263557      1.2553648      562.46022      583.74261      2704.3816    
    499400   499400         299.46345      2109.9109      16486.866      15019.568      3432.81        11586.758      1408.8425      3748.0091     -4013.7946      143.82427     -2542.4421      44834.963     -31992.644     -396.61296      47684.633      36.262645      36.262645      36.262645      1.2554594      572.17435      3003.5777      2753.9806    
    499500   499500         302.54715      1400.9752      15948.734      14976.547      3468.1591      11508.387      1503.0113      3634.8331     -4089.0435      152.30593     -2531.2452      44829.979     -31991.453     -397.46759      47582.102      36.236636      36.236636      36.236636      1.2581647     -834.81685      2117.6239      2920.1186    
    499600   499600         299.43337      612.08097      15397.884      14973.743      3432.4651      11541.278      1521.4499      3651.1107     -4035.5324      151.1619      -2578.832       44827.856     -31995.937     -398.03351      47514.45       36.219454      36.219454      36.219454      1.2599561     -378.43127     -375.2402       2589.9144    
    499700   499700         296.71311      3306.6564      17360.388      15070.585      3401.2822      11669.302      1498.4339      3769.4479     -4107.1021      150.79906     -2495.8838      44850.857     -31997.249     -398.30174      47482.452      36.211322      36.211322      36.211322      1.2608052      4222.2184      2910.0401      2787.7108    
    499800   499800         300.36962      958.14837      15783.728      15118.283      3443.1976      11675.086      1453.8687      3776.2386     -4062.7596      164.09036     -2515.6253      44854.763     -31995.49      -397.13873      47621.503      36.246635      36.246635      36.246635      1.2571237      1253.5244      553.88883      1067.0319    
    499900   499900         297.39857      1282.7191      15973.58       15079.062      3409.1398      11669.922      1530.6836      3765.9133     -4068.1672      143.20754     -2546.5245      44833.666     -31988.856     -395.51595      47816.892      36.296141      36.296141      36.296141      1.2519869     -662.21882      2424.2523      2086.1238    
    500000   500000         299.41356      1742.9212      16248.479      15031.787      3432.238       11599.549      1468.7816      3717.3256     -4078.5097      149.0408      -2514.0615      44846.63      -31989.657     -395.11045      47865.967      36.308553      36.308553      36.308553      1.2507033      2010.5732      1834.0149      1384.1755    
Loop time of 2035.88 on 1 procs for 500000 steps with 4520 atoms

Performance: 21.219 ns/day, 1.131 hours/ns, 245.595 timesteps/s, 1.110 Matom-step/s
100.0% CPU use with 1 MPI tasks x 1 OpenMP threads

MPI task timing breakdown:
Section |  min time  |  avg time  |  max time  |%varavg| %total
---------------------------------------------------------------
Pair    | 580.07     | 580.07     | 580.07     |   0.0 | 28.49
Bond    | 309.13     | 309.13     | 309.13     |   0.0 | 15.18
Kspace  | 629.89     | 629.89     | 629.89     |   0.0 | 30.94
Neigh   | 107.1      | 107.1      | 107.1      |   0.0 |  5.26
Comm    | 15.261     | 15.261     | 15.261     |   0.0 |  0.75
Output  | 5.2502     | 5.2502     | 5.2502     |   0.0 |  0.26
Modify  | 269.69     | 269.69     | 269.69     |   0.0 | 13.25
Other   |            | 119.5      |            |       |  5.87

Nlocal:           4520 ave        4520 max        4520 min
Histogram: 1 0 0 0 0 0 0 0 0 0
Nghost:          15116 ave       15116 max       15116 min
Histogram: 1 0 0 0 0 0 0 0 0 0
Neighs:              0 ave           0 max           0 min
Histogram: 1 0 0 0 0 0 0 0 0 0
FullNghs:  2.71642e+06 ave 2.71642e+06 max 2.71642e+06 min
Histogram: 1 0 0 0 0 0 0 0 0 0

Total # of neighbors = 2716422
Ave neighs/atom = 600.97832
Ave special neighs/atom = 5.5353982
Neighbor list builds = 16858
Dangerous builds = 0

# --- Cleanup ---
unfix npt_fix
unfix shake_fix
undump dump_npt

# --- Write Output ---
write_dump all custom /home/arz2/PolyJarvis/data/PLA3/lammps/mechanical/bm_series/bm_P1500/bm_P1500_last.dump id type mol x y z xu yu zu vx vy vz modify sort id
write_data /home/arz2/PolyJarvis/data/PLA3/lammps/mechanical/bm_series/bm_P1500/bm_P1500_out.data
System init for write_data ...
PPPM Kokkos initialization ...
  using 12-bit tables for long-range coulomb
  G vector (1/distance) = 0.33499108
  grid = 40 40 40
  stencil order = 5
  estimated absolute RMS force accuracy = 0.00041448572
  estimated relative force accuracy = 1.2482114e-06
  using double precision cuFFT
  3d grid and FFT values/proc = 103823 64000
Generated 21 of 21 mixed pair_coeff terms from sixthpower/sixthpower mixing rule

print "STAGE COMPLETE: NPT T=300.0->300.0K P=1500.0->1500.0atm steps=500000"
STAGE COMPLETE: NPT T=300.0->300.0K P=1500.0->1500.0atm steps=500000
quit
