units real
atom_style full
boundary p p p

# --- Force Field Styles ---
pair_style lj/class2/coul/long 9.5 9.5
kspace_style pppm 1e-6
dielectric 1.000000
bond_style class2
angle_style class2
dihedral_style class2
improper_style class2
special_bonds lj/coul 0 0 1
pair_modify mix sixthpower tail yes
neighbor 2.0 bin
neigh_modify delay 0 every 1 check yes
neigh_modify one 4000
# KOKKOS: package loaded via -pk kokkos on the command line

read_data /home/arz2/PolyJarvis/data/PMMA2/lammps/equil/npt_prod300/npt_prod300_out.data
Reading data file ...
  orthogonal box = (4.8657774 4.8657774 4.8657774) to (46.885221 46.885221 46.885221)
  1 by 1 by 1 MPI processor grid
  reading atoms ...
  7520 atoms
  reading velocities ...
  7520 velocities
  scanning bonds ...
  4 = max bonds/atom
  scanning angles ...
  17 = max angles/atom
  scanning dihedrals ...
  40 = max dihedrals/atom
  scanning impropers ...
  14 = max impropers/atom
  orthogonal box = (4.8657774 4.8657774 4.8657774) to (46.885221 46.885221 46.885221)
  1 by 1 by 1 MPI processor grid
  reading bonds ...
  7510 bonds
  reading angles ...
  14000 angles
  reading dihedrals ...
  18910 dihedrals
  reading impropers ...
  8500 impropers
Finding 1-2 1-3 1-4 neighbors ...
  special bond factors lj:    0        0        1       
  special bond factors coul:  0        0        1       
     4 = max # of 1-2 neighbors
    11 = max # of 1-3 neighbors
    15 = max # of special neighbors
  special bonds CPU = 0.005 seconds
  read_data CPU = 0.333 seconds


# --- Thermo Output ---
thermo_style custom step time temp press enthalpy etotal ke pe ebond eangle edihed eimp evdwl ecoul elong etail vol lx ly lz density pxx pyy pzz
thermo_modify flush yes
thermo 100

# --- Trajectory ---
dump dump_npt all custom 1000 /home/arz2/PolyJarvis/data/PMMA2/lammps/mechanical/bm_series/bm_P-1000/bm_P-1000.dump id type mol x y z ix iy iz vx vy vz

# --- Restart Checkpointing ---
restart 10000 npt_1.rst npt_2.rst

# --- Initial Velocities (optional) ---
# Velocities read from data file

# --- SHAKE Constraints ---
fix shake_fix all shake 1e-4 1000 0 m 1.008
Finding SHAKE clusters ...
      10 = # of size 2 clusters
     490 = # of size 3 clusters
    1010 = # of size 4 clusters
       0 = # of frozen angles
  find clusters CPU = 0.003 seconds

# --- NPT Thermostat + Barostat (Nose-Hoover) ---
# T_damp = 100.0 fs  (heat bath coupling)
# P_damp = 1000.0 fs  (pressure bath coupling, ~10x T_damp typical)
# Ramp: T=300.0->300.0K  P=-1000.0->-1000.0atm
timestep 1.0
fix npt_fix all npt temp 300.0 300.0 100.0 iso -1000.0 -1000.0 1000.0

run 500000
PPPM Kokkos initialization ...
  using 12-bit tables for long-range coulomb
  G vector (1/distance) = 0.33295103
  grid = 45 45 45
  stencil order = 5
  estimated absolute RMS force accuracy = 0.0002897638
  estimated relative force accuracy = 8.7261508e-07
  using double precision cuFFT
  3d grid and FFT values/proc = 140608 91125
Generated 15 of 15 mixed pair_coeff terms from sixthpower/sixthpower mixing rule
Neighbor list info ...
  update: every = 1 steps, delay = 0 steps, check = yes
  max neighbors/atom: 4000, page size: 100000
  master list distance cutoff = 11.5
  ghost atom cutoff = 11.5
  binsize = 11.5, bins = 4 4 4
  1 neighbor lists, perpetual/occasional/extra = 1 0 0
  (1) pair lj/class2/coul/long/kk, perpetual
      attributes: full, newton off, kokkos_device
      pair build: full/bin/kk/device
      stencil: full/bin/3d
      bin: kk/device
Per MPI rank memory allocation (min/avg/max) = 64 | 64 | 64 Mbytes
   Step          Time           Temp          Press         Enthalpy        TotEng         KinEng         PotEng         E_bond        E_angle        E_dihed        E_impro         E_vdwl         E_coul         E_long         E_tail         Volume           Lx             Ly             Lz          Density          Pxx            Pyy            Pzz      
         0   0              358.49942     -622.85985      25129.956      25803.889      6602.9948      19200.895      2411.1548      6612.6286     -1909.1695      210.00598     -384.13004      43036.374     -30775.969     -529.02993      74190.942      42.019443      42.019443      42.019443      1.1208734     -4334.1726      2683.3969     -217.8038     
       100   100            298.21595     -757.14171      23918.566      24741.564      5492.6681      19248.896      2504.3329      6593.6865     -1954.1149      200.27338     -359.81638      43040.55      -30776.016     -526.60538      74532.527      42.083832      42.083832      42.083832      1.1157364     -1107.3756     -1047.3705     -116.67907    
       200   200            298.98289     -911.25026      23897.504      24896.727      5506.7941      19389.933      2502.9019      6618.076      -1911.8015      212.25187     -285.94899      43036.438     -30781.984     -522.01422      75188.046      42.206849      42.206849      42.206849      1.1060089     -83.537361     -1070.7504     -1579.4631    
       300   300            300.54134     -1585.7648      23195.468      24947.706      5535.4983      19412.207      2563.141       6652.3546     -1951.1474      220.76196     -329.44347      43034.79      -30778.249     -518.02729      75766.721      42.314852      42.314852      42.314852      1.0975617     -1071.3709     -2139.7549     -1546.1687    
       400   400            300.81018     -1647.7466      23110.944      24939.095      5540.4498      19398.645      2486.0801      6673.1139     -1950.5291      217.02424     -314.07366      43061.403     -30774.374     -515.92384      76075.626      42.372281      42.372281      42.372281      1.093105      -1869.8468     -1994.2088     -1079.1842    
       500   500            301.11241     -1492.6079      23238.024      24895.377      5546.0164      19349.361      2512.9565      6646.4399     -1905.4315      196.59467     -377.47598      43052.863     -30776.586     -515.51057      76136.613      42.383601      42.383601      42.383601      1.0922294     -1927.3806     -2561.6257      11.182565    
       600   600            300.59261     -1524.4027      23085.713      24775.665      5536.4426      19239.223      2533.6869      6556.0746     -1931.0437      206.13054     -388.89674      43041.505     -30778.234     -516.33588      76014.917      42.361007      42.361007      42.361007      1.093978       20.477093     -1671.8483     -2921.837     
       700   700            294.85927     -1188.2569      23399.373      24713.342      5430.8434      19282.498      2479.5985      6525.0035     -1893.6465      210.4963      -317.28481      43052.335     -30774.004     -517.64517      75822.651      42.325262      42.325262      42.325262      1.0967521     -1394.4748     -1868.3671     -301.9288     
       800   800            300.37522     -507.39068      24292.398      24851.939      5532.4386      19319.5        2438.2465      6637.7536     -1963.968       195.16539     -262.24177      43050.467     -30775.922     -519.06027      75615.939      42.286764      42.286764      42.286764      1.0997503     -9.8806176     -1654.7026      142.41116    
       900   900            299.10521     -1009.1548      23833.177      24945.045      5509.047       19435.998      2532.1061      6704.848      -1947.3557      208.58409     -329.99464      43041.551     -30773.741     -519.53109      75547.412      42.273986      42.273986      42.273986      1.1007478     -1454.0182     -1455.9998     -117.44624    
      1000   1000           296.64012     -117.82281      24782.307      24912.072      5463.6438      19448.428      2487.2384      6669.4427     -1946.8932      196.67251     -247.45931      43067.483     -30778.056     -519.73067      75518.401      42.268574      42.268574      42.268574      1.1011707     -184.09894     -701.21053      531.84104    
      1100   1100           299.35227     -1219.9081      23500.424      24844.475      5513.5974      19330.877      2464.3679      6712.3269     -1976.7115      199.90015     -340.68513      43049.561     -30777.882     -519.53948      75546.192      42.273758      42.273758      42.273758      1.1007656     -1906.8504     -1034.2568     -718.61709    
      1200   1200           295.08873     -1827.9501      22783.927      24799.953      5435.0697      19364.883      2545.2863      6688.1322     -1959.6639      204.38573     -371.21049      43035.612     -30777.659     -519.0096       75623.32       42.28814       42.28814       42.28814       1.099643      -678.42988     -1981.3211     -2824.0993    
      1300   1300           299.3706      -793.88839      23972.741      24848.622      5513.935       19334.687      2455.4419      6623.0168     -1917.0161      189.4858      -301.32593      43057.746     -30772.662     -518.82546      75650.16       42.293142      42.293142      42.293142      1.0992528     -969.42061     -419.4615      -992.78305    
      1400   1400           304.54198     -1030.6214      23852.227      24988.255      5609.1838      19379.071      2462.0172      6637.7888     -1866.7599      197.42072     -309.65191      43031.36      -30773.104     -519.29832      75581.275      42.280301      42.280301      42.280301      1.1002547     -129.59667     -1384.9458     -1577.3217    
      1500   1500           299.3061      -1610.3741      23214.438      24988.614      5512.7471      19475.867      2587.0754      6674.1597     -1912.4602      192.41356     -311.83077      43021.166     -30774.657     -519.56173      75542.957      42.273155      42.273155      42.273155      1.1008128     -1148.188      -2112.6792     -1570.2552    
      1600   1600           298.10013     -584.0367       24276.023      24919.395      5490.5349      19428.86       2524.2611      6725.3469     -1942.5112      197.19227     -343.47496      43037.651     -30769.604     -519.61843      75534.713      42.271617      42.271617      42.271617      1.1009329     -169.86546     -1208.3915     -373.8531     
      1700   1700           300.73123     -1008.3464      23708.081      24819.111      5538.9957      19280.115      2423.6683      6626.31       -1911.9764      185.35015     -311.92996      43045.568     -30776.875     -519.50641      75551.001      42.274655      42.274655      42.274655      1.1006955     -1075.5675     -1206.3616     -743.11024    
      1800   1800           296.42009     -1686.6098      22911.747      24772.274      5459.5913      19312.682      2539.0247      6673.6895     -1958.7698      179.2717      -389.67763      43046.468     -30777.324     -518.90246      75638.935      42.29105       42.29105       42.29105       1.0994159     -1592.9418     -935.69997     -2531.1876    
      1900   1900           295.60178     -148.01711      24633.843      24796.994      5444.5194      19352.475      2455.3167      6700.2147     -1976.7573      187.17939     -280.29058      43043.442     -30776.629     -519.31108      75579.419      42.279955      42.279955      42.279955      1.1002817      31.818489      146.91868     -622.78849    
      2000   2000           300.40753     -721.65735      24077.986      24873.828      5533.0336      19340.795      2569.6201      6519.1758     -1918.8878      192.63135     -297.00666      43054.525     -30779.263     -519.05257      75617.059      42.286973      42.286973      42.286973      1.099734       403.62414     -2057.7243     -510.87195    
      2100   2100           305.35905     -1007.593       23825.59       24936.915      5624.2328      19312.682      2522.8384      6582.0949     -1917.5271      203.60813     -346.08327      43046.788     -30779.037     -518.98058      75627.549      42.288928      42.288928      42.288928      1.0995815     -1206.6379     -191.27772     -1624.8633    
      2200   2200           304.06068     -973.56644      23867.025      24939.953      5600.3189      19339.634      2515.0921      6646.3616     -1999.709       195.45869     -298.4902       43052.766     -30771.845     -519.40006      75566.47       42.27754       42.27754       42.27754       1.1004702     -1933.7441     -344.88637     -642.06881    
      2300   2300           296.90768     -973.57881      23717.471      24790.935      5468.5719      19322.363      2526.0391      6593.6636     -1950.0714      209.80496     -318.67338      43039.877     -30778.277     -519.1477       75603.204      42.28439       42.28439       42.28439       1.0999355      167.19042     -1360.2918     -1727.635     
      2400   2400           299.52525     -648.07631      24036.488      24751.32       5516.7835      19234.536      2449.7143      6545.8147     -1937.1181      194.25725     -273.86457      43035.674     -30779.941     -518.95442      75631.362      42.289639      42.289639      42.289639      1.099526       1279.2357     -2169.2068     -1054.2578    
      2500   2500           300.53662     -1600.3855      23048.616      24814.214      5535.4113      19278.803      2520.707       6566.0698     -1946.7265      206.69632     -333.04643      43043.436     -30778.334     -518.84764      75646.926      42.292539      42.292539      42.292539      1.0992998     -1196.6027     -2132.8128     -1471.7411    
      2600   2600           299.28065     -393.3994       24486.048      24919.849      5512.2784      19407.571      2487.5104      6637.7393     -1923.002       227.86802     -294.44548      43043.611     -30771.71      -519.09812      75610.424      42.285736      42.285736      42.285736      1.0998305      23.910602     -1462.8688      258.76005    
      2700   2700           297.97803      316.84516      25294.864      24945.099      5488.286       19456.813      2506.2893      6637.6147     -1941.318       217.72762     -223.62736      43038.367     -30778.239     -518.53528      75692.495      42.30103       42.30103       42.30103       1.098638       224.27087      1005.4343     -279.16972    
      2800   2800           300.79071     -1497.2156      23252.914      24909.807      5540.0912      19369.716      2557.754       6620.1731     -1903.667       199.32798     -376.72638      43043.278     -30770.424     -517.24575      75881.202      42.336154      42.336154      42.336154      1.0959058      370.71611     -2003.2556     -2859.1073    
      2900   2900           299.45219     -1668.2253      23035.139      24882.112      5515.4379      19366.674      2591.2597      6586.1786     -1942.5586      202.97704     -344.56852      43047.194     -30773.809     -517.01263      75915.417      42.342516      42.342516      42.342516      1.0954119     -1655.1779     -1085.4918     -2264.0063    
      3000   3000           297.79698     -348.84518      24491.627      24877.647      5484.9514      19392.695      2477.8693      6600.7753     -1949.7094      208.96739     -229.6275       43059.661     -30775.241     -517.28539      75875.387      42.335072      42.335072      42.335072      1.0959898     -690.65221     -253.97041     -101.91293    
      3100   3100           305.89463     -1886.1018      22881.382      24967.902      5634.0974      19333.805      2541.6857      6593.6348     -1928.9546      194.02025     -335.17175      43037.192     -30768.602     -517.4274       75854.563      42.331199      42.331199      42.331199      1.0962907     -2031.3408     -1480.0594     -2146.9052    
      3200   3200           302.5247      -1792.335       23049.027      25027.909      5572.0287      19455.88       2591.6791      6628.8869     -1923.1391      203.29651     -327.30358      43052.036     -30769.575     -518.44923      75705.058      42.30337       42.30337       42.30337       1.0984557     -634.97239     -2374.625      -2367.4076    
      3300   3300           300.96958     -382.52803      24509.207      24930.484      5543.3857      19387.098      2520.1505      6654.1583     -1935.3309      193.78416     -324.55806      43052.726     -30773.832     -519.7598       75514.169      42.267784      42.267784      42.267784      1.1012324     -545.27276      294.59989     -896.91123    
      3400   3400           297.47315     -436.27174      24340.039      24819.557      5478.9871      19340.57       2529.7262      6610.1024     -1902.0104      191.70411     -333.94643      43020.2       -30775.206     -520.78554      75365.435      42.240016      42.240016      42.240016      1.1034057      524.55725     -1586.42       -246.95244    
      3500   3500           300.03872     -1222.061       23465.67       24810.344      5526.2408      19284.103      2524.1959      6555.8931     -1943.9451      204.58144     -327.41655      43041.405     -30770.611     -520.21505      75448.084      42.255451      42.255451      42.255451      1.102197      -549.08305     -1582.5393     -1534.5606    
      3600   3600           304.40952     -739.79296      24045.096      24860.83       5606.744       19254.086      2401.2109      6573.9255     -1924.007       203.65657     -294.92387      43068.886     -30774.662     -519.12137      75607.037      42.285104      42.285104      42.285104      1.0998798      856.38686     -878.62657     -2197.1392    
      3700   3700           297.33225     -1293.2482      23489.643      24918.448      5476.3918      19442.056      2530.1392      6546.737      -1906.1235      217.05097     -261.93002      43089.786     -30773.603     -518.10259      75755.709      42.312802      42.312802      42.312802      1.0977212     -769.74008     -2781.2627     -328.74181    
      3800   3800           302.73329     -1700.5494      23164.66       25048.228      5575.8704      19472.358      2541.51        6674.6642     -1899.6993      210.56335     -338.53585      43059.391     -30775.536     -516.791        75947.973      42.348568      42.348568      42.348568      1.0949423     -2196.4339     -1239.5827     -1665.6317    
      3900   3900           307.35433     -329.93799      24756.145      25121.463      5660.9827      19460.48       2550.9004      6618.9659     -1962.9728      200.62204     -214.536        43049.242     -30781.742     -516.97449      75921.018      42.343557      42.343557      42.343557      1.0953311      6.0154858      1021.828      -2017.6575    
      4000   4000           303.53346     -738.26914      24174.546      24991.415      5590.6083      19400.806      2458.2807      6713.9791     -1917.2942      218.9588      -337.04409      43039.425     -30775.499     -517.33225      75868.514      42.333794      42.333794      42.333794      1.0960891     -534.10815     -1767.469       86.769724    
      4100   4100           301.37378     -2100.657       22589.294      24910.209      5550.8305      19359.379      2603.6245      6600.8382     -1924.8401      200.88002     -376.77366      43028.546     -30772.896     -518.08717      75757.964      42.313222      42.313222      42.313222      1.0976886     -1299.1659     -1737.4251     -3265.3802    
      4200   4200           301.28555     -754.22535      24002.546      24833.407      5549.2055      19284.202      2552.7476      6542.3704     -1893.9497      198.70136     -378.51691      43038.237     -30775.388     -519.61264      75535.555      42.271774      42.271774      42.271774      1.1009206     -171.59531     -1936.2966     -154.78416    
      4300   4300           302.10674     -488.48353      24277.362      24814.138      5564.3304      19249.808      2486.3022      6581.8498     -1942.8697      205.11616     -340.31948      43036.024     -30776.295     -520.91116      75347.261      42.23662       42.23662       42.23662       1.1036719      673.34443     -1293.229      -845.56596    
      4400   4400           301.68709     -20.33518       24838.826      24861.125      5556.6012      19304.524      2393.5045      6629.7837     -1908.1876      192.47251     -270.01786      43038.992     -30772.023     -521.98661      75192.023      42.207593      42.207593      42.207593      1.1059504     -599.06323     -333.50671      871.56441    
      4500   4500           305.00133     -1159.8682      23691.426      24965.032      5617.6442      19347.387      2524.9983      6593.8515     -1902.1374      191.09981     -342.50292      43057.963     -30775.885     -521.29165      75292.265      42.226341      42.226341      42.226341      1.104478      -826.36478     -1964.8948     -688.34509    
      4600   4600           300.52628     -1832.3545      22995.677      25013.5        5535.2209      19478.279      2579.965       6700.5783     -1882.2595      198.50224     -380.5406       43039.989     -30777.955     -519.79657      75508.828      42.266788      42.266788      42.266788      1.1013103     -1225.634      -2340.5383     -1930.8911    
      4700   4700           303.78651     -850.36375      23943.338      24880.902      5595.2691      19285.633      2485.2682      6628.8958     -1923.9582      191.28419     -358.19991      43043.918     -30781.575     -519.17178      75599.697      42.283736      42.283736      42.283736      1.0999866     -369.80798      172.78642     -2354.0697    
      4800   4800           297.4495      -2058.6262      22524.374      24797.789      5478.5514      19319.237      2476.8788      6612.1787     -1922.8553      209.22402     -320.62393      43042.202     -30777.767     -518.32946      75722.551      42.306628      42.306628      42.306628      1.0982019     -1954.2102     -2910.9902     -1310.6781    
      4900   4900           297.69098     -1422.6428      23239.226      24811.961      5482.9991      19328.962      2515.9523      6590.154      -1933.6559      201.95045     -336.97343      43061.83      -30770.295     -517.78231      75802.568      42.321525      42.321525      42.321525      1.0970427     -2120.7944     -2062.7163     -84.417731    
      5000   5000           302.71279      110.178        25028.102      24906.368      5575.493       19330.875      2492.2683      6606.1386     -1947.7454      191.82154     -307.17083      43063.511     -30767.948     -518.07213      75760.164      42.313632      42.313632      42.313632      1.0976567     -174.14374      1102.184      -597.50625    
      5100   5100           301.28838     -988.44968      23895.93       24986.926      5549.2576      19437.668      2527.5523      6662.5061     -1920.0073      207.2783      -321.05154      43051.476     -30770.086     -518.60723      75681.994      42.299073      42.299073      42.299073      1.0987904      946.59453     -2105.3864     -1806.5572    
      5200   5200           301.22037     -1114.7698      23741.05       24971.29       5548.005       19423.285      2491.2707      6734.8932     -1961.259       204.46686     -317.49834      43051.039     -30779.627     -518.68337      75670.885      42.297004      42.297004      42.297004      1.0989517     -616.32253     -1237.3297     -1490.6572    
      5300   5300           302.85356     -241.02597      24652.068      24918.547      5578.0857      19340.461      2531.2636      6564.4898     -1939.8029      198.99789     -295.08526      43061.378     -30780.78      -517.7364       75809.291      42.322776      42.322776      42.322776      1.0969454     -34.453605      1042.0764     -1730.7007    
      5400   5400           300.21452     -656.64486      24171.001      24898.52       5529.4786      19369.042      2508.8892      6662.1871     -1982.9874      209.73685     -316.17038      43067.558     -30780.172     -516.64621      75969.258      42.352524      42.352524      42.352524      1.0946356     -160.02246     -493.11054     -1316.8016    
      5500   5500           298.8207      -1130.6486      23639.73       24890.604      5503.8068      19386.797      2447.9606      6684.8204     -1962.6228      205.43592     -260.95732      43049.892     -30777.731     -517.39359      75859.519      42.332121      42.332121      42.332121      1.0962191      310.29401     -1974.0069     -1728.233     
      5600   5600           301.96141     -680.27184      24095.179      24846.29       5561.6536      19284.636      2423.1268      6610.7665     -1928.7283      207.56936     -309.38544      43054.62      -30773.333     -518.42399      75708.744      42.304057      42.304057      42.304057      1.0984022     -1767.4938     -293.11842      19.796682    
      5700   5700           295.68327     -470.70728      24222.243      24741.757      5446.0203      19295.737      2473.0894      6596.5573     -1899.183       198.9095      -351.8479       43057.96      -30779.748     -518.634        75678.087      42.298346      42.298346      42.298346      1.0988472     -724.17265     -963.14752      275.19832    
      5800   5800           298.08624     -1037.3343      23578.637      24721.555      5490.2792      19231.276      2471.2147      6577.7064     -1928.4499      208.33522     -381.17067      43058.232     -30774.592     -519.53         75547.57       42.274015      42.274015      42.274015      1.1007455     -691.96376     -187.52945     -2232.5097    
      5900   5900           304.46066     -1529.1846      23187.311      24870.394      5607.6859      19262.708      2490.3742      6543.3517     -1953.4154      209.92215     -288.59008      43035.187     -30774.122     -520.06969      75469.173      42.259387      42.259387      42.259387      1.101889      -1004.6882     -1420.3785     -2162.487     
      6000   6000           304.47927     -769.17771      24069.652      24915.741      5608.0287      19307.712      2501.1018      6541.1607     -1894.4159      214.56386     -323.0835       43040.455     -30772.071     -520.3768       75424.633      42.251072      42.251072      42.251072      1.1025397     -1345.4952     -165.84986     -796.18805    
      6100   6100           303.60916     -806.45387      23978.795      24866.147      5592.0026      19274.144      2434.207       6589.6407     -1915.7092      210.16279     -316.92222      43048.157     -30775.392     -520.22411      75446.771      42.255206      42.255206      42.255206      1.1022162     -107.846       -1804.3742     -507.14136    
      6200   6200           298.32483     -1301.0617      23361.635      24793.78       5494.6736      19299.106      2478.5516      6576.0718     -1948.6138      197.02058     -288.82035      43055.395     -30770.498     -520.01757      75476.737      42.260799      42.260799      42.260799      1.1017786     -335.78866     -2802.8832     -764.51325    
      6300   6300           296.03022     -507.95525      24210.671      24770.572      5452.4104      19318.161      2418.6771      6706.7189     -1964.5766      202.6643      -314.5042       43050.79      -30781.608     -519.30392      75580.46       42.280149      42.280149      42.280149      1.1002665     -975.47207     -699.47399      151.0803     
      6400   6400           301.80937     -896.93679      23906.389      24898.08       5558.8534      19339.226      2572.4643      6634.7867     -1985.0129      203.06172     -363.32387      43052.722     -30775.472     -517.71714      75812.11       42.323301      42.323301      42.323301      1.0969046     -1327.3375      106.49479     -1469.9677    
      6500   6500           307.81679     -1450.315       23376.514      24982.151      5669.5005      19312.651      2549.6224      6547.6532     -1938.6632      218.60924     -322.12301      43038.593     -30781.041     -517.03718      75911.811      42.341846      42.341846      42.341846      1.0954639     -928.93825     -2324.6424     -1097.3644    
      6600   6600           302.10706     -1160.6174      23648.168      24933.492      5564.3364      19369.156      2519.7453      6656.0038     -1964.6332      220.29248     -323.7584       43038.836     -30777.33      -516.87257      75935.988      42.34634       42.34634       42.34634       1.0951151     -1028.498      -830.81773     -1622.5365    
      6700   6700           301.04865     -281.57623      24529.886      24841.344      5544.8421      19296.501      2446.9468      6589.9397     -1952.1461      209.53523     -255.68001      43031.183     -30773.277     -517.49205      75845.087      42.329436      42.329436      42.329436      1.0964277      327.68929     -609.36044     -563.05755    
      6800   6800           299.38847     -1111.169       23563.844      24792.568      5514.2643      19278.304      2480.5037      6521.2143     -1938.798       231.47058     -318.02987      43076.044     -30774.101     -517.64601      75822.528      42.325239      42.325239      42.325239      1.0967539     -947.66903     -1334.4112     -1051.4267    
      6900   6900           301.45282     -1408.4525      23289.945      24847.727      5552.2863      19295.441      2540.8662      6559.6343     -1910.559       204.27272     -377.11704      43053.489     -30775.145     -517.53854      75838.274      42.328169      42.328169      42.328169      1.0965262     -1564.9131     -2446.273      -214.17144    
      7000   7000           299.34255     -1133.0693      23734.19       24986.181      5513.4184      19472.763      2500.7192      6724.121      -1935.0207      216.82506     -298.04413      43041.647     -30777.485     -518.03861      75765.066      42.314544      42.314544      42.314544      1.0975857     -1700.1822     -1139.8614     -559.16428    
      7100   7100           304.70884     -607.32437      24347.109      25018.476      5612.257       19406.219      2480.6494      6619.393      -1964.4483      218.78685     -242.5299       43070.495     -30776.127     -517.80706      75798.946      42.320851      42.320851      42.320851      1.0970951     -142.52064     -559.97476     -1119.4777    
      7200   7200           296.71235     -162.7632       24754.24       24934.445      5464.9743      19469.47       2549.0357      6666.9694     -1945.4629      207.97362     -303.84704      43062.659     -30767.857     -517.0063       75916.347      42.342689      42.342689      42.342689      1.0953985      1316.7286     -1383.4165     -421.60176    
      7300   7300           294.81766     -2052.4039      22556.651      24830.006      5430.077       19399.929      2573.537       6603.1272     -1936.8216      198.88254     -310.19123      43041.541     -30770.146     -516.7764       75950.119      42.348967      42.348967      42.348967      1.0949114     -1065.8044     -2322.7494     -2768.6578    
      7400   7400           304.30926     -103.29235      24728.349      24842.422      5604.8975      19237.524      2394.7572      6644.453      -1980.2516      182.73458     -259.45334      43032.583     -30777.298     -518.31453      75724.732      42.307034      42.307034      42.307034      1.0981703      410.80428     -909.65194      188.97062    
      7500   7500           300.09901     -850.02999      23935.656      24874.079      5527.3513      19346.728      2483.762       6636.6743     -1975.2925      209.2553      -277.90979      43042.861     -30772.622     -518.49276      75698.703      42.302186      42.302186      42.302186      1.0985479     -1146.2781     -250.1796      -1153.6322    
      7600   7600           298.87186     -1538.0773      23254.791      24951.359      5504.749       19446.61       2496.0546      6684.2254     -1896.5526      218.89101     -332.90066      43048.834     -30771.942     -518.93612      75634.028      42.290135      42.290135      42.290135      1.0994873     -2234.1136     -1587.4337     -792.68473    
      7700   7700           307.3653      -1535.3642      23400.897      25093.398      5661.1848      19432.213      2580.637       6637.6014     -1895.4104      208.90004     -379.5738       43051.256     -30771.197     -519.26572      75586.02       42.281186      42.281186      42.281186      1.1001856     -398.77343     -1458.5939     -2748.7253    
      7800   7800           302.84767     -405.09484      24598.964      25045.617      5577.9772      19467.64       2471.046       6784.4863     -1936.0946      200.49668     -341.34822      43058.375     -30769.322     -519.15083      75602.748      42.284305      42.284305      42.284305      1.0999422     -351.44862     -344.71068     -519.12521    
      7900   7900           304.03051     -427.18571      24492.403      24963.951      5599.7632      19364.188      2487.5967      6666.8448     -1989.3491      209.87374     -266.43318      43032.406     -30776.751     -518.55801      75689.178      42.300412      42.300412      42.300412      1.0986861      911.78158     -995.97454     -1197.3642    
      8000   8000           302.48559     -921.53552      23855.176      24874.578      5571.3083      19303.27       2503.2772      6589.1276     -1980.0896      192.19848     -264.36003      43033.541     -30770.425     -517.45617      75850.346      42.330415      42.330415      42.330415      1.0963516     -1616.9843     -471.37043     -676.25179    
      8100   8100           300.36383     -601.89325      24149.806      24817.485      5532.2287      19285.256      2462.0598      6605.5078     -1939.033       216.6798      -338.95191      43052.139     -30773.146     -516.01069      76062.822      42.369904      42.369904      42.369904      1.0932891     -708.96302     -1275.0223      178.30555    
      8200   8200           297.28813     -399.82216      24368.523      24813.048      5475.5792      19337.469      2500.2216      6603.8811     -1954.3862      210.46675     -290.33715      43047.765     -30780.143     -514.84662      76234.8        42.401813      42.401813      42.401813      1.0908227      317.88515     -931.26267     -586.08894    
      8300   8300           298.17969     -1835.3666      22914.025      24956.558      5492.0004      19464.558      2461.4058      6630.0967     -1840.7076      217.2406      -271.48009      43042.487     -30774.485     -514.35225      76308.074      42.415393      42.415393      42.415393      1.0897753     -425.3438      -2592.1341     -2488.6218    
      8400   8400           301.9746      -1155.0805      23745.538      25030.857      5561.8965      19468.96       2491.803       6733.5455     -1943.0442      208.51295     -280.25722      43032.614     -30774.214     -514.40909      76299.642      42.413831      42.413831      42.413831      1.0898957     -833.53332     -1047.1649     -1584.5433    
      8500   8500           304.60741     -515.83624      24413.134      24985.874      5610.3888      19375.485      2452.9848      6629.3666     -1943.8201      205.14126     -237.10388      43046.885     -30777.969     -515.53883      76132.44       42.382827      42.382827      42.382827      1.0922893     -562.63456     -191.83694     -793.03722    
      8600   8600           302.11503     -563.53351      24254.463      24878.562      5564.4831      19314.079      2386.2452      6702.0232     -1972.3405      190.13767     -274.13632      43059.422     -30777.272     -516.86025      75937.798      42.346677      42.346677      42.346677      1.0950891     -434.52992     -1229.388      -26.682568    
      8700   8700           299.5985      -1910.6912      22704.64       24816.266      5518.1325      19298.134      2474.3736      6665.2966     -1956.5906      201.1816      -357.448        43048.866     -30777.546     -517.94132      75779.298      42.317194      42.317194      42.317194      1.0973795     -2215.9121     -2529.2742     -986.88739    
      8800   8800           298.35412     -2769.5892      21782.3        24834.1        5495.2131      19338.887      2498.7005      6673.7248     -1903.902       182.91968     -388.91651      43052.241     -30775.881     -519.47699      75555.28       42.275453      42.275453      42.275453      1.1006332     -2484.2616     -2079.7699     -3744.7361    
      8900   8900           301.23255     -103.68184      24752.772      24866.443      5548.2293      19318.214      2463.0165      6621.3477     -1893.2387      202.98051     -348.38158      43047.178     -30774.689     -522.10919      75174.37       42.20429       42.20429       42.20429       1.1062101     -104.31931     -921.94321      715.21699    
      9000   9000           298.13202     -60.347157      24828.442      24894.413      5491.1224      19403.291      2525.6806      6661.6682     -1933.5679      202.39889     -325.29905      43050.07      -30777.66      -523.61204      74958.607      42.163874      42.163874      42.163874      1.1093943      374.86434     -937.97895      382.07314    
      9100   9100           305.23057     -911.67724      23975.648      24970.963      5621.8664      19349.096      2509.2992      6689.5117     -1922.5412      216.29594     -391.93297      43031.086     -30782.623     -524.30961      74858.879      42.145166      42.145166      42.145166      1.1108722     -1460.814      -890.87928     -383.33843    
      9200   9200           303.33713     -937.92166      23942.244      24966.895      5586.9923      19379.903      2507.1315      6648.0121     -1876.6305      208.0143      -370.91088      43042.22      -30777.934     -523.95975      74908.864      42.154545      42.154545      42.154545      1.110131      -362.64383     -694.23252     -1756.8886    
      9300   9300           300.95614     -839.85908      23922.769      24844.616      5543.1381      19301.478      2533.6587      6648.1157     -1962.0288      208.32906     -387.33612      43037.698     -30776.958     -521.49993      75262.195      42.220719      42.220719      42.220719      1.1049193     -1066.6391     -71.997094     -1380.9411    
      9400   9400           299.63506     -1670.0463      22955.106      24796.759      5518.806       19277.953      2449.9969      6674.2371     -1940.7032      205.65369     -375.06071      43038.931     -30775.102     -519.07232      75614.182      42.286436      42.286436      42.286436      1.0997758     -1340.8449     -2196.2636     -1473.0303    
      9500   9500           298.86158     -2442.7733      22146.114      24841.448      5504.5597      19336.888      2547.3438      6516.687      -1888.59        205.27803     -299.98666      43031.123     -30774.967     -518.77322      75657.778      42.294562      42.294562      42.294562      1.0991421     -1278.2668     -3278.8043     -2771.2487    
      9600   9600           302.27382     -381.94936      24516.636      24938.28       5567.4078      19370.872      2429.4068      6627.9158     -1918.5377      199.41485     -259.51425      43066.097     -30773.911     -518.52233      75694.386      42.301382      42.301382      42.301382      1.0986105     -677.10406     -1219.0866      750.34254    
      9700   9700           306.87104     -774.34596      24174.709      25031.428      5652.0814      19379.347      2532.6208      6675.6879     -1949.6458      213.98318     -354.22868      43041.927     -30780.997     -517.37252      75862.609      42.332696      42.332696      42.332696      1.0961744     -1291.1807     -484.4885      -547.36868    
      9800   9800           306.2539      -1551.3489      23350.141      25067.43       5640.7146      19426.715      2644.6016      6685.0325     -1961.7097      211.88698     -406.50119      43031.583     -30778.178     -517.09847      75902.814      42.340173      42.340173      42.340173      1.0955938     -1927.6116     -1779.5314     -946.90384    
      9900   9900           298.77333     -1022.142       23813.782      24944.218      5502.9343      19441.284      2525.8681      6596.2549     -1896.2428      204.1057      -258.8577       43046.687     -30776.532     -517.57393      75833.087      42.327204      42.327204      42.327204      1.0966012     -518.59844     -1717.8248     -830.0029     
     10000   10000          300.37661     -604.87327      24155.527      24824.55       5532.4642      19292.086      2537.2283      6540.2459     -1939.9286      210.82892     -323.88522      43046.773     -30779.176     -517.5243       75840.361      42.328557      42.328557      42.328557      1.096496       252.59938     -1532.1217     -535.09747    
     10100   10100          295.54515      9.4246378      24813.192      24802.776      5443.4763      19359.3        2503.1259      6653.0908     -1920.4762      194.77251     -334.23746      43045.362     -30782.338     -517.94541      75778.699      42.317082      42.317082      42.317082      1.0973882     -236.52794     -686.7889       951.59076    
     10200   10200          301.95151     -1899.9019      22792.628      24888.872      5561.4712      19327.401      2535.4319      6585.1231     -1921.9123      204.7623      -313.01025      43017.427     -30780.421     -518.79575      75654.493      42.293949      42.293949      42.293949      1.0991899     -1102.1591     -2652.6701     -1944.8766    
     10300   10300          299.02224     -1730.5183      23055.369      24959.719      5507.5189      19452.2        2560.3473      6752.8767     -1972.0538      221.03184     -382.81825      43049.458     -30776.642     -520.15937      75456.161      42.256959      42.256959      42.256959      1.102079      -1414.0782     -1518.119      -2259.3577    
     10400   10400          301.29233      145.23705      25064.126      24904.769      5549.3303      19355.439      2452.3723      6631.2781     -1920.3042      219.93761     -321.17028      43072.462     -30779.136     -521.69338      75234.287      42.2155        42.2155        42.2155        1.1053292      667.98697     -57.688069     -174.58776    
     10500   10500          293.86861     -1002.107       23669.259      24768.351      5412.597       19355.754      2493.5866      6607.1193     -1915.2979      193.63837     -276.55741      43032.335     -30779.07      -521.89975      75204.538      42.209935      42.209935      42.209935      1.1057664     -1064.1693     -1085.7446     -856.40694    
     10600   10600          295.80318      359.62325      25157.434      24762.358      5448.2288      19314.13       2432.7948      6526.0211     -1927.2744      204.76643     -208.556        43062.469     -30776.091     -521.04437      75327.997      42.23302       42.23302       42.23302       1.1039541      1444.5781     -649.35103      283.64269    
     10700   10700          300.55647     -1078.2942      23631.775      24822.01       5535.7769      19286.233      2525.673       6578.0671     -1957.5176      203.44365     -327.33384      43036.428     -30772.527     -518.57514      75686.677      42.299946      42.299946      42.299946      1.0987224     -1080.2712     -1707.5086     -447.10279    
     10800   10800          302.82165     -520.32522      24330.569      24907.066      5577.4979      19329.568      2407.856       6629.3472     -1902.0907      201.77324     -318.04799      43083.264     -30772.533     -516.63587      75970.778      42.352806      42.352806      42.352806      1.0946136     -1134.9748     -368.0195      -57.981362    
     10900   10900          302.57536     -1465.9996      23325.543      24951.788      5572.9617      19378.826      2570.2455      6618.0394     -1924.171       189.82938     -321.89858      43025.576     -30778.795     -516.0062       76063.484      42.370027      42.370027      42.370027      1.0932795     -984.05574     -1669.5259     -1744.4171    
     11000   11000          297.69271     -2160.5165      22505.868      24899.983      5483.0309      19416.952      2524.5122      6661.2195     -1922.5089      197.89455     -307.24146      43036.03      -30772.954     -516.55872      75982.125      42.354915      42.354915      42.354915      1.0944502     -1864.8031     -3244.9529     -1371.7935    
     11100   11100          293.11328     -1073.2656      23552.997      24740.742      5398.6851      19342.057      2479.4753      6650.0578     -1968.202       199.15267     -280.4902       43036.129     -30774.066     -517.23873      75882.231      42.336345      42.336345      42.336345      1.095891      -1008.7029     -864.08787     -1347.0062    
     11200   11200          296.47302     -1050.663       23607.096      24769.477      5460.5663      19308.911      2446.2304      6638.0739     -1954.2494      207.65402     -307.24928      43055.974     -30777.523     -517.39468      75859.36       42.332091      42.332091      42.332091      1.0962214     -1152.5674     -1011.3122     -988.1093     
     11300   11300          303.15646     -1277.5389      23463.646      24877.476      5583.6645      19293.811      2523.2592      6585.9155     -1960.0261      198.01948     -309.17522      43029.276     -30773.458     -517.23054      75883.433      42.336569      42.336569      42.336569      1.0958736     -994.96094     -2878.4334      40.777734    
     11400   11400          300.39214     -993.74557      23806.435      24906.464      5532.7502      19373.714      2521.0432      6674.2614     -1923.979       197.83947     -361.95001      43040.161     -30773.662     -517.10413      75901.984      42.340018      42.340018      42.340018      1.0956058     -194.48704     -1955.6245     -831.12512    
     11500   11500          298.40691     -1217.6003      23545.603      24891.677      5496.1854      19395.491      2565.9945      6624.6051     -1957.3361      217.12279     -312.66211      43032.64      -30774.873     -517.77725      75803.309      42.321663      42.321663      42.321663      1.0970319     -547.03678     -1121.6754     -1984.0889    
     11600   11600          298.03293     -1420.4818      23255.51       24824.294      5489.2973      19334.997      2562.9919      6544.377      -1879.9733      207.88042     -358.44235      43035.121     -30776.958     -518.29814      75727.128      42.30748       42.30748       42.30748       1.0981355     -564.68004     -2719.223      -977.54247    
     11700   11700          297.41824     -78.532257      24597.831      24684.469      5477.9756      19206.494      2464.6271      6596.9672     -1967.6001      214.66271     -376.63962      43049.379     -30774.902     -518.85271      75646.187      42.292401      42.292401      42.292401      1.0993105     -401.33504      153.13004      12.608225    
     11800   11800          298.17507     -1829.7218      22703.879      24719.179      5491.9152      19227.264      2406.0729      6611.0897     -1928.8877      200.15867     -351.17249      43058.531     -30768.529     -519.69972      75522.899      42.269413      42.269413      42.269413      1.1011051     -659.95148     -2650.2219     -2178.992     
     11900   11900          300.43659     -2258.853       22334.87       24823.152      5533.5689      19289.583      2531.6248      6641.1387     -1957.7787      196.06847     -412.9826       43063.679     -30772.167     -519.63157      75532.803      42.271261      42.271261      42.271261      1.1009607     -2852.1983     -2651.8484     -1272.5125    
     12000   12000          304.90604      60.325384      24934.081      24867.686      5615.8891      19251.797      2446.2917      6616.0506     -1941.2523      186.13523     -344.55766      43065.825     -30776.695     -520.08039      75467.62       42.259098      42.259098      42.259098      1.1019117      299.81469     -102.89186     -15.946677    
     12100   12100          302.02263     -400.63072      24434.304      24875.152      5562.7812      19312.371      2468.2735      6523.387      -1903.3977      187.125       -257.31559      43069.288     -30774.99      -520.19043      75451.656      42.256118      42.256118      42.256118      1.1021448      535.44746     -1006.3063     -731.03329    
     12200   12200          299.58436     -2365.1215      22264.868      24874.137      5517.8721      19356.265      2494.2307      6652.3969     -1931.8056      213.34318     -326.84122      43030.427     -30775.486     -518.84989      75646.599      42.292478      42.292478      42.292478      1.0993046     -2221.5404     -1615.4952     -3258.3291    
     12300   12300          303.79133     -484.62905      24343.373      24878.711      5595.3579      19283.353      2489.4642      6716.1915     -1978.7569      193.67187     -407.50289      43049.25      -30778.965     -518.18919      75743.049      42.310445      42.310445      42.310445      1.0979047     -691.42282     -567.26931     -195.19503    
     12400   12400          296.44998     -361.44209      24455.603      24854.364      5460.1418      19394.223      2519.1908      6646.2891     -1941.3175      196.80554     -282.00064      43032.218     -30776.963     -518.8389       75648.201      42.292777      42.292777      42.292777      1.0992813      598.11221     -721.65857     -960.77991    
     12500   12500          297.74461     -2258.3007      22381.367      24873.261      5483.9868      19389.274      2536.0483      6662.4463     -1930.4554      208.72335     -353.97983      43040.657     -30774.166     -518.75142      75660.957      42.295154      42.295154      42.295154      1.0990959     -1910.6796     -2768.0078     -2096.2146    
     12600   12600          298.93717     -353.07354      24513.943      24903.207      5505.952       19397.255      2471.3439      6642.336      -1931.4547      212.55377     -293.07665      43070.149     -30774.596     -519.19151      75596.824      42.2832        42.2832        42.2832        1.1000284     -1044.5963      184.89352     -199.51786    
     12700   12700          299.33054     -442.69921      24458.355      24945.95       5513.1973      19432.753      2526.8662      6645.5104     -1923.3555      200.62842     -281.40537      43037.594     -30773.085     -519.70494      75522.14       42.269272      42.269272      42.269272      1.1011162     -402.68308     -1098.7327      173.31813    
     12800   12800          302.97103     -1259.315       23595.379      24981.348      5580.2493      19401.098      2506.1812      6667.3516     -1860.4465      194.54621     -355.00464      43030.642     -30782.171     -520.10145      75464.564      42.258527      42.258527      42.258527      1.1019563     -2058.6437     -1127.3294     -591.97191    
     12900   12900          304.83828     -1334.0108      23446.908      24914.674      5614.641       19300.032      2541.9686      6679.4976     -1964.3726      194.14528     -400.38517      43025.905     -30776.726     -520.24728      75443.411      42.254578      42.254578      42.254578      1.1022653      647.32565     -2618.6469     -2030.7113    
     13000   13000          296.07305     -1109.067       23572.16       24793.238      5453.1994      19340.039      2548.7487      6670.574      -1934.6967      199.56125     -385.02114      43016.901     -30776.028     -519.902        75493.514      42.26393       42.26393       42.26393       1.1015337     -2587.6522     -981.67937      242.13056    
     13100   13100          299.61577     -802.24922      23904.62       24788.15       5518.4507      19269.699      2501.594       6600.4446     -1898.8026      184.2062      -369.24223      43031.097     -30779.598     -519.75099      75515.449      42.268023      42.268023      42.268023      1.1012137     -100.62618     -1151.1816     -1154.9399    
     13200   13200          304.33952     -1096.3991      23632.255      24838.066      5605.4547      19232.611      2458.9373      6543.692      -1923.5987      186.93101     -270.75315      43019.126     -30781.724     -520.47096      75410.988      42.248524      42.248524      42.248524      1.1027392     -667.99923     -1635.6335     -985.56459    
     13300   13300          300.38158     -1532.5928      23267.406      24954.774      5532.5557      19422.218      2533.5747      6667.3353     -1964.8082      210.52881     -300.28369      43047.639     -30771.768     -519.90507      75493.068      42.263847      42.263847      42.263847      1.1015402     -1468.831      -1667.6341     -1461.3135    
     13400   13400          304.87156     -366.69298      24642.012      25046.344      5615.2541      19431.09       2467.9957      6624.1547     -1901.0273      204.93929     -249.61766      43055.987     -30771.342     -519.12402      75606.652      42.285033      42.285033      42.285033      1.0998854     -827.51953     -241.18414     -31.37526     
     13500   13500          303.59669     -156.66357      24821.51       24994.637      5591.773       19402.864      2550.5075      6615.1251     -1955.1257      214.22067     -294.54926      43041.063     -30768.378     -517.97651      75774.149      42.316235      42.316235      42.316235      1.0974541     -1113.0686     -101.44269      744.52058    
     13600   13600          297.76774     -94.771667      24756.005      24860.799      5484.4129      19376.386      2439.9789      6643.336      -1933.7236      205.98137     -237.64678      43036.009     -30777.549     -517.66562      75819.656      42.324705      42.324705      42.324705      1.0967954      1080.6218     -774.85143     -590.0854     
     13700   13700          298.15163     -1715.579       22961.497      24860.978      5491.4835      19369.495      2488.322       6658.0096     -1905.3677      190.36965     -317.67699      43035.815     -30779.977     -516.99069      75918.638      42.343115      42.343115      42.343115      1.0953654     -1348.2879     -163.62047     -3634.8287    
     13800   13800          299.19606     -1872.1332      22817.369      24891.916      5510.7203      19381.195      2578.5879      6693.6348     -1917.7577      194.02483     -418.63755      43030.62      -30779.277     -516.55976      75981.972      42.354886      42.354886      42.354886      1.0944524     -2031.0736     -2030.8809     -1554.445     
     13900   13900          300.16246     -889.62621      23956.245      24939.046      5528.5198      19410.527      2485.419       6670.791      -1912.1898      212.84703     -297.68905      43035.857     -30784.508     -518.14191      75749.961      42.311732      42.311732      42.311732      1.0978045     -546.60477     -666.80313     -1455.4707    
     14000   14000          300.66589     -616.32112      24268.043      24946.987      5537.7922      19409.195      2498.3578      6684.9563     -1935.0023      200.84141     -306.20528      43041.821     -30775.574     -519.61306      75535.495      42.271763      42.271763      42.271763      1.1009215     -70.094968     -1130.021      -648.84736    
     14100   14100          297.99254     -910.03411      23878.588      24879.7        5488.5533      19391.147      2481.1443      6585.3448     -1925.4196      200.16816     -219.44102      43044.806     -30775.456     -520.33385      75430.86       42.252235      42.252235      42.252235      1.1024487     -1157.6337     -1349.7353     -222.73337    
     14200   14200          295.63196     -1637.5203      22959.487      24762.413      5445.0751      19317.338      2593.3394      6677.076      -1977.4589      195.40031     -421.95207      43030.237     -30779.303     -519.89511      75494.515      42.264117      42.264117      42.264117      1.1015191     -617.644       -2792.5479     -1502.3691    
     14300   14300          303.32229     -234.7742       24507.671      24765.932      5586.719       19179.213      2409.2083      6567.2586     -1909.1192      197.65853     -375.26303      43065.131     -30775.661     -520.35318      75428.057      42.251712      42.251712      42.251712      1.1024896     -176.94922     -708.08053      180.70714    
     14400   14400          300.24593     -361.48437      24463.832      24861.795      5530.0573      19331.738      2440.4936      6633.6198     -1924.1599      202.61825     -301.97013      43061.223     -30780.087     -519.94049      75487.926      42.262887      42.262887      42.262887      1.1016153     -1026.3585     -746.37716      688.28255    
     14500   14500          303.20109     -895.42181      23950.21       24935.596      5584.4866      19351.109      2500.6995      6671.2064     -1949.4098      210.89932     -343.28716      43031.689     -30770.688     -520.14973      75457.56       42.25722       42.25722       42.25722       1.1020586      443.30956     -1144.3798     -1985.1952    
     14600   14600          300.99343      586.40809      25579.032      24934.244      5543.825       19390.419      2484.1847      6617.9802     -1948.932       217.68437     -263.12582      43052.171     -30769.544     -520.58342      75394.697      42.245482      42.245482      42.245482      1.1029774      1223.06       -1126.0384      1662.2026    
     14700   14700          300.16177     -1379.5957      23353.177      24873.248      5528.5071      19344.741      2469.307       6669.6836     -1920.8448      222.23178     -365.99238      43041.733     -30771.377     -519.51103      75550.329      42.27453       42.27453       42.27453       1.1007053     -468.64667     -1174.772      -2495.3684    
     14800   14800          296.29237     -1901.1667      22721.082      24818.06       5457.2388      19360.822      2525.2241      6620.6664     -1908.794       218.3811      -377.34165      43052.203     -30769.517     -518.95915      75630.671      42.28951       42.28951       42.28951       1.0995361     -2884.0762     -2344.3573     -475.06652    
     14900   14900          299.42699     -1451.8278      23226.21       24829.272      5514.9737      19314.298      2462.6527      6652.3635     -1942.9516      205.67176     -341.55831      43052.217     -30774.097     -518.40826      75711.041      42.304484      42.304484      42.304484      1.0983689     -492.301       -2229.6297     -1633.5526    
     15000   15000          301.33415     -1738.6803      23033.781      24955.184      5550.1006      19405.083      2524.835       6682.4512     -1942.2164      203.52397     -335.62468      43047.428     -30775.314     -517.97449      75774.445      42.31629       42.31629       42.31629       1.0974498     -273.21755     -2033.8356     -2908.9879    
     15100   15100          301.89531     -1181.1176      23734.312      25038.512      5560.4363      19478.076      2532.4217      6682.8637     -1920.8503      214.51515     -298.16834      43036.625     -30769.331     -518.38939      75713.797      42.304998      42.304998      42.304998      1.0983289     -1014.9149     -1068.8889     -1459.549     
     15200   15200          304.88488      400.93208      25418.825      24976.617      5615.4995      19361.118      2423.4856      6638.4741     -1928.2319      204.18987     -269.4787       43061.87      -30769.191     -518.98105      75627.481      42.288915      42.288915      42.288915      1.0995824      281.39501     -426.78071      1348.1819    
     15300   15300          299.20584     -477.73683      24335.368      24863.496      5510.9004      19352.596      2548.0996      6605.2628     -1971.3148      209.59374     -313.53348      43046.775     -30772.287     -517.79265      75801.055      42.321243      42.321243      42.321243      1.0970646     -110.20587      283.63923     -1606.6439    
     15400   15400          300.30519     -861.97616      23887.392      24842.361      5531.1487      19311.213      2497.4735      6538.213      -1910.5483      204.42995     -286.77272      43042.598     -30774.181     -516.66957      75965.823      42.351886      42.351886      42.351886      1.094685      -1301.2336     -405.06701     -879.62788    
     15500   15500          298.11545     -1200.731       23547.564      24879.126      5490.8171      19388.309      2557.0885      6616.0875     -1909.6555      200.93737     -344.82045      43043.069     -30774.397     -516.16809      76039.627      42.365596      42.365596      42.365596      1.0936226     -871.44078     -1030.1614     -1700.5908    
     15600   15600          304.33768     -1263.5402      23572.336      24971.151      5605.4208      19365.73       2464.9858      6590.7172     -1924.7828      211.81827     -251.99702      43046.048     -30771.059     -517.0539       75909.357      42.341389      42.341389      42.341389      1.0954993     -547.71757     -2523.6724     -719.2307     
     15700   15700          303.18974     -2148.7464      22649.734      25027.614      5584.2775      19443.336      2561.0898      6712.4125     -1958.2691      209.43817     -343.64156      43028.786     -30766.479     -517.25217      75880.26       42.335979      42.335979      42.335979      1.0959194     -478.76915     -3516.2606     -2451.2094    
     15800   15800          300.53073     -449.8633       24440.926      24938.601      5535.3028      19403.298      2526.6319      6683.5274     -1967.1663      209.47775     -342.43869      43063.393     -30770.126     -517.4181       75855.926      42.331453      42.331453      42.331453      1.096271      -1064.842      -30.955395     -253.79247    
     15900   15900          296.5072      -1354.2903      23318.173      24817.559      5461.1958      19356.364      2531.7816      6608.2435     -1940.772       204.43904     -312.81063      43039.185     -30773.703     -517.01747      75914.706      42.342384      42.342384      42.342384      1.0954222     -1237.0679     -1208.9477     -1616.8553    
     16000   16000          297.46703     -1175.8449      23531.906      24834.455      5478.8743      19355.58       2505.0619      6663.374      -1970.3761      199.48273     -299.15196      43033.94      -30776.75      -516.72923      75957.052      42.350255      42.350255      42.350255      1.0948115     -999.37904     -1400.4806     -1127.6751    
     16100   16100          301.78941     -358.0249       24520.182      24916.528      5558.4856      19358.042      2492.6816      6574.124      -1899.5132      202.37916     -272.97729      43038.8       -30777.452     -517.06598      75907.583      42.34106       42.34106       42.34106       1.0955249     -1547.7236      500.04718     -26.398301    
     16200   16200          301.25684     -187.5434       24764.473      24971.422      5548.6767      19422.745      2480.5613      6619.6544     -1923.4548      209.9768      -228.62029      43044.239     -30779.611     -518.73419      75663.47       42.295622      42.295622      42.295622      1.0990594     -465.77285      1021.2588     -1118.1162    
     16300   16300          300.22683     -1339.9117      23481.763      24955.17       5529.7054      19425.465      2487.5355      6703.3288     -1911.6149      204.9363      -330.78566      43043.06      -30770.995     -520.54752      75399.897      42.246453      42.246453      42.246453      1.1029014     -414.37528     -2412.1119     -1193.2478    
     16400   16400          301.52283     -1163.9318      23525.154      24802.445      5553.5757      19248.869      2501.0862      6590.5064     -1943.2086      210.42604     -389.47507      43052.926     -30773.392     -521.60832      75246.555      42.217794      42.217794      42.217794      1.1051489     -887.05795     -1720.7854     -883.95197    
     16500   16500          294.64038     -941.32595      23734.146      24766.122      5426.8118      19339.31       2508.514       6674.3221     -1952.0086      204.94685     -394.24084      43072.569     -30774.792     -522.12861      75171.574      42.203767      42.203767      42.203767      1.1062513     -350.99844     -1460.7556     -1012.2238    
     16600   16600          302.71504     -1532.3577      23146.851      24826.43       5575.5343      19250.895      2557.2309      6594.7984     -1917.6396      187.98586     -439.16057      43043.769     -30776.089     -522.23592      75156.127      42.200876      42.200876      42.200876      1.1064787     -2329.1613     -604.44617     -1663.4657    
     16700   16700          302.67554     -327.03488      24563.347      24921.555      5574.8069      19346.748      2428.3113      6751.1853     -1978.2         198.54265     -322.44095      43048.952     -30779.603     -522.59676      75104.234      42.191161      42.191161      42.191161      1.1072432      1367.8397     -2886.9112      537.96687    
     16800   16800          304.79896     -84.512967      24910.212      25002.879      5613.9169      19388.962      2444.5224      6700.2539     -1934.0613      198.10834     -278.10509      43038.17      -30779.926     -522.04705      75183.318      42.205964      42.205964      42.205964      1.1060785     -519.68804      952.83595     -686.68682    
     16900   16900          303.1698      -1818.5158      23014.647      25014.199      5583.9103      19430.289      2584.6179      6657.1631     -1964.027       200.69973     -313.02876      43040.805     -30775.942     -520.58465      75394.519      42.245448      42.245448      42.245448      1.1029801     -1010.5204     -1876.7369     -2568.2902    
     17000   17000          298.61743     -1860.7414      22817.269      24868.975      5500.0629      19368.912      2503.8606      6734.3152     -1920.7655      218.66073     -422.47182      43035.331     -30780.019     -519.13235      75605.439      42.284806      42.284806      42.284806      1.099903      -3269.1747     -2131.9773     -181.07209    
     17100   17100          299.81991     -1040.6569      23650.105      24798.676      5522.2106      19276.465      2537.4681      6512.7876     -1953.5111      210.45526     -304.57493      43045.977     -30772.137     -518.62887      75678.836      42.298485      42.298485      42.298485      1.0988363     -1164.9458     -1331.9484     -625.07639    
     17200   17200          299.58565     -1238.547       23502.237      24870.734      5517.896       19352.838      2473.8863      6615.0436     -1885.9651      195.52322     -301.69991      43039.998     -30783.948     -518.05469      75762.714      42.314106      42.314106      42.314106      1.0976197     -1609.7363     -159.15759     -1946.7472    
     17300   17300          299.89876     -463.64059      24447.064      24959.278      5523.6629      19435.615      2523.7404      6683.9515     -1941.7569      203.34182     -321.75263      43068.338     -30780.247     -518.12805      75751.986      42.312109      42.312109      42.312109      1.0977752      1183.2594     -1807.7656     -766.41565    
     17400   17400          302.66787     -521.13733      24378.431      24952.848      5574.6656      19378.182      2488.8856      6659.16       -1968.4725      208.41856     -288.9158       43056.165     -30777.058     -519.31665      75578.607      42.279804      42.279804      42.279804      1.1002935     -140.82452      203.63502     -1626.2225    
     17500   17500          295.97808     -1064.1938      23633.362      24806.91       5451.4502      19355.459      2436.2285      6689.5409     -1921.4143      206.87961     -318.10028      43032.208     -30769.884     -519.07143      75614.312      42.286461      42.286461      42.286461      1.0997739     -1613.4999     -1277.3215     -301.76002    
     17600   17600          299.08791     -1051.9348      23613.891      24776.782      5508.7284      19268.053      2480.7421      6585.7008     -1970.7106      206.76024     -310.63534      43044.914     -30768.717     -517.79387      75800.876      42.32121       42.32121       42.32121       1.0970671     -1390.8406     -959.61183     -805.35191    
     17700   17700          298.03683     -1232.2573      23475.445      24840.462      5489.3691      19351.093      2501.8631      6592.928      -1921.271       202.84386     -298.12721      43046.436     -30773.58      -516.73817      75955.739      42.350011      42.350011      42.350011      1.0948304     -555.21497     -2529.296      -612.26097    
     17800   17800          298.38238     -1669.2084      23081.86       24930.948      5495.7335      19435.215      2497.227       6755.4012     -1937.5494      208.19681     -361.92769      43045.864     -30771.998     -516.72553      75957.596      42.350357      42.350357      42.350357      1.0948036     -1779.521      -1481.3333     -1746.7708    
     17900   17900          301.60393     -740.87649      24150.889      24970.578      5555.0694      19415.509      2538.3733      6605.4521     -1925.8561      198.61235     -268.02373      43042.482     -30775.531     -517.3729       75862.554      42.332685      42.332685      42.332685      1.0961752      7.0556386      21.488063     -2251.1732    
     18000   18000          301.29425     -126.59001      24770.434      24910.347      5549.3657      19360.981      2484.3633      6587.6575     -1947.0931      204.67327     -273.64728      43077.034     -30772.006     -517.90258      75784.966      42.318249      42.318249      42.318249      1.0972975     -193.05378     -293.89606      107.17981    
     18100   18100          294.36455     -647.93877      24031.267      24746.923      5421.7315      19325.192      2496.2866      6540.7511     -1914.6573      216.59622     -270.77365      43041.113     -30784.124     -518.24636      75734.693      42.308889      42.308889      42.308889      1.0980258     -500.44317     -489.05282     -954.32031    
     18200   18200          298.06214     -1638.8952      22941.11       24752.955      5489.8352      19263.12       2450.0246      6614.7785     -1932.1987      203.73397     -351.04371      43050.668     -30772.843     -517.7704       75804.312      42.321849      42.321849      42.321849      1.0970174     -1510.8452     -1897.9623     -1507.8782    
     18300   18300          301.23212     -2116.7084      22484.233      24824.453      5548.2213      19276.232      2488.4336      6672.8487     -1971.579       209.83076     -400.97672      43047.93      -30770.256     -517.73964      75808.816      42.322688      42.322688      42.322688      1.0969522     -2497.4418     -2725.777      -1126.9063    
     18400   18400          298.32971     -1238.3685      23541.748      24908.981      5494.7635      19414.217      2557.2857      6639.1383     -1930.4096      202.15676     -326.7951       43045.627     -30772.786     -518.45925      75703.595      42.303098      42.303098      42.303098      1.0984769     -791.51195     -1227.4963     -1696.0971    
     18500   18500          300.26614     -1560.9026      23219.008      24940.989      5530.4294      19410.56       2586.8588      6700.2811     -1955.6455      205.9607      -371.33381      43023.058     -30778.619     -518.86487      75644.414      42.292071      42.292071      42.292071      1.0993363     -1557.8427     -2210.7349     -914.13028    
     18600   18600          300.24794      129.4157       25062.921      24920.464      5530.0943      19390.37       2430.212       6684.7761     -1958.0352      203.0803      -232.80999      43040.844     -30777.698     -520.00702      75478.269      42.261085      42.261085      42.261085      1.1017562     -497.36383     -364.34321      1249.9541    
     18700   18700          294.41326     -852.32602      23941.687      24879.215      5422.6286      19456.586      2495.8739      6708.6601     -1940.2229      209.6318      -281.97778      43039.745     -30775.124     -520.38934      75422.816      42.250733      42.250733      42.250733      1.1025662      4.8361202     -941.06882     -1620.7454    
     18800   18800          295.20169     -1151.0433      23604.043      24868.296      5437.1503      19431.146      2502.5036      6681.1504     -1931.9497      222.36144     -318.16594      43046.318     -30771.072     -521.152        75312.441      42.230113      42.230113      42.230113      1.1041821     -870.02209     -1823.8864     -759.22133    
     18900   18900          296.32334     -1566.0924      23146.739      24869.303      5457.8093      19411.493      2531.3122      6674.554      -1946.8974      207.33419     -334.88494      43050.607     -30770.531     -520.41416      75419.219      42.250061      42.250061      42.250061      1.1026188     -1156.2392     -2259.111      -1282.9268    
     19000   19000          302.61081     -311.61418      24538.78       24882.28       5573.6145      19308.665      2405.1958      6617.0275     -1908.9923      200.01855     -287.2614       43056.463     -30773.786     -519.27526      75584.632      42.280927      42.280927      42.280927      1.1002058      362.45644     -1364.778       67.479044    
     19100   19100          296.38443     -597.10164      24209.173      24869.696      5458.9344      19410.762      2566.1741      6650.065      -1949.9153      213.48887     -336.48706      43040.263     -30772.827     -517.44824      75851.508      42.330631      42.330631      42.330631      1.0963348      691.23956     -1679.861      -802.6835     
     19200   19200          297.54758     -738.50446      24036.95       24854.979      5480.3579      19374.621      2476.6526      6569.619      -1919.9685      210.15234     -248.53144      43059.422     -30772.726     -516.76337      75952.035      42.349323      42.349323      42.349323      1.0948838     -787.01345     -292.57399     -1135.926     
     19300   19300          300.09721     -1222.5215      23527.039      24882.85       5527.318       19355.532      2499.3133      6679.1889     -1943.8364      194.11714     -328.64931      43028.261     -30772.863     -516.13637      76044.3        42.366464      42.366464      42.366464      1.0935553     -984.18695     -1913.0888     -770.28867    
     19400   19400          301.10717     -1180.2005      23635.957      24945.504      5545.92        19399.584      2534.5201      6646.9059     -1941.4733      217.71487     -332.67599      43041.905     -30767.312     -515.87175      76083.309      42.373707      42.373707      42.373707      1.0929947     -1471.758       41.540011     -2110.3837    
     19500   19500          302.1566      -1470.2945      23363.145      24992.658      5565.2488      19427.409      2526.5864      6705.8098     -1958.8881      224.47279     -334.19621      43039.78      -30776.155     -516.48006      75993.696      42.357065      42.357065      42.357065      1.0942835     -151.59789     -3172.3025     -1086.983     
     19600   19600          300.73958     -1252.1241      23553.561      24936.965      5539.1495      19397.815      2509.4604      6639.1968     -1911.1195      199.42575     -290.02845      43023.485     -30772.605     -518.09026      75757.512      42.313138      42.313138      42.313138      1.0976951     -705.55355     -2000.7502     -1050.0686    
     19700   19700          296.05731     -472.00158      24277.683      24797.213      5452.9095      19344.303      2431.9093      6611.5063     -1917.8475      205.53297     -256.4372       43039.348     -30769.709     -520.04355      75472.966      42.260095      42.260095      42.260095      1.1018336     -1045.1686      247.27664     -618.11275    
     19800   19800          299.82149     -1585.6703      23032.02       24773.367      5522.2397      19251.127      2482.1243      6551.4631     -1921.4372      204.89473     -323.38468      43031.377     -30773.909     -521.23621      75300.273      42.227838      42.227838      42.227838      1.1043605     -857.82093     -1898.5706     -2000.6195    
     19900   19900          299.87391      95.559228      24944.706      24839.787      5523.2052      19316.582      2447.9179      6613.1142     -1923.9822      225.64686     -317.41283      43044.711     -30773.413     -521.34559      75284.476      42.224885      42.224885      42.224885      1.1045923     -144.86831      871.41972     -439.87373    
     20000   20000          302.29469     -820.14598      24003.787      24905.727      5567.7922      19337.935      2486.9928      6579.6921     -1863.1762      209.36991     -356.93921      43056.212     -30774.217     -520.49967      75406.828      42.247747      42.247747      42.247747      1.1028        -1630.5631     -384.12255     -445.75229    
     20100   20100          304.16293     -1611.6194      23170.873      24943.706      5602.2023      19341.504      2553.7796      6601.8269     -1949.3185      203.56138     -341.10477      43044.813     -30772.054     -520.35735      75427.453      42.251599      42.251599      42.251599      1.1024985     -1583.362      -1187.1646     -2064.3317    
     20200   20200          302.9688      -979.9861       23844.676      24921.722      5580.2082      19341.513      2439.2592      6615.8704     -1893.3513      200.09059     -272.51211      43034.346     -30782.19      -520.82604      75359.575      42.238921      42.238921      42.238921      1.1034915     -316.26168     -1070.5988     -1553.0978    
     20300   20300          298.26947     -680.49955      24069.695      24818.397      5493.654       19324.743      2450.9361      6645.9556     -1943.4323      202.43928     -295.75557      43043.919     -30779.319     -520.26687      75440.57       42.254048      42.254048      42.254048      1.1023068     -763.07781     -350.9652      -927.45564    
     20400   20400          295.1749      -875.83882      23791.559      24756.733      5436.6568      19320.076      2387.6377      6607.5623     -1848.1507      206.35386     -304.67261      43047.705     -30776.359     -519.42832      75562.36       42.276774      42.276774      42.276774      1.1005301     -351.21644     -1466.1241     -810.17589    
     20500   20500          298.50544     -1583.948       23060.854      24810.78       5498.0002      19312.78       2521.8387      6623.4761     -1998.9168      206.88484     -325.6782       43060.623     -30775.448     -518.11757      75753.52       42.312395      42.312395      42.312395      1.097753      -925.49444     -1037.961      -2788.3886    
     20600   20600          300.18659     -553.65502      24321.294      24933.701      5528.9643      19404.737      2415.1054      6703.5849     -1902.1503      194.7804      -317.51264      43082.249     -30771.32      -517.49476      75844.689      42.329362      42.329362      42.329362      1.0964334      41.968088     -1552.1576     -150.7755     
     20700   20700          300.67809     -477.6125       24432.128      24960.396      5538.0169      19422.379      2498.388       6595.6648     -1890.3879      215.74954     -258.11374      43033.759     -30772.681     -517.52127      75840.804      42.328639      42.328639      42.328639      1.0964896     -943.80799     -344.71551     -144.314      
     20800   20800          301.71295     -2982.0411      21612.295      24914.595      5557.0775      19357.518      2629.9191      6617.2789     -1903.7599      207.97323     -423.78573      43004.91      -30775.018     -516.8971       75932.385      42.34567       42.34567       42.34567       1.0951671     -2239.4463     -3706.2677     -3000.4094    
     20900   20900          299.22994     -91.53728       24731.986      24833.281      5511.3444      19321.936      2431.5654      6677.7686     -1977.7625      197.91047     -268.17141      43038.224     -30777.598     -517.27013      75877.626      42.335489      42.335489      42.335489      1.0959575      749.72219     -1832.9852      808.65116    
     21000   21000          294.4988      -157.2226       24521.21       24695.385      5424.2042      19271.181      2434.1913      6655.677      -1961.8074      202.30048     -309.47185      43026.212     -30775.921     -516.69634      75961.887      42.351154      42.351154      42.351154      1.0947418      244.10502     -535.61015     -180.16268    
     21100   21100          292.50445     -1897.2262      22490.372      24594.992      5387.4714      19207.521      2431.6647      6577.4094     -1914.5797      200.83232     -348.88663      43038.963     -30777.882     -516.00325      76063.919      42.370107      42.370107      42.370107      1.0932733     -2050.532      -1733.599      -1907.5476    
     21200   21200          296.88281     -1412.9981      23122.222      24690.62       5468.1138      19222.506      2426.4788      6558.5696     -1925.4643      198.8525      -290.90668      43032.294     -30777.318     -515.69431      76109.487      42.378567      42.378567      42.378567      1.0926187     -1230.2951     -1690.8974     -1317.8018    
[...]
    495200   495200         293.4868      -1092.5709      23578.808      24794.181      5405.5647      19388.616      2506.0022      6611.8677     -1887.8529      200.25521     -315.337        43045.136     -30771.455     -514.57319      76275.309      42.409322      42.409322      42.409322      1.0902434     -719.46898     -667.06816     -1891.1756    
    495300   495300         301.32048     -2077.8777      22565.577      24876.231      5549.8488      19326.382      2534.2046      6538.7148     -1841.7738      198.86029     -374.2176       43046.747     -30776.154     -514.74503      76249.845      42.404602      42.404602      42.404602      1.0906075     -2668.3333     -1650.973      -1914.327     
    495400   495400         301.04569     -991.82703      23886.488      24985.065      5544.7876      19440.277      2488.9745      6592.1188     -1916.3844      196.83899     -210.07956      43061.599     -30772.791     -516.78812      75948.397      42.348647      42.348647      42.348647      1.0949362     -714.52512     -1601.5486     -659.40742    
    495500   495500         303.06899     -985.77252      23888.439      24977.762      5582.0535      19395.709      2507.1132      6651.0132     -1968.2241      201.45111     -288.45946      43065.546     -30772.731     -517.99644      75771.233      42.315692      42.315692      42.315692      1.0974963     -1589.5845     -1162.5418     -205.19122    
    495600   495600         302.44634      131.79614      25034.065      24888.579      5570.5853      19317.994      2436.3719      6568.327      -1911.8304      209.26534     -250.05483      43047.215     -30781.3       -518.54924      75690.457      42.30065       42.30065       42.30065       1.0986676      765.39362     -79.116033     -290.88917    
    495700   495700         298.90759     -412.9539       24384.456      24840.773      5505.4071      19335.365      2499.5312      6645.2389     -1945.9754      198.77839     -332.40416      43047.868     -30777.671     -518.01506      75768.51       42.315185      42.315185      42.315185      1.0975358     -1531.9155      393.74728     -100.69348    
    495800   495800         299.35649     -1661.6354      23028.615      24867.504      5513.6752      19353.829      2517.2995      6679.8881     -1893.8046      211.7024      -417.39903      43032.021     -30775.878     -517.23421      75882.895      42.336469      42.336469      42.336469      1.0958814     -1015.731      -2148.7417     -1820.4337    
    495900   495900         297.3173      -1641.8726      23087.367      24903.337      5476.1164      19427.22       2504.0911      6691.1348     -1875.974       201.28399     -341.6721       43032.062     -30783.706     -517.5329       75839.099      42.328322      42.328322      42.328322      1.0965142     -1158.8514     -1944.2148     -1822.5515    
    496000   496000         295.98977     -306.42649      24600.17       24939.063      5451.6654      19487.397      2506.9075      6633.5719     -1905.3704      209.10385     -218.2957       43042.844     -30781.364     -517.57284      75833.247      42.327234      42.327234      42.327234      1.0965988      353.48185     -1113.4803     -159.28098    
    496100   496100         303.19147     -479.3658       24456.194      24988.045      5584.3094      19403.736      2499.864       6580.7798     -1959.288       221.96197     -218.23856      43059.689     -30781.032     -515.92204      76075.892      42.372331      42.372331      42.372331      1.0931012     -1325.1063      335.76125     -448.75239    
    496200   496200         300.68457     -959.89901      23889.875      24959.219      5538.1362      19421.083      2498.1359      6603.2825     -1897.216       193.23954     -272.82682      43071.352     -30774.884     -513.82482      76386.402      42.429901      42.429901      42.429901      1.0886578     -1144.3734     -2018.6356      283.31201    
    496300   496300         301.63204     -1671.4339      23005.736      24871.792      5555.5873      19316.205      2546.4418      6543.141      -1943.139       197.1638      -326.84193      43073.887     -30774.447     -512.70964      76552.547      42.460641      42.460641      42.460641      1.086295      -2088.0623     -1766.6052     -1159.6341    
    496400   496400         299.9004      -2519.1183      22025.613      24837.465      5523.6931      19313.771      2610.0925      6530.4177     -1940.3943      192.50605     -345.57383      43045.065     -30778.342     -512.81782      76536.399      42.457655      42.457655      42.457655      1.0865242     -2463.7935     -1851.2003     -3242.361     
    496500   496500         301.754       -899.32428      23931.004      24932.787      5557.8336      19374.953      2497.378       6611.6395     -1905.9408      201.31517     -301.21107      43049.312     -30777.54      -513.86593      76380.291      42.428769      42.428769      42.428769      1.0887449     -272.68833     -969.48435     -1455.8002    
    496600   496600         300.97117     -997.11276      23943.417      25051.299      5543.415       19507.884      2523.7597      6689.3444     -1924.4177      211.4225      -263.72637      43045.664     -30774.162     -515.17864      76185.669      42.392702      42.392702      42.392702      1.0915262     -561.8733      -1794.8866     -634.57836    
    496700   496700         303.45563     -1413.0882      23458.407      25024.116      5589.1749      19434.941      2543.0678      6590.3325     -1914.0237      204.00599     -259.16546      43053.615     -30782.891     -516.61299      75974.143      42.353431      42.353431      42.353431      1.0945652     -1462.8084     -1910.1201     -866.33624    
    496800   496800         299.31034      212.0244       25170.191      24936.104      5512.8251      19423.279      2491.666       6679.0641     -1939.3917      202.73702     -278.03036      43050.084     -30782.85      -518.46195      75703.201      42.303024      42.303024      42.303024      1.0984826      1911.9167     -175.45762     -1100.3859    
    496900   496900         300.06673     -687.74127      24112.508      24870.1        5526.7567      19343.344      2480.1489      6543.9939     -1842.8273      232.04785     -326.59278      43037.4       -30780.827     -519.63288      75532.613      42.271225      42.271225      42.271225      1.1009635     -1119.3375     -925.99108     -17.895186    
    497000   497000         299.45335     -935.91241      23816.737      24849.082      5515.4592      19333.623      2496.5808      6625.6035     -1938.0474      200.58546     -341.91685      43064.791     -30773.974     -518.94027      75633.423      42.290023      42.290023      42.290023      1.0994961      145.15176     -1718.2446     -1234.6444    
    497100   497100         299.59093     -547.30864      24255.927      24861.535      5517.9931      19343.542      2477.7777      6605.4157     -1946.1017      198.10976     -258.13765      43046.029     -30779.551     -517.30602      75872.361      42.33451       42.33451       42.33451       1.0960335     -771.84897     -761.01208     -109.06487    
    497200   497200         300.49253     -1265.6319      23542.524      24950.768      5534.5992      19416.169      2490.2187      6629.4555     -1919.2884      207.56039     -259.67594      43049.824     -30781.925     -514.44205      76294.753      42.412925      42.412925      42.412925      1.0899655     -1308.4092     -1435.7186     -1052.7678    
    497300   497300         302.26589     -1781.373       23107.582      25095.629      5567.2617      19528.368      2576.5587      6676.8666     -1895.266       212.55448     -300.87526      43032.825     -30774.295     -512.90298      76523.691      42.455305      42.455305      42.455305      1.0867046     -768.44324     -1603.6705     -2972.0052    
    497400   497400         305.56381     -389.26441      24616.57       25050.365      5628.0042      19422.361      2508.3337      6566.6745     -1876.6814      217.91282     -260.91266      43051.304     -30784.271     -513.65043      76412.336      42.434702      42.434702      42.434702      1.0882883     -1171.3621      530.8919      -527.323      
    497500   497500         298.12845     -1464.152       23337.305      24966.997      5491.0565      19475.941      2602.0173      6605.172      -1913.8311      207.1088      -274.31634      43031.704     -30781.914     -514.26563      76320.926      42.417774      42.417774      42.417774      1.0895917     -1125.9621     -2677.4412     -589.05264    
    497600   497600         304.71302     -519.90334      24337.067      24914.834      5612.3341      19302.5        2372.1965      6681.9003     -1940.8416      186.26526     -282.7571       43065.237     -30779.501     -515.08301      76199.814      42.395325      42.395325      42.395325      1.0913235      123.85769     -2203.1283      519.56061    
    497700   497700         300.30551     -604.84444      24178.268      24849.642      5531.1546      19318.487      2508.0361      6591.7325     -1966.8844      196.70251     -284.29927      43050.391     -30777.192     -515.68765      76110.469      42.378749      42.378749      42.378749      1.0926046     -103.43955      6.7688107     -1717.8626    
    497800   497800         295.6224      -604.95125      24159.851      24830.022      5444.899       19385.123      2544.8193      6525.2511     -1932.8167      208.12967     -213.56208      43034.827     -30781.525     -516.70349      75960.837      42.350959      42.350959      42.350959      1.0947569     -1832.0394      74.395466     -57.20987     
    497900   497900         300.11727     -962.71209      23895.089      24961.682      5527.6874      19433.995      2461.8029      6684.3037     -1942.3341      234.91289     -271.4292       43050.372     -30783.633     -516.65973      75967.27       42.352154      42.352154      42.352154      1.0946642     -549.64208     -1440.3714     -898.12281    
    498000   498000         307.02906     -1103.3023      23811.569      25035.151      5654.9917      19380.159      2488.237       6584.9607     -1911.7375      218.45664     -298.23597      43073.605     -30775.127     -516.1412       76043.589      42.366332      42.366332      42.366332      1.0935656      26.710842     -566.92694     -2769.6909    
    498100   498100         300.47334     -762.25764      24095.377      24941.141      5534.2459      19406.896      2519.9978      6612.8121     -1918.8316      206.64847     -285.1079       43059.254     -30787.877     -515.89272      76080.215      42.373133      42.373133      42.373133      1.0930391     -946.1656      -1329.7444     -10.862902    
    498200   498200         301.18185     -354.36781      24461.984      24854.818      5547.2953      19307.523      2435.1216      6620.6533     -1927.1678      208.19101     -302.81429      43054.498     -30780.959     -516.35895      76011.522      42.360376      42.360376      42.360376      1.0940269      32.722874     -653.39761     -442.4287     
    498300   498300         298.5842      -239.95045      24572.968      24838.464      5499.4508      19339.013      2375.2358      6584.1429     -1922.0697      217.84352     -191.90957      43053.78      -30778.01      -517.33428      75868.217      42.333739      42.333739      42.333739      1.0960934      134.75864     -1153.6634      299.05338    
    498400   498400         300.07582     -747.81448      24036.825      24865.597      5526.9241      19338.673      2489.7053      6561.3732     -1948.3446      204.72611     -225.4406       43035.688     -30779.034     -516.49434      75991.595      42.356674      42.356674      42.356674      1.0943138      149.64249     -989.67236     -1403.4136    
    498500   498500         303.34531      192.16032      25239.133      25025.342      5587.143       19438.199      2502.4567      6649.47       -1980.917       207.85997     -208.08923      43050.866     -30783.447     -514.49596      76286.759      42.411444      42.411444      42.411444      1.0900797      322.6713       171.76737      82.042279    
    498600   498600         301.47476     -1288.0891      23643.22       25083.258      5552.6903      19530.568      2528.5661      6664.4203     -1909.3798      209.38187     -234.81327      43052.269     -30779.876     -512.0104       76657.093      42.479962      42.479962      42.479962      1.0848135     -1416.545      -157.13788     -2290.5846    
    498700   498700         303.91526     -3202.861       21440.689      25029.035      5597.6406      19431.395      2540.513       6664.8422     -1904.1572      207.87776     -340.66512      43043.051     -30780.067     -510.91748      76821.074      42.51023       42.51023       42.51023       1.0824979     -2877.546      -4260.9962     -2470.0407    
    498800   498800         297.65431     -472.21831      24408.862      24935.749      5482.3236      19453.426      2464.2331      6641.5347     -1905.5312      199.02214     -242.60221      43071.166     -30774.397     -513.01799      76506.536      42.452133      42.452133      42.452133      1.0869483     -459.68564     -765.92995     -191.03935    
    498900   498900         299.52567     -141.87794      24773.839      24931.316      5516.7911      19414.525      2472.2389      6662.6238     -1943.5025      208.34988     -247.20309      43047.141     -30785.122     -515.70848      76107.395      42.378179      42.378179      42.378179      1.0926488      1258.7404     -279.5645      -1404.8097    
    499000   499000         301.63231     -1656.3711      23082.231      24913.001      5555.5922      19357.409      2477.5901      6598.6383     -1894.3714      205.88378     -304.236        43046.072     -30772.168     -517.88216      75787.953      42.318805      42.318805      42.318805      1.0972542     -900.93381     -2666.2342     -1401.9453    
    499100   499100         300.21302     -1051.3102      23714.095      24872.229      5529.451       19342.778      2488.7399      6633.8047     -1922.4257      193.38035     -318.57091      43047.528     -30779.678     -519.6117       75535.692      42.2718        42.2718        42.2718        1.1009186     -1651.321      -85.045841     -1417.5637    
    499200   499200         295.62389     -893.88505      23748.841      24732.674      5444.9264      19287.747      2449.611       6645.1127     -1930.1448      214.874       -369.71892      43058.487     -30780.473     -520.07654      75468.179      42.259202      42.259202      42.259202      1.1019035     -940.08612     -1030.9549     -710.61412    
    499300   499300         294.14758     -286.10691      24390.734      24705.675      5417.7352      19287.939      2494.8665      6628.1926     -2000.1781      189.89804     -288.27879      43042.65      -30779.211     -520.00408      75478.694      42.261164      42.261164      42.261164      1.10175       -59.712777     -435.81607     -362.79187    
    499400   499400         298.52182     -1016.9615      23705.911      24828.695      5498.3019      19330.394      2498.3489      6574.3207     -1889.3235      194.66227     -308.48243      43037.648     -30776.781     -518.45994      75703.495      42.303079      42.303079      42.303079      1.0984784     -1169.0972     -1081.6396     -800.14774    
    499500   499500         300.66735     -1207.7835      23546.399      24885.531      5537.8191      19347.712      2532.2571      6630.4051     -1967.4232      210.70448     -338.42034      43056.912     -30776.724     -516.26505      76025.346      42.362944      42.362944      42.362944      1.093828      -1411.6146     -1555.1567     -656.57917    
    499600   499600         301.96868     -154.92273      24741.795      24914.002      5561.7875      19352.215      2492.4374      6569.3162     -1936.783       200.39901     -261.2841       43066.439     -30778.31      -514.95542      76218.694      42.398826      42.398826      42.398826      1.0910532     -703.81335     -641.81023      880.85538    
    499700   499700         297.90904     -1454.247       23333.452      24954.599      5487.0153      19467.583      2558.7996      6640.027      -1932.2254      203.03078     -252.0759       43030.166     -30780.138     -513.47931      76437.801      42.439416      42.439416      42.439416      1.0879257     -1090.833      -1125.1355     -2146.7727    
    499800   499800         306.73852     -1630.2803      23228.809      25047.888      5649.6406      19398.247      2536.1566      6549.0084     -1925.8408      212.99572     -237.19613      43044.222     -30781.098     -513.00046      76509.15       42.452616      42.452616      42.452616      1.0869112     -842.35074     -2083.2893     -1965.201     
    499900   499900         309.43617     -765.40976      24263.341      25116.946      5699.3271      19417.619      2523.5121      6619.0543     -1944.5265      205.23289     -234.73735      43026.257     -30777.173     -513.26762      76469.326      42.445249      42.445249      42.445249      1.0874772     -968.55759     -851.74931     -475.92239    
    500000   500000         303.84576     -1487.5467      23309.88       24967.521      5596.3604      19371.161      2551.8478      6634.2542     -1924.8423      193.18038     -336.549        43030.244     -30776.974     -513.67341      76408.917      42.434069      42.434069      42.434069      1.088337      -732.89103     -1712.9888     -2016.7603    
Loop time of 2829.41 on 1 procs for 500000 steps with 7520 atoms

Performance: 15.268 ns/day, 1.572 hours/ns, 176.715 timesteps/s, 1.329 Matom-step/s
100.0% CPU use with 1 MPI tasks x 1 OpenMP threads

MPI task timing breakdown:
Section |  min time  |  avg time  |  max time  |%varavg| %total
---------------------------------------------------------------
Pair    | 1112.3     | 1112.3     | 1112.3     |   0.0 | 39.31
Bond    | 366.06     | 366.06     | 366.06     |   0.0 | 12.94
Kspace  | 664.79     | 664.79     | 664.79     |   0.0 | 23.50
Neigh   | 228.59     | 228.59     | 228.59     |   0.0 |  8.08
Comm    | 19.026     | 19.026     | 19.026     |   0.0 |  0.67
Output  | 9.5005     | 9.5005     | 9.5005     |   0.0 |  0.34
Modify  | 294.41     | 294.41     | 294.41     |   0.0 | 10.41
Other   |            | 134.7      |            |       |  4.76

Nlocal:           7520 ave        7520 max        7520 min
Histogram: 1 0 0 0 0 0 0 0 0 0
Nghost:          19932 ave       19932 max       19932 min
Histogram: 1 0 0 0 0 0 0 0 0 0
Neighs:              0 ave           0 max           0 min
Histogram: 1 0 0 0 0 0 0 0 0 0
FullNghs:  4.71327e+06 ave 4.71327e+06 max 4.71327e+06 min
Histogram: 1 0 0 0 0 0 0 0 0 0

Total # of neighbors = 4713266
Ave neighs/atom = 626.7641
Ave special neighs/atom = 5.7207447
Neighbor list builds = 17752
Dangerous builds = 0

# --- Cleanup ---
unfix npt_fix
unfix shake_fix
undump dump_npt

# --- Write Output ---
write_dump all custom /home/arz2/PolyJarvis/data/PMMA2/lammps/mechanical/bm_series/bm_P-1000/bm_P-1000_last.dump id type mol x y z xu yu zu vx vy vz modify sort id
write_data /home/arz2/PolyJarvis/data/PMMA2/lammps/mechanical/bm_series/bm_P-1000/bm_P-1000_out.data
System init for write_data ...
PPPM Kokkos initialization ...
  using 12-bit tables for long-range coulomb
  G vector (1/distance) = 0.33222719
  grid = 45 45 45
  stencil order = 5
  estimated absolute RMS force accuracy = 0.00029828972
  estimated relative force accuracy = 8.9829063e-07
  using double precision cuFFT
  3d grid and FFT values/proc = 140608 91125
Generated 15 of 15 mixed pair_coeff terms from sixthpower/sixthpower mixing rule

print "STAGE COMPLETE: NPT T=300.0->300.0K P=-1000.0->-1000.0atm steps=500000"
STAGE COMPLETE: NPT T=300.0->300.0K P=-1000.0->-1000.0atm steps=500000
quit
