LAMMPS data file via write_data, version 22 Jul 2025, timestep = 1000000, units = real

10816 atoms
8 atom types
11608 bonds
10 bond types
19600 angles
16 angle types
29184 dihedrals
19 dihedral types
8000 impropers
11 improper types

4.928644881885731 56.96399690809851 xlo xhi
4.928644881885731 56.96399690809851 ylo yhi
4.928644881885731 56.96399690809851 zlo zhi

Masses

1 12.01115
2 12.01115
3 1.00797
4 1.00797
5 15.9994
6 15.9994
7 15.9994
8 32.064

Pair Coeffs # lj/class2/coul/long/kk

1 0.054 4.01
2 0.064 4.01
3 0.02 2.995
4 0.013 1.098
5 0.06 3.535
6 0.24 3.535
7 0.24 3.535
8 0.25 4.027

Bond Coeffs # class2/kk

1 1.53 299.67 -501.77 679.81
2 1.501 321.902 -521.821 572.163
3 1.101 345 -691.89 844.6
4 1.417 470.836 -627.618 1327.63
5 1.0982 372.825 -803.453 894.317
6 1.3768 428.88 -738.235 1114.97
7 1.3768 428.88 -738.235 1114.97
8 1.72 239.802 0 0
9 0.965 532.506 -1282.9 2004.77
10 1.4308 743.76 0 0

Angle Coeffs # class2/kk

1 112.67 39.516 -7.443 -9.5583
2 108.4 43.9594 -8.3924 -9.3379
3 110.77 41.453 -10.604 5.129
4 120.05 44.7148 -22.7352 0
5 111 44.3234 -9.4454 0
6 118.9 61.0226 -34.9931 0
7 117.94 35.1558 -12.4682 0
8 123.42 73.6781 -21.6787 0
9 123.42 73.6781 -21.6787 0
10 120 60 0 0
11 109.5 60 0 0
12 108.19 53.125 -8.5016 0
13 102 58 0 0
14 113.1 42.3 0 0
15 107.66 39.641 -12.921 -2.4318
16 119.329 135 0 0

BondBond Coeffs

1 0 1.53 1.53
2 0 1.53 1.501
3 3.3872 1.53 1.101
4 12.0676 1.501 1.417
5 0 1.501 1.501
6 68.2856 1.417 1.417
7 1.0795 1.417 1.0982
8 48.4754 1.417 1.3768
9 48.4754 1.417 1.3768
10 0 1.417 1.72
11 0 1.3768 1.3768
12 20.6577 1.3768 0.965
13 0 1.72 1.72
14 0 1.72 1.4308
15 5.3316 1.101 1.101
16 40 1.4308 1.4308

BondAngle Coeffs

1 8.016 8.016 1.53 1.53
2 0 0 1.53 1.501
3 20.754 11.421 1.53 1.101
4 47.0579 31.0771 1.501 1.417
5 0 0 1.501 1.501
6 28.8708 28.8708 1.417 1.417
7 20.0033 24.2183 1.417 1.0982
8 58.479 107.681 1.417 1.3768
9 58.479 107.681 1.417 1.3768
10 0 0 1.417 1.72
11 0 0 1.3768 1.3768
12 53.8614 23.9224 1.3768 0.965
13 0 0 1.72 1.72
14 0 0 1.72 1.4308
15 18.103 18.103 1.101 1.101
16 0 0 1.4308 1.4308

Dihedral Coeffs # class2/kk

1 0 0 0.0316 0 -0.1681 0
2 -0.2802 0 -0.0678 0 -0.0122 0
3 0 0 4.4072 0 0 0
4 0 0 1.559 0 0 0
5 -0.0228 0 0.028 0 -0.1863 0
6 -0.2802 0 -0.0678 0 -0.0122 0
7 8.3667 0 1.1932 0 0 0
8 0 0 3.9661 0 0 0
9 0 0 4.8498 0 0 0
10 0 0 4.8498 0 0 0
11 0 0 3 0 0 0
12 0 0 1.8 0 0 0
13 -0.69 0 0.5097 0 0.0095 0
14 0 0 1.5 0 0 0
15 0 0 1.5 0 0 0
16 0 0 1.8769 0 0 0
17 0 0 1.7234 0 0 0
18 0 0 1.7234 0 0 0
19 0 0 3 0 0 0

AngleAngleTorsion Coeffs

1 -16.164 112.67 110.77
2 0 108.4 120.05
3 -14.4097 120.05 118.9
4 4.4444 120.05 117.94
5 0 108.4 110.77
6 0 111 120.05
7 0 118.9 118.9
8 -4.8141 118.9 117.94
9 -21.0247 118.9 123.42
10 -21.0247 118.9 123.42
11 0 118.9 120
12 0 123.42 109.5
13 -4.6072 123.42 108.19
14 0 120 102
15 0 120 113.1
16 0.3598 117.94 117.94
17 4.2296 117.94 123.42
18 4.2296 117.94 123.42
19 0 117.94 120

EndBondTorsion Coeffs

1 0.2486 0.2422 -0.0925 0.0814 0.0591 0.2219 1.53 1.101
2 0 0 0 0 0 0 1.53 1.417
3 0 0.2421 0 0 -0.6918 0 1.501 1.417
4 0 -1.797 0 0 -0.4879 0 1.501 1.0982
5 0 0 0 0 0 0 1.501 1.101
6 0 0 0 0 0 0 1.501 1.417
7 -0.1185 6.3204 0 -0.1185 6.3204 0 1.417 1.417
8 0 -6.8958 0 0 -0.4669 0 1.417 1.0982
9 0 0.2655 0 0 4.8905 0 1.417 1.3768
10 0 0.2655 0 0 4.8905 0 1.417 1.3768
11 0 0 0 0 0 0 1.417 1.72
12 0 0 0 0 0 0 1.417 1.3768
13 0.9 -1.3456 1.19 3.4132 0.5873 -0.1323 1.417 0.965
14 0 0 0 0 0 0 1.417 1.72
15 0 0 0 0 0 0 1.417 1.4308
16 0 -0.689 0 0 -0.689 0 1.0982 1.0982
17 0 -1.5867 0 0 4.2641 0 1.0982 1.3768
18 0 -1.5867 0 0 4.2641 0 1.0982 1.3768
19 0 0 0 0 0 0 1.0982 1.72

MiddleBondTorsion Coeffs

1 -14.879 -3.6581 -0.3138 1.53
2 0 0 0 1.501
3 0 9.1792 0 1.417
4 0 3.9421 0 1.417
5 0 0 0 1.53
6 0 0 0 1.501
7 27.5989 -2.312 0 1.417
8 0 -1.1521 0 1.417
9 0 4.8255 0 1.417
10 0 4.8255 0 1.417
11 0 0 0 1.417
12 0 0 0 1.3768
13 1.158 3.2697 3.5132 1.3768
14 0 0 0 1.72
15 0 0 0 1.72
16 0 4.8228 0 1.417
17 0 5.5432 0 1.417
18 0 5.5432 0 1.417
19 0 0 0 1.417

BondBond13 Coeffs

1 0 1.53 1.101
2 0 1.53 1.417
3 2.5085 1.501 1.417
4 0.8743 1.501 1.0982
5 0 1.501 1.101
6 0 1.501 1.417
7 53 1.417 1.417
8 -6.2741 1.417 1.0982
9 -2.2436 1.417 1.3768
10 -2.2436 1.417 1.3768
11 0 1.417 1.72
12 0 1.417 1.3768
13 1.159 1.417 0.965
14 0 1.417 1.72
15 0 1.417 1.4308
16 -1.7077 1.0982 1.0982
17 2.0517 1.0982 1.3768
18 2.0517 1.0982 1.3768
19 0 1.0982 1.72

AngleTorsion Coeffs

1 -0.2454 0 -0.1136 0.3113 0.4516 -0.1988 112.67 110.77
2 0 0 0 0 0 0 108.4 120.05
3 0 -4.4683 0 0 3.8987 0 120.05 118.9
4 0 -0.1242 0 0 3.4601 0 120.05 117.94
5 0 0 0 0 0 0 108.4 110.77
6 0 0 0 0 0 0 111 120.05
7 1.9767 1.0239 0 1.9767 1.0239 0 118.9 118.9
8 0 2.5014 0 0 2.7147 0 118.9 117.94
9 0 10.0155 0 0 1.7404 0 118.9 123.42
10 0 10.0155 0 0 1.7404 0 118.9 123.42
11 0 0 0 0 0 0 118.9 120
12 0 0 0 0 0 0 123.42 109.5
13 -5.136 -1.0122 0 4.6852 0.023 -0.598 123.42 108.19
14 0 0 0 0 0 0 120 102
15 0 0 0 0 0 0 120 113.1
16 0 2.4501 0 0 2.4501 0 117.94 117.94
17 0 1.8729 0 0 2.5706 0 117.94 123.42
18 0 1.8729 0 0 2.5706 0 117.94 123.42
19 0 0 0 0 0 0 117.94 120

Improper Coeffs # class2/kk

1 0 0
2 0 0
3 0 0
4 0 0
5 7.8153 0
6 4.8912 0
7 13.0421 0
8 13.0421 0
9 0 0
10 0 0
11 0 0

AngleAngle Coeffs

1 0 0 0 112.67 108.4 108.4
2 0 0 0 108.4 108.4 111
3 0.2738 -0.4825 0.2738 110.77 110.77 107.66
4 -0.3157 -0.3157 -0.3157 107.66 107.66 107.66
5 0 0 0 120.05 120.05 118.9
6 0 0 0 118.9 117.94 117.94
7 0 0 0 118.9 123.42 123.42
8 0 0 0 118.9 123.42 123.42
9 0 0 0 118.9 120 120
10 0 0 0 102 113.1 113.1
11 0 0 0 113.1 113.1 119.329

Atoms # full/kk

9435 7 2 -0.1268 6.038748541794364 6.693909680780962 9.663348305542659 1 1 0
9452 7 3 0.1268 6.332220220206459 6.726912635588987 6.252999747426014 1 1 0
9453 7 2 -0.1268 5.133644445498635 5.3198072726174335 7.441089340784028 1 1 0
9438 7 8 0.0822 8.119809354531201 7.700606259863887 8.39377566995957 1 1 0
9451 7 2 -0.1268 5.935457560961432 6.392174051483964 7.2786496553097715 1 1 0
9437 7 2 0.0732 6.513624214645375 7.056681585232841 8.41224723692678 1 1 0
9433 7 2 -0.1268 5.034807969717747 5.74125987390658 9.722326104667685 1 1 0
9443 7 3 0.1268 7.898989773460347 10.026027133252738 6.591634971191505 1 1 0
9441 7 2 0.0732 7.901669508566733 9.334238772001044 8.634581683005244 1 1 0
9442 7 2 -0.1268 7.718904931830426 10.327858480200828 7.6289057347730065 1 1 0
9439 7 5 -0.1143 8.753866013480366 7.73283612127889 7.107049177790583 1 1 0
7110 6 3 0.1268 6.202118596606681 9.365839779833403 5.132956177783337 1 1 1
5797 5 3 0.053 10.291607813661695 55.42449783960175 6.972909573960406 1 -1 0
7138 6 3 0.1268 15.505775394127967 9.363969000309613 6.847460690732921 1 1 1
7137 6 2 -0.1268 15.546683837911578 9.917849124497844 5.8929480817986155 1 1 1
58 1 3 0.1268 13.900194209742137 9.223392294456739 8.532968794843283 0 0 0
7021 6 2 -0.1268 16.98172598800697 6.104065494868866 7.342237817348925 1 1 1
6999 6 6 -0.053 15.535665636279028 5.561213299310629 5.419185436793904 1 1 1
7019 6 2 -0.1268 17.131305747192606 5.99304403503223 8.69965939329146 1 1 1
7022 6 3 0.1268 17.56457198462154 6.854407714476383 6.737190044943002 1 1 1
7000 6 2 0.0265 16.024826158288498 5.3099979613237505 6.699081985603408 1 1 1
57 1 2 -0.1268 14.310629689922623 10.172784341904816 9.002245415635473 0 0 0
59 1 2 -0.1268 15.58535787103963 10.019408156286472 9.54015500109567 0 0 0
60 1 3 0.1268 15.8501581934568 8.879607948988935 9.655305590093127 0 0 0
6073 5 2 0 21.658039558575055 56.38240453502871 6.840363337856978 1 -1 0
6064 5 1 0 22.6500297511777 5.495688188134642 7.276986319031976 1 0 0
68 1 3 0.053 17.988248777641367 9.518797619877347 8.75848941871241 0 0 0
6070 5 3 0.053 21.800981131504358 5.774228301459143 9.45684197609698 1 0 0
6071 5 3 0.053 21.17208873370663 6.731954153981025 8.440316893083006 1 0 0
6069 5 1 -0.159 22.15075551643604 6.259103750386095 8.510661589618897 1 0 0
6072 5 3 0.053 22.8309925616751 7.185030147657419 8.903802567023714 1 0 0
70 1 3 0.053 19.28498610490517 9.55541746351352 10.092492230351654 0 0 0
6107 5 2 -0.1268 22.315924415867972 7.81570504371769 6.09698630319719 1 0 0
6063 5 2 0 22.861619412742076 6.551472988307681 6.145350808822759 1 0 0
6109 5 2 -0.1268 22.47671946725967 8.752384343314455 5.072557083323404 1 0 0
6108 5 3 0.1268 21.487741018014344 7.8544217174524 6.8151542552400795 1 0 0
6110 5 3 0.1268 22.150720306623906 9.794651201756263 5.241940378725619 1 0 0
6077 5 3 0.1268 18.3195807254764 55.456620230912904 7.359727536318215 1 -1 0
6074 5 2 -0.1268 20.278690560915436 56.48666399681887 7.174190507025929 1 -1 0
7020 6 3 0.1268 17.899823263766073 6.64152279492262 9.365322644750862 1 1 1
6075 5 3 0.1268 19.94631525562348 5.380111261651281 7.600764075590058 1 0 0
67 1 1 -0.159 18.25396823719457 9.674751508587562 9.864130027385798 0 0 0
69 1 3 0.053 17.648019445602205 8.844386278893797 10.383497404240284 0 0 0
8460 7 2 0.0265 27.565494956244333 4.9394684019591075 10.172578750578968 0 1 0
8481 7 2 -0.1268 27.670073679632853 5.824100022325375 11.28749756437014 0 1 0
6061 5 2 -0.1268 23.896341564052015 6.371592967060412 5.093792926427067 1 0 0
6062 5 3 0.1268 24.331309235881164 5.364059530037844 5.116578841584371 1 0 0
6065 5 1 -0.159 23.936758310041583 56.86307130881278 7.641218558972426 1 -1 0
6067 5 3 0.053 24.74481046804203 5.516418303043601 7.906044619675253 1 0 0
8479 7 2 -0.1268 26.95154967452362 6.980480871714439 11.03215152812483 0 1 0
6068 5 3 0.053 24.32653474424385 56.10957644705354 6.991674977437423 1 -1 0
8464 7 3 0.1268 26.228326924486144 6.952070862364462 7.713699504076918 0 1 0
8468 7 5 -0.1143 25.60604011267678 9.337051834216105 8.424578534334016 0 1 0
8466 7 8 0.0822 26.03449810547034 9.163941048601115 9.736160833032713 0 1 0
8463 7 2 -0.1268 26.671649320969138 6.666210605044875 8.673238261935929 0 1 0
8465 7 2 0.0732 26.63277210753326 7.511458734728718 9.780116111872498 0 1 0
8467 7 5 -0.1143 25.063558781291427 9.41936311326545 10.779208459175809 0 1 0
5355 4 2 -0.1268 31.83462350227454 7.951546356124419 12.116359195504526 0 1 1
5358 4 3 0.1268 30.76286096463346 8.137338428679152 10.384619290500082 0 1 1
5357 4 2 -0.1268 31.775121352538147 8.111018188442511 10.748791749665502 0 1 1
5405 4 2 -0.1268 34.27268938190352 7.761173647282037 12.05251569653019 0 1 1
8461 7 2 -0.1268 27.08804878323618 5.309046219943667 8.881893176527823 0 1 0
8462 7 3 0.1268 27.065251508452974 56.645677113185776 7.96042591221398 0 0 0
5364 4 3 0.053 30.744570086571674 8.408307480682856 8.130901332691629 0 1 1
5359 4 2 0 32.941902524351946 8.149761024071971 9.984190368138167 0 1 1
5363 4 3 0.053 31.86998906815634 8.771846241879363 6.658574155201858 0 1 1
5361 4 1 -0.159 31.73718219280875 8.884071262570519 7.829594214037533 0 1 1
5362 4 3 0.053 31.811309293612233 10.049375133959622 7.890445458274336 0 1 1
5360 4 1 0 32.91933861415757 8.132909160763308 8.422115852827085 0 1 1
5365 4 1 -0.159 34.251876352461316 8.684834791667505 7.752384515133342 0 1 1
5403 4 2 -0.1268 34.0544158342715 7.994298797890975 10.708304504037393 0 1 1
5367 4 3 0.053 34.516179624968544 9.644468994870955 8.295585533241754 0 1 1
5366 4 3 0.053 34.089613852989864 8.93498028206405 6.649552395966686 0 1 1
5368 4 3 0.053 35.10617687300708 7.9696121927491115 7.735612175460704 0 1 1
5490 5 3 0.1268 36.120685412914874 6.354151253137451 9.444903741163506 0 0 0
5492 5 8 0.0822 37.75392355301353 6.061963926172263 11.520578085723363 0 0 0
5493 5 5 -0.1143 37.19757264270213 7.31761273755702 11.174067409203042 0 0 0
914 1 3 0.1268 35.941145917089116 11.192041311438281 7.20501923158901 0 1 1
912 1 3 0.1268 36.433619417304925 10.773771121435445 9.63882479602866 0 1 1
5497 5 3 0.1268 38.358674965553845 7.473357174918518 8.903118743311763 0 0 0
5503 5 2 -0.1268 40.06866157737272 5.115157143436287 10.642829062453425 0 0 0
5501 5 2 -0.1268 40.8513066105763 56.67807013221017 9.617886914341865 0 -1 0
5500 5 2 0.0265 40.83058199858847 5.326270290676808 8.398533448309482 0 0 0
5517 5 6 -0.053 41.71101160923145 56.78111007887181 7.538864466229034 0 -1 0
5520 5 3 0.1268 39.78786768376465 4.963660613751877 5.621838112635111 0 0 0
5518 5 2 0.0265 41.81914614733564 5.2441497950315865 6.213293922662576 0 0 0
5495 5 2 0.0732 39.056036408588035 6.034796394902715 10.453807789803303 0 0 0
7580 6 3 0.053 39.68992592686473 10.360878627083354 5.216765319988543 0 0 2
5496 5 2 -0.1268 39.195585369579334 6.820284597039905 9.173490974956861 0 0 0
1718 2 3 0.1268 44.87601573238241 6.6419765190290505 9.795423298854075 0 0 0
7582 6 3 0.053 41.31618143420827 9.821273828605467 5.908394773146584 0 0 2
7584 6 3 0.053 43.09436441246095 11.268235592308365 6.207132054778203 0 0 2
1708 2 5 -0.1143 44.57939594581046 9.598583866635503 10.71401833948669 0 0 0
5498 5 2 -0.1268 39.97288898456946 6.431027555853806 8.068241546757145 0 0 0
5499 5 3 0.1268 39.81133716521448 6.906520935740897 7.004968014239205 0 0 0
7579 6 1 -0.159 40.84433613813853 10.372391850197253 5.1028951605512205 0 0 2
1706 2 8 0.0822 45.798470290762616 9.013068127671865 11.003675843919266 0 0 0
1717 2 2 -0.1268 44.9727359009568 6.369705411300175 10.844858479959067 0 0 0
5570 5 3 0.1268 43.82327655853491 5.920566578692594 6.329527739239644 0 0 0
1720 2 3 0.1268 48.47146151664691 7.341293301108545 10.664812551588152 0 0 0
1705 2 2 0.0732 46.9439174368409 8.606842923957018 9.679607152165763 0 0 0
1719 2 2 -0.1268 48.050806783568326 7.817617483293396 9.76014919543228 0 0 0
1722 2 3 0.1268 50.035428173393605 7.249609757683004 8.685971975147188 0 0 0
1721 2 2 -0.1268 48.93447357961135 7.623322878277543 8.733624402770005 0 0 0
1701 2 2 -0.1268 47.50497337870047 9.05596863602535 7.300772479496104 0 0 0
1703 2 2 -0.1268 46.72485579095861 9.28140326320355 8.450619350396996 0 0 0
1700 2 2 0.0265 48.66424501001439 8.261664137566187 7.472203467034642 0 0 0
1699 2 6 -0.053 49.56796494997243 8.096865162962422 6.441018726286928 0 0 0
1724 2 3 0.1268 49.906463322996096 10.76577065071601 6.987612150211216 0 0 0
1698 2 2 0.0265 50.825918994784374 8.692102262774696 6.931685261014336 0 0 0
9432 7 2 0.0265 56.484509899422065 5.069730153787519 8.624202736757349 0 1 0
9454 7 3 0.1268 56.865466525303034 56.71103314854547 6.621738214404532 0 0 0
1687 2 3 0.053 55.70650211932621 9.183569891145133 8.549805423385449 0 0 0
7123 6 2 -0.1268 53.607077134776304 5.879447498352415 56.41767847810113 0 1 0
9431 7 6 -0.053 55.44951114371894 56.168402864801685 8.676863710378477 0 0 0
9430 7 2 0.0265 54.319854022622614 56.4932905192992 9.396324993986575 0 0 0
1723 2 2 -0.1268 50.83333980896235 10.091394575629826 7.07827924466447 0 0 0
1696 2 2 -0.1268 51.94811703319892 7.9234621746621645 6.95837268167022 0 0 0
7124 6 3 0.1268 52.72791121574796 6.314439150555424 56.80167583197882 0 1 0
9457 7 2 -0.1268 52.75335702811586 6.119828520147912 10.170659648232537 0 1 0
9456 7 3 0.1268 53.953379362653564 6.370133940309417 8.519556032725996 0 1 0
9455 7 2 -0.1268 53.581984429381244 5.653973303649972 9.185255600159934 0 1 0
9458 7 3 0.1268 52.24897124195877 7.005719248810597 10.175042143444113 0 1 0
1697 2 3 0.1268 51.943328239693614 6.826489685944683 6.706321959816262 0 0 0
9449 7 2 -0.1268 7.78066368961222 9.912261082109971 9.950317840759704 1 1 0
9446 7 2 -0.1268 7.615422548720511 12.10793198031844 9.198954270401256 1 1 0
9464 7 3 0.1268 7.523216673379034 13.199871734356428 9.365767803267804 1 1 0
9444 7 2 -0.1268 7.424321249773021 11.69085618526308 7.900588561651315 1 1 0
9445 7 3 0.1268 7.287283451910794 12.278583901755868 7.001968309528676 1 1 0
9447 7 2 -0.1268 7.535859958109864 11.188740366001618 10.226162721893049 1 1 0
28 1 3 0.1268 8.637744461372215 15.378686548590679 56.261394855415055 0 0 -1
37 1 3 0.1268 10.53106839628143 12.39154861158525 7.4839576480164975 0 0 0
35 1 3 0.1268 10.026685102455936 14.627680942048231 6.14292428510031 0 0 0
34 1 2 -0.1268 10.92777866735117 14.159070839456511 6.160945769565593 0 0 0
9450 7 3 0.1268 7.868235847791988 9.208803301444398 10.867769660864834 1 1 0
9448 7 3 0.1268 7.829311403573019 11.62072998745153 11.206511454963804 1 1 0
30 1 8 0.0822 11.67738646706697 16.058317032755944 56.326351186464336 0 0 -1
33 1 2 0.0732 11.923624482881038 14.8523180557044 5.345352190874341 0 0 0
41 1 2 -0.1268 13.199458060522927 14.260083620591622 5.398497592662427 0 0 0
39 1 2 -0.1268 13.516627758800933 13.149363678986187 6.133657326114782 0 0 0
7086 6 2 0.0265 16.618471048067143 10.746903020613034 5.576505641353025 1 1 1
36 1 2 -0.1268 11.246739450120899 13.038421789009654 6.9555196179701335 0 0 0
38 1 2 0.0265 12.540763695327286 12.483823212496356 6.934615003775909 0 0 0
55 1 6 -0.053 12.841727416869215 11.415727375753615 7.694991554017138 0 0 0
56 1 2 0.0265 13.84401421859537 11.422889963893738 8.578146967500471 0 0 0
40 1 3 0.1268 14.554859509752067 12.668981898748882 5.858582227324076 0 0 0
42 1 3 0.1268 13.855822471549391 14.403487943426963 56.63115420904585 0 0 -1
7085 6 6 -0.053 17.61152401702968 10.992819159727715 6.573975108514704 1 1 1
7067 6 3 0.1268 17.300927225341457 13.739230549310617 5.952428335049528 1 1 1
107 1 2 -0.1268 14.696477731010749 12.545819246035691 8.898181964568828 0 0 0
108 1 3 0.1268 14.522242885419193 13.495238394714606 8.441906220628324 0 0 0
61 1 2 0 16.38271884976292 11.117864625079838 9.790931371913917 0 0 0
105 1 2 -0.1268 15.924691172726343 12.413901786642512 9.510346643801135 0 0 0
106 1 3 0.1268 16.628959638085107 13.333342346807829 9.857773387816804 0 0 0
7070 6 3 0.1268 20.153288642302236 10.430077759722057 6.323040174247824 1 1 1
7066 6 2 -0.1268 18.361630336124446 13.316925211188751 6.187547144409732 1 1 1
7064 6 2 -0.1268 19.499970646822383 14.230238717477413 5.926345576355521 1 1 1
7065 6 3 0.1268 19.094691908503794 15.198839024057888 5.680524154641979 1 1 1
7068 6 2 0.0265 18.600961652817027 11.913953845452848 6.477011980189255 1 1 1
7063 6 2 0.0732 20.823440113141253 13.699500349333595 5.988252576633729 1 1 1
7060 6 8 0.0822 22.117302373166545 14.570348291451555 5.503873138197445 1 1 1
7069 6 2 -0.1268 19.96759243320487 11.51457277739168 6.347656668715492 1 1 1
7071 6 2 -0.1268 21.018434138211585 12.338355574282351 6.204192230199632 1 1 1
7072 6 3 0.1268 22.073386239789333 11.989096761130476 6.265715157679109 1 1 1
64 1 3 0.053 18.68234469227609 12.057386782310104 8.994860951179772 0 0 0
7073 6 2 -0.1268 22.79290230691164 15.337500448583462 8.045619494635725 1 1 1
7059 6 2 0.0732 23.047529353182618 14.556737688479563 6.918276258813654 1 1 1
7075 6 2 -0.1268 23.396642095717326 15.133704175786052 9.277782056674875 1 1 1
62 1 1 0 17.836634183786497 10.919163997862452 10.495448851546382 0 0 0
63 1 1 -0.159 18.852227653282238 11.953526134839791 10.045140155182711 0 0 0
66 1 3 0.053 18.763785348961637 12.924429540771463 10.53685443204747 0 0 0
7061 6 5 -0.1143 22.964055355585796 13.901227019984074 56.641323897372956 1 1 0
7056 6 3 0.1268 25.419573975313657 12.537455975812648 8.432441412724868 1 1 1
7054 6 2 0.0265 24.256869516627848 14.129477611260223 9.412878698909394 1 1 1
7055 6 2 -0.1268 24.65936579887161 13.341757440044294 8.308601399555398 1 1 1
7057 6 2 -0.1268 24.00836979563053 13.551560866723001 7.122489362452791 1 1 1
366 1 3 0.1268 28.876014742920095 12.316224333909476 5.614743664788589 0 0 1
7058 6 3 0.1268 24.514371378395175 12.868125397945184 6.226027474038715 1 1 1
364 1 3 0.1268 29.403887236298743 13.951470462870711 7.097929306439299 0 0 1
8470 7 2 -0.1268 27.421341609752954 11.15030776237495 10.858703124514326 0 1 0
8469 7 2 0.0732 27.3065052370781 10.161559476988362 9.884606863135398 0 1 0
8477 7 2 -0.1268 28.22371050483754 10.183853116960334 8.865414776630368 0 1 0
363 1 2 -0.1268 29.421067842140747 14.338482709741495 6.024084483225473 0 0 1
362 1 2 0.0265 29.522826749052015 15.646465349834175 5.509721209674568 0 0 1
8478 7 3 0.1268 28.047334779199545 9.555364429458319 7.994390725136874 0 1 0
8472 7 2 -0.1268 28.489512616050646 12.026733211982371 10.975959001638348 0 1 0
8494 7 3 0.1268 28.27596405318552 14.571723116984405 9.324008189234771 0 1 0
8475 7 2 -0.1268 29.185992989030606 11.191418180816221 8.799089560965141 0 1 0
8543 7 2 -0.1268 31.044714468559643 14.755301162608248 11.152701727483969 0 1 0
8476 7 3 0.1268 29.729462336819484 11.39573657628494 7.841413671022206 0 1 0
8492 7 2 0.0265 30.088388369019107 14.256084316598075 10.238148776407423 0 1 0
875 1 3 0.053 33.43424136780165 14.859565238279488 6.566579609500101 0 1 1
874 1 3 0.053 33.37155793595678 13.988490301824001 5.004498265969977 0 1 1
379 1 6 -0.053 29.877835798429633 16.670089078135625 6.321955994952791 0 0 1
873 1 1 -0.159 33.51614885869902 13.863634474215681 6.051621264841983 0 1 1
8491 7 6 -0.053 30.317048728304044 12.979327312694462 9.794691202085431 0 1 0
8474 7 2 0.0265 29.360544182089132 12.03623448493329 9.890546782200417 0 1 0
8493 7 2 -0.1268 28.92555175162683 15.038702479054983 10.075774562293574 0 1 0
8544 7 3 0.1268 31.89067791389059 14.180847903123658 11.637811406288195 0 1 0
916 1 3 0.1268 33.17656228532104 11.071787757516407 5.503912138484536 0 1 1
878 1 3 0.053 35.50124569816617 15.509638421846764 6.283026576293986 0 1 1
872 1 1 0 34.94328967654517 13.330860096038721 6.149144365849008 0 1 1
883 1 3 0.1268 34.170561958927465 14.991136843355862 8.429419491726556 0 1 1
886 1 2 0.0265 35.5409039861973 12.532252404247094 10.341630653955772 0 1 1
881 1 2 0 35.0028270517238 13.044473799618293 7.618799302493443 0 1 1
882 1 2 -0.1268 34.58194049736464 13.903604763168296 8.659200865661983 0 1 1
884 1 2 -0.1268 34.80482315342075 13.626594968720367 10.04100986715561 0 1 1
885 1 3 0.1268 34.45759686006463 14.381747777745357 10.684620083452927 0 1 1
10808 8 3 0.1268 36.86439071189204 16.68996507247141 8.006055482400487 -1 1 0
913 1 2 -0.1268 35.713929267403955 11.925313259132933 8.007424005927916 0 1 1
890 1 3 0.1268 37.93374524855627 13.267139994460107 10.776677236894697 0 1 1
911 1 2 -0.1268 35.90669311084305 11.669508033426647 9.343431481502824 0 1 1
10810 8 3 0.1268 37.194789710508864 16.77448154847141 5.536871053098195 -1 1 0
5635 5 3 0.053 43.598667048078646 14.96998844933015 9.417469483135521 0 0 0
7620 6 3 0.1268 39.348723466383454 11.55530507429782 6.874684840879983 0 0 2
7578 6 1 0 41.39734795964084 11.764205471565221 56.906317129888926 0 0 1
7618 6 3 0.1268 38.62981962636472 13.316352885501217 8.372059216602903 0 0 2
7617 6 2 -0.1268 39.43549148871234 13.570488798660511 7.665086095905553 0 0 2
7619 6 2 -0.1268 39.72181376543891 12.581993107828804 6.780113118173058 0 0 2
7593 6 6 -0.053 39.98299540634034 15.622329927371894 8.76059770408631 0 0 2
7587 6 2 0 40.91297721089958 12.763478960182226 6.0033684344766005 0 0 2
7589 6 3 0.1268 42.39932252452956 14.128234468950483 5.053194814898743 0 0 2
7588 6 2 -0.1268 41.56470973303573 14.082906542290061 5.8546942220207026 0 0 2
7592 6 2 0.0265 40.24224588094237 14.753324014271406 7.787829804508573 0 0 2
7590 6 2 -0.1268 41.30288023250094 15.045360978935424 6.804364974547265 0 0 2
7591 6 3 0.1268 42.19246645225986 15.709762954065173 6.97257277356822 0 0 2
5633 5 1 -0.159 44.50615719565329 14.403846958944078 9.748978077184947 0 0 0
7585 6 3 0.053 43.60798442127204 12.17446149029378 56.69498789929704 0 0 1
7596 6 3 0.1268 39.479779954091995 16.908124013828278 6.267868634778993 0 0 2
5636 5 3 0.053 44.22014853317209 13.789082140814786 10.607851473232639 0 0 0
892 1 3 0.1268 40.2720974312158 11.997585357523436 10.777002269545505 0 1 1
7583 6 1 -0.159 42.93571701146745 11.433045758948868 5.165100622449664 0 0 2
5643 5 3 0.1268 46.39914224170461 14.005497812387143 11.924701046316432 0 0 0
5647 5 6 -0.053 50.48927843364346 13.347716075580326 9.939210059018402 0 0 0
3397 3 2 -0.1268 50.44878812567908 15.285236300950562 5.1080992039740964 0 0 0
1704 2 3 0.1268 45.713232102681076 9.795103270659478 8.448397135737784 0 0 0
1702 2 3 0.1268 47.59547165102459 9.809020173913485 6.433002782355705 0 0 0
5634 5 3 0.053 44.78487453132792 13.83135856345954 8.984030972373146 0 0 0
3396 3 3 0.1268 50.21769348816989 13.518364903543176 6.135629478240848 0 0 0
5644 5 2 -0.1268 48.405749282984665 13.588506979744613 10.958893070111937 0 0 0
5630 5 3 0.1268 46.249961962336656 15.106630931943602 7.472320635664818 0 0 0
5645 5 3 0.1268 48.42495192318373 12.697861712701123 11.54341109105542 0 0 0
5642 5 2 -0.1268 47.208875933343194 14.277833475467745 11.169495556911258 0 0 0
3384 3 5 -0.1143 48.13558417764245 12.164359977854655 6.356253021180753 0 0 0
5641 5 2 0 46.90490728199341 15.167417428955327 10.211316861042018 0 0 0
5646 5 2 0.0265 49.37277587891686 14.109812577977559 10.074036614043084 0 0 0
3395 3 2 -0.1268 49.74335757374116 14.124610792481963 5.384748047892528 0 0 0
1694 2 2 -0.1268 53.09728262940789 8.59316624385109 7.252155496939658 0 0 0
1693 2 2 0 53.14242660921619 9.99677911079366 7.5126245574963395 0 0 0
1692 2 3 0.053 55.67391301098925 9.43458987254464 6.178274455766364 0 0 0
1725 2 2 -0.1268 51.97718220562451 10.692642484096417 7.408867653144409 0 0 0
1686 2 3 0.053 54.98527916810909 10.351153816266592 9.676034914203402 0 0 0
1682 2 3 0.1268 54.12810045379971 12.617412752784414 9.653829363829221 0 0 0
1726 2 3 0.1268 51.92044059719477 11.783720273061693 7.4865281243026 0 0 0
1680 2 3 0.1268 54.430911074241756 15.066341932083345 9.634409018901387 0 0 0
1690 2 3 0.053 55.940437368444016 11.180647822526012 5.967934615480843 0 0 0
1688 2 3 0.053 56.33771218132437 10.809217472444846 8.54102461910878 0 0 0
1691 2 3 0.053 54.588707228913314 10.315957294846513 5.177022117235977 0 0 0
1729 2 2 -0.1268 53.971923813732346 14.544333316015614 6.424773183668835 0 0 0
1683 2 2 0 54.46303006293413 12.3709420553458 7.576798925462293 0 0 0
1684 2 1 0 54.387398094086336 10.852091307680524 7.490843281075569 0 0 0
1728 2 3 0.1268 54.00120086509347 12.752231318312901 5.3770204909686985 0 0 0
1681 2 2 -0.1268 54.19060696619544 13.09080452630135 8.720652548558665 0 0 0
1727 2 2 -0.1268 54.18729070695758 13.176101918381661 6.333984695576023 0 0 0
1679 2 2 -0.1268 54.35637252175428 14.480440160910817 8.650797687908058 0 0 0
1730 2 3 0.1268 53.757612574815866 15.058480913108253 5.449890435018883 0 0 0
1689 2 1 -0.159 55.22692092883087 10.423331197978493 6.115445380908139 0 0 0
1685 2 1 -0.159 55.34026693213471 10.240546310814413 8.653329341540873 0 0 0
1678 2 2 0.0265 54.26304541309825 15.219957034112525 7.565031083059404 0 0 0
1695 2 3 0.1268 54.064580472541344 8.041191324377685 6.9200627877242376 0 0 0
1645 2 6 -0.053 8.877756815248663 22.410333817157557 8.822436011670252 1 0 0
1651 2 2 0.0732 7.1544137341033505 20.305787225886746 5.695368253323565 1 0 0
6750 5 3 0.1268 8.816782823573378 16.841458760938394 7.155149452772501 1 0 0
6728 5 2 0.0265 8.639685613508314 16.2996979809243 9.167018281066747 1 0 0
1647 2 2 -0.1268 9.035610431613238 20.658618351697008 7.179536638920022 1 0 0
6749 5 2 -0.1268 9.270665359406463 16.81615833244023 8.111870325527821 1 0 0
1657 2 3 0.1268 6.595976876479117 16.727002573449766 5.52799285197771 1 0 0
6727 5 6 -0.053 7.302290259791371 15.879165965409712 9.189540172210839 1 0 0
6725 5 3 0.1268 8.062507857481691 18.67009363636344 10.073486818544316 1 0 0
1667 2 2 -0.1268 6.908177383280055 21.913815191107314 7.489337757824992 1 0 0
1665 2 2 -0.1268 6.367420895218644 21.194665873189813 6.400895352883831 1 0 0
6724 5 2 -0.1268 7.1224444201103765 18.133520551921073 10.405025171190546 1 0 0
6726 5 2 0.0265 6.620112309300843 16.78228220105543 9.942611983916446 1 0 0
1646 2 2 0.0265 8.281169779297572 21.683998783289642 7.856245855957927 1 0 0
1649 2 2 -0.1268 8.435884984492978 19.916350551709556 6.150463810363247 1 0 0
1650 2 3 0.1268 8.902290140309553 19.158295998821554 5.534667845883889 1 0 0
1648 2 3 0.1268 10.144191087267313 20.270543904058023 7.314417902783011 1 0 0
1656 2 2 -0.1268 5.641978148429579 17.217596722187388 5.7604436111350195 1 0 0
32 1 5 -0.1143 10.917405818372158 17.028810283032445 4.988215612426158 0 0 0
6747 5 2 -0.1268 10.638886306998332 16.946740257014245 8.170574993628746 1 0 0
6887 6 3 0.1268 13.121003673391236 21.711609179081496 56.51253760587302 1 0 0
6733 5 2 0.0732 11.418507187510157 16.8325390630581 9.41211215712658 1 0 0
6741 5 3 0.1268 12.855549066737218 21.836464310440938 7.614454157883441 1 0 0
6748 5 3 0.1268 11.108599096963982 17.37500364010855 7.258382587287885 1 0 0
6736 5 5 -0.1143 13.782966594306979 17.06905904951094 8.127677703578646 1 0 0
6738 5 2 -0.1268 13.118704812455823 19.846155543683764 8.419513636531207 1 0 0
6739 5 3 0.1268 13.000646663488093 19.455410682915225 7.323735654494428 1 0 0
10268 8 3 0.1268 17.922258461701603 16.682260414084332 5.014668789530222 0 1 0
7062 6 5 -0.1143 21.77618787967235 15.898559149031374 5.1440784160023805 1 1 1
7074 6 3 0.1268 22.51167221774536 16.424456130693592 7.850295988545006 1 1 1
7076 6 3 0.1268 23.477227761500767 15.911246019140147 10.132341805259694 1 1 1
10272 8 3 0.1268 15.839256506665667 21.28765962384143 7.436974207752639 0 1 0
10271 8 2 -0.1268 16.26874140896919 21.881717713408197 8.280558803852754 0 1 0
10231 8 3 0.053 16.51019593334594 18.677871454922496 8.876610905730853 0 1 0
10242 8 2 0.0265 18.35202769538506 18.785605143305588 56.294561451911314 0 1 -1
10240 8 2 -0.1268 18.24847498319302 20.103681804422784 56.55588534139394 0 1 -1
10267 8 2 -0.1268 18.167137137340273 17.72971032929065 5.18639376677047 0 1 0
10232 8 3 0.053 17.961229577066064 18.041205390376003 9.729369942999023 0 1 0
10270 8 3 0.1268 17.78078818086653 17.479874926515283 7.294813287892216 0 1 0
10235 8 3 0.053 20.018215856582053 18.99096972044057 8.769160209755356 0 1 0
10233 8 1 -0.159 19.658111806508245 19.97438146846479 8.887522487396483 0 1 0
10269 8 2 -0.1268 18.03962581530625 18.15574551997732 6.556643911132369 0 1 0
10227 8 2 0 17.475645645195357 21.34912137532719 8.841016338180406 0 1 0
10228 8 1 0 18.183433762823785 19.945794135743334 8.443056341824928 0 1 0
10239 8 3 0.1268 18.529726450167153 21.3816263776526 6.228290157726469 0 1 0
10237 8 2 0 18.08044601142518 19.531216078635687 6.933863741377443 0 1 0
10238 8 2 -0.1268 18.34966263611023 20.404384234709074 5.9124348335555235 0 1 0