LAMMPS data file via write_data, version 22 Jul 2025, timestep = 300000, units = real

2020 atoms
6 atom types
2010 bonds
7 bond types
3800 angles
12 angle types
4770 dihedrals
14 dihedral types
2400 impropers
11 improper types

-0.4631606556772532 30.609644755677298 xlo xhi
-0.4631606556772532 30.609644755677298 ylo yhi
-0.4631606556772532 30.609644755677298 zlo zhi

Masses

1 12.01115
2 12.01115
3 1.00797
4 1.00797
5 32.064
6 32.064

Pair Coeffs # lj/class2/coul/long/gpu

1 0.054 4.01
2 0.054 4.01
3 0.02 2.995
4 0.02 2.995
5 0.071 4.027
6 0.071 4.027

Bond Coeffs # class2

1 1.53 299.67 -501.77 679.81
2 1.101 345 -691.89 844.6
3 1.823 225.277 -327.706 488.972
4 1.101 345 -691.89 844.6
5 1.823 225.277 -327.706 488.972
6 1.823 225.277 -327.706 488.972
7 1.3261 275.112 -531.318 562.963

Angle Coeffs # class2

1 112.67 39.516 -7.443 -9.5583
2 110.77 41.453 -10.604 5.129
3 112.564 47.0276 -10.679 -10.1687
4 112.564 47.0276 -10.679 -10.1687
5 97.5 57.6938 -5.0559 -11.8206
6 110.77 41.453 -10.604 5.129
7 112.564 47.0276 -10.679 -10.1687
8 96.8479 56.7336 14.2713 0
9 107.66 39.641 -12.921 -2.4318
10 107.852 51.4949 -13.527 7.026
11 107.852 51.4949 -13.527 7.026
12 107.852 51.4949 -13.527 7.026

BondBond Coeffs

1 0 1.53 1.53
2 3.3872 1.53 1.101
3 10.9186 1.53 1.823
4 10.9186 1.53 1.823
5 -22.3144 1.823 1.823
6 3.3872 1.53 1.101
7 10.9186 1.53 1.823
8 -0.57 1.823 1.3261
9 5.3316 1.101 1.101
10 7.0463 1.101 1.823
11 7.0463 1.101 1.823
12 7.0463 1.101 1.823

BondAngle Coeffs

1 8.016 8.016 1.53 1.53
2 20.754 11.421 1.53 1.101
3 -3.5621 22.3865 1.53 1.823
4 -3.5621 22.3865 1.53 1.823
5 -13.0015 -13.0015 1.823 1.823
6 20.754 11.421 1.53 1.101
7 -3.5621 22.3865 1.53 1.823
8 10.7325 5.1221 1.823 1.3261
9 18.103 18.103 1.101 1.101
10 9.3225 44.9874 1.101 1.823
11 9.3225 44.9874 1.101 1.823
12 9.3225 44.9874 1.101 1.823

Dihedral Coeffs # class2

1 0 0 0.0316 0 -0.1681 0
2 -0.7017 0 0.0201 0 0.104 0
3 -0.4871 0 -0.4514 0 -0.1428 0
4 -0.5073 0 0.0155 0 -0.0671 0
5 -0.3338 0 -0.0684 0 -0.1706 0
6 -0.5073 0 0.0155 0 -0.0671 0
7 -0.3338 0 -0.0684 0 -0.1706 0
8 -0.1432 0 0.0617 0 -0.1083 0
9 -0.2078 0 -0.106 0 -0.3595 0
10 -0.2078 0 -0.106 0 -0.3595 0
11 -0.2078 0 -0.106 0 -0.3595 0
12 -0.5374 0 -0.5091 0 -0.1361 0
13 -1.2002 0 -1.2999 0 -0.1626 0
14 -1.2002 0 -1.2999 0 -0.1626 0

AngleAngleTorsion Coeffs

1 -16.164 112.67 110.77
2 -26.71 112.67 112.564
3 -28.1728 112.564 96.8479
4 -32.8949 112.564 97.5
5 -26.49 97.5 107.852
6 -32.8949 112.564 97.5
7 -26.49 97.5 107.852
8 -12.564 110.77 110.77
9 -13.1026 110.77 112.564
10 -13.1026 110.77 112.564
11 -13.1026 110.77 112.564
12 -18.6334 107.852 96.8479
13 -13.9674 112.564 112.564
14 -13.9674 112.564 112.564

EndBondTorsion Coeffs

1 0.2486 0.2422 -0.0925 0.0814 0.0591 0.2219 1.53 1.101
2 -0.1586 -0.7244 -0.2608 -0.7991 -0.959 0.5855 1.53 1.823
3 0.1026 0.0936 -0.0404 -0.3008 0.0606 0.4501 1.53 1.3261
4 -0.2542 -0.7984 -0.6525 -0.3047 -0.0109 -0.3763 1.53 1.823
5 0.2592 -0.0166 0.1306 -0.41 0.0668 0.4187 1.823 1.101
6 -0.2542 -0.7984 -0.6525 -0.3047 -0.0109 -0.3763 1.53 1.823
7 0.2592 -0.0166 0.1306 -0.41 0.0668 0.4187 1.823 1.101
8 0.213 0.312 0.0777 0.213 0.312 0.0777 1.101 1.101
9 -0.1526 -0.371 0.1048 1.0661 0.3298 0.425 1.101 1.823
10 -0.1526 -0.371 0.1048 1.0661 0.3298 0.425 1.101 1.823
11 -0.1526 -0.371 0.1048 1.0661 0.3298 0.425 1.101 1.823
12 0.4376 0.2001 -1.0696 0.2902 0.0695 0.1726 1.101 1.3261
13 -0.3252 0.5008 0.5191 -0.3252 0.5008 0.5191 1.823 1.823
14 -0.3252 0.5008 0.5191 -0.3252 0.5008 0.5191 1.823 1.823

MiddleBondTorsion Coeffs

1 -14.879 -3.6581 -0.3138 1.53
2 -4.2593 -5.6468 -3.3835 1.53
3 0.502 -1.0204 -0.9177 1.823
4 -2.5172 -2.0107 -2.8547 1.823
5 -0.6955 -2.9427 -1.2372 1.823
6 -2.5172 -2.0107 -2.8547 1.823
7 -0.6955 -2.9427 -1.2372 1.823
8 -14.261 -0.5322 -0.4864 1.53
9 -5.7537 -2.0104 0.2813 1.53
10 -5.7537 -2.0104 0.2813 1.53
11 -5.7537 -2.0104 0.2813 1.53
12 -0.3729 0.5373 -0.7035 1.823
13 1.7001 -3.3479 -0.8067 1.53
14 1.7001 -3.3479 -0.8067 1.53

BondBond13 Coeffs

1 0 1.53 1.101
2 0 1.53 1.823
3 0 1.53 1.3261
4 0 1.53 1.823
5 0 1.823 1.101
6 0 1.53 1.823
7 0 1.823 1.101
8 0 1.101 1.101
9 0 1.101 1.823
10 0 1.101 1.823
11 0 1.101 1.823
12 0 1.101 1.3261
13 0 1.823 1.823
14 0 1.823 1.823

AngleTorsion Coeffs

1 -0.2454 0 -0.1136 0.3113 0.4516 -0.1988 112.67 110.77
2 -2.0927 -0.1498 -1.7848 1.1179 0.3638 0.9423 112.67 112.564
3 -0.6045 3.8941 0.8885 1.0193 -0.6016 0.2097 112.564 96.8479
4 5.1289 2.0927 -2.4004 -4.5489 0.0886 0.6237 112.564 97.5
5 -1.0888 -0.2 -0.0909 0.5962 3.3479 0.2265 97.5 107.852
6 5.1289 2.0927 -2.4004 -4.5489 0.0886 0.6237 112.564 97.5
7 -1.0888 -0.2 -0.0909 0.5962 3.3479 0.2265 97.5 107.852
8 -0.8085 0.5569 -0.2466 -0.8085 0.5569 -0.2466 110.77 110.77
9 -2.0382 0.2102 -0.9023 0.3322 -0.0519 -0.3553 110.77 112.564
10 -2.0382 0.2102 -0.9023 0.3322 -0.0519 -0.3553 110.77 112.564
11 -2.0382 0.2102 -0.9023 0.3322 -0.0519 -0.3553 110.77 112.564
12 -2.2533 2.6948 -0.1723 1.434 -0.1915 -0.2611 107.852 96.8479
13 -5.0565 -0.6355 0.6015 -5.0565 -0.6355 0.6015 112.564 112.564
14 -5.0565 -0.6355 0.6015 -5.0565 -0.6355 0.6015 112.564 112.564

Improper Coeffs # class2

1 0 0
2 0 0
3 0 0
4 0 0
5 0 0
6 0 0
7 0 0
8 0 0
9 0 0
10 0 0
11 0 0

AngleAngle Coeffs

1 0.2738 -0.4825 0.2738 110.77 110.77 107.66
2 2.7985 -3.0031 -0.0668 110.77 112.564 107.852
3 -0.3157 -0.3157 -0.3157 107.66 107.66 107.66
4 0.5086 0.5086 -0.064 107.66 107.852 107.852
5 -1.3199 -1.3199 0.1184 112.67 110.77 110.77
6 -0.2564 -0.2564 -0.8766 112.67 112.564 112.564
7 -0.2564 -0.2564 -0.8766 112.67 112.564 112.564
8 2.7985 -3.0031 -0.0668 110.77 112.564 107.852
9 2.7985 -3.0031 -0.0668 110.77 112.564 107.852
10 -0.0668 -3.0031 2.7985 112.564 110.77 107.852
11 -0.0668 -3.0031 2.7985 112.564 110.77 107.852

Atoms # full

293 2 1 -0.041 1.5401893408797225 0.6725047920125327 0.22982911801925077 1 0 0
294 2 3 0.053 0.5652580944841805 0.4017374806471309 -0.12785604574455567 1 0 0
295 2 3 0.053 1.4284026216359824 0.45226093283736213 1.3058607616731936 1 0 0
292 2 6 -0.13 1.602661955157855 2.479183073003938 -0.05302748063302298 1 0 0
284 2 3 0.053 -0.2602249555815559 4.913668903386813 0.578055444110134 1 0 0
1863 10 3 0.053 4.51915557039424 3.512601704506903 5.226293290373754 0 0 1
304 2 3 0.053 3.9243192924202397 2.4803023072349313 0.48878811932558497 1 0 0
1866 10 3 0.053 4.06932402182882 1.2016443033490969 3.7931518149773087 0 0 1
1864 10 1 -0.159 5.029498515897989 1.6528699898595427 4.160224716405895 0 0 1
1870 10 3 0.053 7.554866954837625 2.1097660092321395 4.786784915726713 0 0 1
1878 10 6 -0.13 8.289683329517423 5.035578005309271 4.466977065542936 0 0 1
311 2 3 0.053 5.391223461157274 4.731310322017405 0.1217230060980643 1 0 0
323 2 1 -0.041 10.727893247705843 1.668507509757506 -0.21344647118035767 1 0 0
307 2 3 0.053 6.536884327520242 2.574019563371229 -0.2755017541629724 1 0 0
1867 10 3 0.053 5.530756127245657 2.168534777752707 3.2434932788066444 0 0 1
1865 10 3 0.053 5.55172676139586 0.7504998026418612 4.440848581507248 0 0 1
335 2 3 0.053 8.083957150232102 0.28935121203931147 1.0280094762736176 1 0 0
325 2 3 0.053 11.08565082044855 1.6400336492222904 0.8706660605391348 1 0 0
1985 10 3 0.053 11.568158902168584 0.7184813699333095 4.838368474991817 0 1 1
1417 8 3 0.053 14.292164618665302 1.7136097579978253 0.1770132586972023 0 0 1
1269 7 3 0.053 13.485055316104221 4.783564533975469 2.441423903116972 0 0 1
1984 10 1 -0.159 12.183776894673509 0.40092336376040405 3.978479645473305 0 1 1
1991 10 3 0.053 15.040434494742664 -0.2247565242097741 2.631627066764628 0 1 1
1987 10 3 0.053 11.59127109984603 0.5894315057384243 3.065638779140605 0 1 1
1986 10 3 0.053 13.11884648985653 0.9970255082075539 3.843925235323619 0 1 1
1615 8 3 0.053 13.583447052054114 3.3057586844590383 -0.3751593595614935 0 0 1
1896 10 3 0.053 1.5794889621002972 9.99275240776576 2.0450554307037283 0 0 1
1890 10 3 0.053 3.4064747136480023 6.630564404532409 3.175867089448257 0 0 1
1894 10 1 -0.159 2.514140177956934 9.323923906111313 2.069767478839252 0 0 1
1897 10 3 0.053 3.482304813425957 9.829209856734524 1.7415102588367124 0 0 1
1895 10 3 0.053 2.2981138046878415 8.456775124132287 1.2457960716784682 0 0 1
1892 10 2 0.012 2.9803089808667593 8.802129115467627 3.4410390539688356 0 0 1
1898 10 6 -0.13 3.9223695403413696 10.096931144623998 4.455238057674465 0 0 1
1889 10 1 -0.041 3.9038795157387725 7.53662482331255 3.407406036910703 0 0 1
1891 10 3 0.053 4.372155131039805 7.370381246506106 4.4168578659986775 0 0 1
1893 10 3 0.053 2.1702046154522416 8.476351770110512 4.102976092967675 0 0 1
1901 10 3 0.053 1.583206840734567 10.395679707247028 4.63174681368283 0 0 1
1899 10 1 -0.041 2.4557380199316152 11.011928458195442 4.991625931354146 0 0 1
497 3 3 0.053 5.246787494380092 10.96389006284748 2.0091158588631175 0 0 0
521 3 3 0.053 3.7750991396578515 6.510633062715209 0.01875738461577653 0 0 0
523 3 3 0.053 2.0298609354248076 6.7457702087651965 -0.15162205245831917 0 0 0
1883 10 3 0.053 6.707060382745387 5.527174938494122 1.9578540437588088 0 0 1
1885 10 3 0.053 8.940373698440542 6.701853056846404 2.663523271674733 0 0 1
1887 10 3 0.053 8.102713069854266 7.391041305219561 1.0727114115457332 0 0 1
1888 10 6 -0.13 5.366130618848975 7.603155464103139 2.1385223338450103 0 0 1
1881 10 3 0.053 6.640101473896033 6.876942002334583 4.693458404412773 0 0 1
1879 10 1 -0.041 6.738918390069359 5.985882765673114 4.0441652052506605 0 0 1
1882 10 2 0.012 6.768613747781635 6.434713285523601 2.575923813872352 0 0 1
1880 10 3 0.053 5.836257046825516 5.487124537616697 4.107516051212961 0 0 1
881 5 3 0.053 10.500257663632743 10.143473121908956 5.210783091144664 0 1 0
1884 10 1 -0.159 8.073897775120834 7.2548948344814566 2.1649987254498586 0 0 1
1886 10 3 0.053 7.952762008582965 8.119606458271074 2.817960298160343 0 0 1
1268 7 1 -0.159 13.247389772138938 5.47889066267351 3.2059308254017402 0 0 1
1270 7 3 0.053 13.485763492513309 6.428130006114517 2.625362391114676 0 0 1
1266 7 2 0.012 14.361619793482454 5.677987000392292 4.341315671200522 0 0 1
885 5 3 0.053 12.302266115655943 9.302240680055723 4.028816857691894 0 1 0
1271 7 3 0.053 12.187510845801068 5.5615861037002245 3.4173887603926114 0 0 1
1267 7 3 0.053 14.12958242269297 6.752789458312865 4.691836960254127 0 0 1
884 5 1 -0.159 12.96462698916034 10.08243095825533 4.459781020172822 0 1 0
887 5 3 0.053 13.564852752749129 9.499920680989161 5.109808246545503 0 1 0
886 5 3 0.053 13.60119174698501 10.543089730680176 3.767345555976071 0 1 0
1907 10 3 0.053 0.05962615255619996 12.519587170573839 4.331909588608169 0 0 1
1902 10 2 0.012 2.2210569593786103 12.456272090479356 4.529372230456436 0 0 1
1904 10 1 -0.159 0.9223873837310477 12.891833724556456 4.90366864315291 0 0 1
1903 10 3 0.053 2.349502581269889 12.515643072686265 3.3927997332995647 0 0 1
1906 10 3 0.053 0.8990753110895253 14.051090488462325 4.862460702007991 0 0 1
500 3 1 -0.159 5.192079107723328 13.619349424847877 -0.2519038457103542 0 0 0
499 3 3 0.053 3.967901617950682 12.835516945247313 1.1961127752148875 0 0 0
504 3 6 -0.13 3.9758898809036243 11.15346677000379 -0.416215043349102 0 0 0
1909 10 1 -0.041 3.833416341892267 14.82767439855946 4.166138577881428 0 0 1
1910 10 3 0.053 3.984225909577395 14.382652974761976 3.083081300673653 0 0 1
498 3 2 0.012 4.84830365574653 12.42861613390128 0.6216975816545818 0 0 0
491 3 3 0.053 8.90375018359384 14.642154817180385 1.4448049499231785 0 0 0
486 3 3 0.053 8.616122900038365 12.826294727710948 4.62508055279503 0 0 0
502 3 3 0.053 5.408438487619998 14.586115498898485 0.3083082694431679 0 0 0
492 3 3 0.053 8.06415917692657 13.418625128945715 0.2383806137562514 0 0 0
487 3 3 0.053 10.069726185641603 12.591895023360495 3.5905770429083788 0 0 0
485 3 1 -0.041 9.024816084444318 13.141300472799058 3.614283096650479 0 0 0
494 3 6 -0.13 6.415763325891221 12.934095472943795 2.8175567009940305 0 0 0
496 3 3 0.053 6.58542903002047 11.174664069033993 1.0181698316727632 0 0 0
488 3 2 0.012 8.190443889787527 12.767742184583003 2.3756588071731954 0 0 0
489 3 3 0.053 8.300327075047711 11.653148077089863 2.2281734043751174 0 0 0
495 3 1 -0.041 5.7903375231438385 11.764698477108226 1.5506262600800276 0 0 0
490 3 1 -0.159 8.750596974639727 13.546995430297462 1.1807211176298447 0 0 0
493 3 3 0.053 9.676804413840095 12.956679089885567 0.8604849844467366 0 0 0
484 3 6 -0.13 9.257346315023364 14.912793255206514 3.8153250882818437 0 0 0
883 5 3 0.053 11.854451618617938 11.967831946645335 4.760032351308564 0 1 0
1853 10 3 0.053 1.1997282809223035 2.8696160410712737 8.212939926286253 0 0 1
1852 10 2 0.012 0.9259664354316033 2.076657583130887 7.519832460062807 0 0 1
1854 10 1 -0.159 0.9571754989846568 0.6925206255149867 8.281294988224266 0 0 1
1859 10 1 -0.041 3.5760484565333748 2.0565006558677092 6.330203229501256 0 0 1
1860 10 3 0.053 3.5367532368215717 2.78225168010933 7.236026186661421 0 0 1
1857 10 3 0.053 0.25208091109048625 0.6717924258368417 9.207933902643394 0 0 1
1856 10 3 0.053 1.9568436953957487 0.5731193973537476 8.723457227778049 0 0 1
1858 10 6 -0.13 1.8070444615471701 2.322465792999942 5.914118563080052 0 0 1
1861 10 3 0.053 3.5820075352868184 0.9757229130149103 6.71110264158953 0 0 1
1855 10 3 0.053 0.7906599529490703 -0.23856603885960836 7.631700118120813 0 0 1
1862 10 2 0.012 4.735538848979352 2.491573071191354 5.4525948365382595 0 0 1
1874 10 1 -0.159 9.240541403381604 4.241675624562324 6.932564646949845 0 0 1
1872 10 2 0.012 8.04790584212373 4.0341823167433795 5.994687299803917 0 0 1
1873 10 3 0.053 7.297133011374823 4.640382292947279 6.364124346692231 0 0 1
1869 10 1 -0.041 7.589951034317128 2.5659646912622516 5.864513136589094 0 0 1
1875 10 3 0.053 8.899164547108127 4.229902078723935 8.024529385488615 0 0 1
1877 10 3 0.053 10.175104963686291 3.5965886502007427 6.839461346624809 0 0 1
1871 10 3 0.053 8.431262850333688 1.9769824209976767 6.448929129388516 0 0 1
1868 10 6 -0.13 5.971394331350409 2.246801766135373 6.7006401157451 0 0 1
200 1 5 -0.2042 9.300062645913565 -0.3500605949145055 10.268318873837778 -1 1 0
194 1 2 0.012 10.911888204610324 0.41432228943510796 9.72155302186853 -1 1 0
195 1 3 0.053 10.768393287824662 1.534084991674414 9.816409859256748 -1 1 0
37 1 3 0.053 5.777815709807014 2.918314251455618 10.989335835814543 0 1 0
199 1 3 0.053 10.434545381425625 -0.2525223759856623 7.724132272179331 -1 1 0
190 1 6 -0.13 13.626951586262264 0.339780991219121 10.787962956486458 -1 1 0
196 1 1 -0.159 11.343013110310954 -0.17160301299173258 8.313201615341082 -1 1 0
191 1 1 -0.041 11.844183156573173 -0.09150231716272239 10.840277463471349 -1 1 0
188 1 3 0.053 12.886699046532105 3.390432581573337 10.463769947761849 -1 1 0
1277 7 3 0.053 13.461172675770305 4.962885124435943 8.685173084524019 0 0 1
1272 7 6 -0.13 14.126882782682422 4.708351238974725 5.949617112096783 0 0 1
198 1 3 0.053 12.19033138111513 0.37939577832309057 7.891457967420488 -1 1 0
1827 10 3 0.053 0.4605679394622967 6.5160054154055285 10.077853069068462 0 0 1
6 1 1 -0.159 3.4501359243975305 6.646397657936493 8.482564707334795 0 1 0
4 1 2 0.012 4.229174817908395 7.999508225979058 8.744979678059375 0 1 0
8 1 3 0.053 4.04464393478886 5.885207469227698 8.78335959533991 0 1 0
5 1 3 0.053 4.625741507592146 8.281512008284773 9.786893875143162 0 1 0
7 1 3 0.053 2.5165985957230013 6.611694751060345 9.091042307804331 0 1 0
9 1 3 0.053 3.27811494266795 6.432181531888232 7.397689711723171 0 1 0
10 1 6 -0.13 3.5729774184562224 9.762647043142566 8.302716796849179 0 1 0
11 1 1 -0.041 3.521441744057573 10.523317479110023 9.92012238131075 0 1 0
19 1 3 0.053 1.1457439869981625 10.840517607785614 9.542822083282669 0 1 0
16 1 1 -0.159 1.1649971918083002 10.727140724509418 10.574546600993529 0 1 0
12 1 3 0.053 4.427010667263858 10.412226081974666 10.332766683203136 0 1 0
15 1 3 0.053 2.0870068698470416 8.874792172641639 10.8093429392831 0 1 0
14 1 2 0.012 2.383680218356321 9.91900104511091 10.877984408364872 0 1 0
1876 10 3 0.053 9.527669414904693 5.304690403940237 6.556901996932652 0 0 1
1 1 1 -0.159 5.634543180317891 7.898153930667222 8.048082540891809 0 1 0
201 1 3 0.053 6.32659361105394 8.49325496496854 8.717103587017705 0 1 0
2 1 3 0.053 5.999893498312314 6.831901210466074 7.888601771225808 0 1 0
3 1 3 0.053 5.672074636260437 8.234394819374417 7.009187689172901 0 1 0
875 5 3 0.053 9.014053443018062 8.477074764868538 5.415283931304909 0 1 0
874 5 1 -0.159 9.049750990664164 7.805112759012621 6.341409663121201 0 1 0
877 5 3 0.053 9.52333313503903 6.97024381859915 5.77319906929803 0 1 0
876 5 3 0.053 7.993504924383025 7.504842839756835 6.730523605058627 0 1 0
863 5 3 0.053 10.928199151744112 6.675528894148818 10.926402535645618 0 1 0
868 5 6 -0.13 9.748001087300066 8.710756221133312 10.355661232484238 0 1 0
873 5 3 0.053 9.158995941922145 9.565972882190472 7.751773749986688 0 1 0
871 5 3 0.053 8.585258425288238 7.276764260973249 8.977113162504855 0 1 0
872 5 2 0.012 9.683725076264576 8.587660165886504 7.469133943475907 0 1 0
869 5 1 -0.041 9.51238052273293 7.710297920926308 8.763773252912879 0 1 0
870 5 3 0.053 10.263089934562117 6.825972754692176 8.973357987284235 0 1 0
890 5 3 0.053 14.174643569731415 9.86840562471868 6.936373172615091 0 1 0
889 5 1 -0.041 14.526805853462303 10.915770290590574 7.093853605891828 0 1 0
879 5 1 -0.041 11.106705373323223 10.512488250177455 6.1058484305453335 0 1 0
878 5 6 -0.13 11.335362706730402 9.034194553923417 7.051511517726121 0 1 0
1281 7 3 0.053 14.684025005028573 7.67073171152269 9.592464561304569 0 0 1
1273 7 1 -0.041 14.414131854888566 6.084103098574639 7.242486808901302 0 0 1
1275 7 3 0.053 13.49781978186944 6.806446950570641 7.297132697434576 0 0 1
1278 7 1 -0.159 14.02416197362428 6.75792097017751 9.612250064243636 0 0 1
1276 7 2 0.012 14.38632421107318 5.652968719330818 8.672378788487089 0 0 1
1280 7 3 0.053 12.972273352124441 7.073653386844634 9.60385217266577 0 0 1
1279 7 3 0.053 14.070356770684162 6.1701134308397805 10.57798975650657 0 0 1
891 5 3 0.053 14.443390540320001 10.922900435003738 8.184337059853275 0 1 0
1900 10 3 0.053 2.154802289068938 11.049535530848425 6.0266301245123 0 0 1
1905 10 3 0.053 0.7290925635079226 12.666151238838895 5.981839480755187 0 0 1
13 1 3 0.053 3.4211887768337235 11.603738941441 9.756053929022597 0 1 0
1908 10 6 -0.13 3.4804946688611933 13.476655657744935 5.350512174370959 0 0 1
17 1 3 0.053 1.2252644316743977 11.756880037771099 10.992051302301762 0 1 0
434 3 6 -0.13 0.0572591998584534 14.805335870200404 10.629413126974349 0 0 0
469 3 3 0.053 10.859291774204616 13.678020877893449 9.315679895219715 0 0 0
468 3 2 0.012 9.822368068805698 13.975158473911957 9.25612677599919 0 0 0
467 3 3 0.053 9.778019256429177 12.805223693255911 10.896220718572211 0 0 0
479 3 3 0.053 10.920655324324116 14.046314411071355 5.375533396917287 0 0 0
880 5 3 0.053 10.51130037191846 11.254356386673264 6.61545006390933 0 1 0
474 3 6 -0.13 9.289810553856112 13.950483219101718 7.501282254075742 0 0 0
466 3 3 0.053 8.984458634040344 11.960620955559197 9.374622306194187 0 0 0
464 3 6 -0.13 7.431258220380937 13.331501697478503 10.723285361870404 0 0 0
465 3 1 -0.041 9.103760617452453 12.949095346621915 10.019293937777901 0 0 0
882 5 2 0.012 12.213529244522782 11.152059930024125 5.4126183989918735 0 1 0
888 5 6 -0.13 13.401397350643686 12.194420479688528 6.42392942655054 0 1 0
1109 6 3 0.053 14.903050214583546 13.923183443203499 10.571269686594743 0 0 -1
52 1 3 0.053 3.126189316603231 -0.29790080681393216 12.469135621519897 0 1 0
48 1 3 0.053 0.46191441604162475 2.978612051985571 14.644248643852436 0 1 0
53 1 3 0.053 2.659761079198027 -0.34275389546613877 14.23503416127278 0 1 0
41 1 1 -0.041 1.732824178263686 3.1113805644509887 12.550954474283172 0 1 0
38 1 3 0.053 5.2543250476167715 2.4255613514925107 12.527183905271569 0 1 0
35 1 3 0.053 4.748753643880294 5.031858067643379 11.50247026003134 0 1 0
34 1 2 0.012 4.510784023137636 4.224984302604691 12.186004997978092 0 1 0
50 1 6 -0.13 1.0308397002903618 0.40598070940985975 12.755224648742622 0 1 0
40 1 6 -0.13 2.994017090554511 3.5050282524379606 11.339826459035416 0 1 0
43 1 3 0.053 0.6818033972772133 2.8875925859595495 12.167494323503822 0 1 0
31 1 1 -0.041 4.32864805704499 4.678996057358207 13.616242415834632 0 1 0
32 1 3 0.053 4.169194597560552 3.7422029160393304 14.179865850556755 0 1 0
45 1 3 0.053 3.0235712455301136 1.4950918361345515 13.515729394730505 0 1 0
42 1 3 0.053 1.6488696244682273 4.005954144331882 13.116362757191576 0 1 0
46 1 1 -0.159 1.4252905365030195 2.4597067672689588 14.796442978200655 0 1 0
44 1 2 0.012 1.9348500897275218 1.904142807579539 13.477257438284758 0 1 0
1549 8 3 0.053 8.038434165267285 2.7557303467784773 14.562946743165197 1 0 0
1551 8 3 0.053 10.447101521190824 1.2749020158995477 13.971920988928753 1 0 0
1554 8 6 -0.13 9.880308795208409 4.329394670118808 14.947819627870551 1 0 0
1550 8 1 -0.159 9.62695538730402 1.8669126645702256 13.535666550983231 1 0 0
1553 8 3 0.053 10.005209808246294 2.495941690535541 12.82889849378882 1 0 0
36 1 1 -0.159 5.565570046010517 3.2380991745980032 12.005762874536734 0 1 0
39 1 3 0.053 6.371293076539794 3.7532675014125134 12.46809541003175 0 1 0
1552 8 3 0.053 8.884829956795427 1.1228295649147098 13.247358226610247 1 0 0
1548 8 2 0.012 9.129644419786766 2.6061313420714365 14.71279151676142 1 0 0
33 1 3 0.053 5.310156196624544 5.0244833024474325 14.057570436062802 0 1 0
193 1 3 0.053 11.468463682955726 0.2738807530331989 11.8476607883523 -1 1 0
1562 8 3 0.053 14.423728245188627 3.956816312469088 14.439991783370052 1 0 0
1560 8 1 -0.159 14.027494765860151 4.829200932768387 14.985813519132117 1 0 0
1555 8 1 -0.041 11.743836582681245 4.322436597872319 14.443150002340913 1 0 0
1557 8 3 0.053 11.844313763590035 5.168173029670443 13.673705317306329 1 0 0
1556 8 3 0.053 11.979277724289366 3.3760703374683603 13.91040767835042 1 0 0
187 1 3 0.053 11.72218328636728 2.899484685555202 11.69276361356835 -1 1 0
184 1 2 0.012 13.705857541723915 1.8138531324088816 11.853840278603233 -1 1 0
186 1 1 -0.159 12.837759091140393 3.0182086452418795 11.551046533171341 -1 1 0
189 1 3 0.053 12.990696409962574 3.8124082267229307 12.31564836708824 -1 1 0
185 1 3 0.053 13.312551384428009 1.4411004154247253 12.945516509606197 -1 1 0
23 1 3 0.053 2.483210402997214 9.112366643349068 14.595366688309934 0 1 0
25 1 3 0.053 3.9970462146035937 7.416978083133294 12.491517123989054 0 1 0
1824 10 1 -0.159 0.1616414002687061 6.682746097991761 11.146618640698225 0 0 1
26 1 1 -0.159 4.9568242616885225 7.960374826727964 14.439855343721973 0 1 0
1826 10 3 0.053 0.6669295796110062 7.330253887881035 11.785586208131722 0 0 1
18 1 3 0.053 0.2857316443945086 10.165314635027103 11.052694651166835 0 1 0
30 1 6 -0.13 3.041956492138756 5.882887893525303 13.977785671795703 0 1 0
20 1 6 -0.13 3.0284997840989845 10.121677978332059 12.539436835447848 0 1 0
21 1 1 -0.041 2.6526826516876785 8.64065128843567 13.573024581211687 0 1 0
22 1 3 0.053 1.707483525296683 8.339598427741961 13.30690281721814 0 1 0
24 1 2 0.012 3.7737892544320886 7.615317535594356 13.548810767597251 0 1 0
1825 10 3 0.053 0.08467990744109088 5.670217736023637 11.654841001058866 0 0 1
29 1 3 0.053 5.6550360733648395 7.117462740117653 14.642759888591492 0 1 0
866 5 3 0.053 9.511986749583372 5.661479299827583 12.655996087230161 0 1 0
864 5 1 -0.159 9.268988675151359 6.79428888391258 12.465699911651356 0 1 0
862 5 2 0.012 10.40610224510437 7.455883414627583 11.507645283056624 0 1 0
865 5 3 0.053 8.290048704629088 6.643406881586447 11.965367641871755 0 1 0
858 5 6 -0.13 10.968573861584337 9.487163687165683 13.1911641845706 0 1 0
867 5 3 0.053 8.996783801049743 7.481243325567449 13.325091810043126 0 1 0
28 1 3 0.053 5.572006871152008 8.85324210347208 13.952920116929892 0 1 0
1563 8 3 0.053 14.008786113804584 5.659747769366019 14.31336573271048 1 0 0
853 5 3 0.053 12.43233683226311 8.649083665620099 14.965089708457675 0 1 0
854 5 1 -0.159 13.399100806075921 10.435997684971497 14.167944471287251 0 1 0
861 5 3 0.053 12.355241294465225 8.211605547425338 11.72459673062603 0 1 0
852 5 2 0.012 12.131868001076167 9.669948729242597 14.608933260013965 0 1 0
860 5 3 0.053 11.738476153145747 7.1796747157302505 13.048160289247972 0 1 0
859 5 1 -0.041 11.515475238438148 8.095192678738572 12.387484740083659 0 1 0
856 5 3 0.053 13.878952188935962 9.772915534486703 13.489395737968012 0 1 0
438 3 2 0.012 0.6527845276155881 14.069355668644175 13.411684239396996 0 0 0
439 3 3 0.053 1.362791775439315 13.349374788944102 12.862972925530919 0 0 0
440 3 1 -0.159 -0.05942795795415895 13.380187453827553 14.598995074637184 0 0 0
446 3 3 0.053 3.685574277708355 14.306588111527631 12.805316546904574 0 0 0
460 3 1 -0.159 7.905625013962185 12.620540171704494 13.394386336961427 0 0 0
463 3 3 0.053 8.766956195580098 11.944872995160631 13.043542325519889 0 0 0
459 3 3 0.053 8.377608332997138 14.701787945185291 12.541926955419681 0 0 0
458 3 2 0.012 7.619643274590548 13.804258670586051 12.497983006504414 0 0 0
455 3 1 -0.041 6.247936703950675 14.423299690070783 12.825883671854129 0 0 0
456 3 3 0.053 6.466816939373248 14.785394180603335 13.896218915365921 0 0 0
457 3 3 0.053 5.659768720636864 13.490540991126093 12.617169398489658 0 0 0
462 3 3 0.053 7.08856835405675 11.958439794508296 13.576864252122768 0 0 0
461 3 3 0.053 8.233001835335385 12.961784042688077 14.38267688280865 0 0 0
855 5 3 0.053 13.32715929287184 11.461090553306349 13.654263306540015 0 1 0
1108 6 3 0.053 14.836543257377349 13.463613437371249 12.501210625931375 0 0 -1
1541 8 3 0.053 4.3341228530709905 0.9324435640505655 16.7838997612954 1 0 0
1536 8 3 0.053 4.511930244185196 3.4219485519991117 17.812731061865712 1 0 0
1530 8 1 -0.159 5.276072354280273 4.9878631824500275 20.56412187620518 1 0 0
1531 8 3 0.053 4.561694891934993 4.184560180137866 20.3376035653481 1 0 0
567 3 3 0.053 0.8949529409805279 4.142050301929157 18.22194543398169 0 0 -1
565 3 1 -0.041 0.20237822758542046 4.999062985606083 18.258312926649765 0 0 -1
47 1 3 0.053 2.206439279649997 3.115917835288074 15.292704803070515 0 1 0
49 1 3 0.053 1.3229391446503471 1.6060531341624298 15.555174929989516 0 1 0
1537 8 3 0.053 5.7643518016496165 2.585956557760675 18.860485547332505 1 0 0
1540 8 1 -0.159 5.383719802981221 0.9334604230905312 16.672066825333395 1 0 0
1543 8 3 0.053 5.544748581145913 0.46768498057670826 15.740686047158704 1 0 0
1542 8 3 0.053 5.878711514181641 0.2198643372066048 17.390967008047163 1 0 0
1535 8 1 -0.041 5.652485021942498 3.200688159756032 17.948902623377514 1 0 0
1534 8 6 -0.13 6.394426876853186 4.942012174884797 18.05079038694865 1 0 0
1539 8 3 0.053 6.027540456375849 2.899810352515469 15.875244269765567 1 0 0
1538 8 2 0.012 6.171387051466481 2.4107355539845186 16.821490446350005 1 0 0
1544 8 6 -0.13 7.931969341130927 2.220520001322735 17.338294927799875 1 0 0
1545 8 1 -0.041 9.12896355566739 1.7719809625163032 16.02845212411092 1 0 0
1566 8 3 0.053 10.584591429806663 3.388662156578022 17.685459902104764 1 0 0
1574 8 6 -0.13 10.986209863124746 0.9042197155530405 19.07721082479592 1 0 0
1547 8 3 0.053 9.174044123413399 0.6685351849716346 15.925553652071333 1 0 0
1571 8 3 0.053 9.622682620843934 3.706386596589737 19.923837720918023 1 0 0
1570 8 1 -0.159 10.534317193978008 3.431836504544397 20.38719296731137 1 0 0
1546 8 3 0.053 10.046665664127504 1.8265128718456434 16.6505382303226 1 0 0
1565 8 1 -0.041 11.628536564741996 3.4277124489778013 18.029203456931768 1 0 0
1564 8 6 -0.13 12.740064215508193 2.9473919726260323 16.734318380359355 1 0 0
1558 8 2 0.012 12.711669613886333 4.433784329533738 15.590094793982601 1 0 0
1559 8 3 0.053 12.238234530164696 5.163234970587547 16.248506951919747 1 0 0
1577 8 3 0.053 13.323118305481499 0.9694632265219569 18.35991159081976 1 0 0
1567 8 3 0.053 11.856208236256787 4.376397131459998 18.334714289159514 1 0 0
1568 8 2 0.012 11.536692162356099 2.693699931219 19.390643329660147 1 0 0
1569 8 3 0.053 12.504059415352055 2.6102566832698586 19.9379210434045 1 0 0
1561 8 3 0.053 14.789123460196302 5.140795143312186 15.750780092824087 1 0 0
1573 8 3 0.053 11.152440041491442 4.322788529036723 20.708079592368627 1 0 0
1575 8 1 -0.041 12.633715339472246 0.23054835370489934 18.732828530973276 1 0 0
1576 8 3 0.053 12.500061949130709 -0.3651069385908836 17.75231632714714 1 0 0
566 3 3 0.053 0.05447618066312776 5.518432256126173 17.220662265948164 0 0 -1
1529 8 3 0.053 4.327918234146167 5.894717909993919 19.057584891037322 1 0 0
558 3 2 0.012 0.523329886124784 7.70107275036791 18.236177366120735 0 0 -1
1527 8 3 0.053 5.233162372156972 7.679824619663377 20.53427125326295 1 0 0
1517 8 3 0.053 4.898375342066895 10.359029802846713 20.115384821291656 1 0 0
561 3 3 0.053 2.4745179029936857 8.324728127916394 17.812273920039807 0 0 -1
560 3 1 -0.159 1.5338960276543985 8.10413516725368 17.2067128716679 0 0 -1
564 3 6 -0.13 1.1158378410405858 6.234096084980331 19.285693979388935 0 0 -1
27 1 3 0.053 4.577885291412405 8.386061240147678 15.411568194342404 0 1 0
554 3 6 -0.13 1.0205146587514935 10.199400826614134 19.458678591347464 0 0 -1
559 3 3 0.053 -0.19881666611908771 7.333627273871314 17.617141551709075 0 0 -1
562 3 3 0.053 1.0306908465143463 8.921562594653532 16.69075717663675 0 0 -1
563 3 3 0.053 1.6121033822588537 7.266485589927475 16.437181256034137 0 0 -1
555 3 1 -0.041 -0.12380643993068147 8.829922479167276 19.11452887432556 0 0 -1
1528 8 2 0.012 5.385816668932618 5.930778534100461 19.37577865945987 1 0 0
850 5 3 0.053 10.36650783957438 9.682429596126571 15.555936894484404 0 1 0
1525 8 1 -0.041 5.968839492747555 7.387297369397302 19.7313394705825 1 0 0
1526 8 3 0.053 6.904214139082366 7.463054648985537 20.287910612059378 1 0 0
1522 8 3 0.053 7.620682013572315 10.696770830169072 16.969530683448518 1 0 0
1515 8 1 -0.041 5.973950020498711 10.620774809970992 20.267760383440447 1 0 0
1518 8 2 0.012 6.755024729580919 10.157419165960432 19.04427710829956 1 0 0
1519 8 3 0.053 7.785569927656702 9.831929912059127 19.126196565466994 1 0 0
1524 8 6 -0.13 5.87324093875594 8.673758595471925 18.383055789430117 1 0 0