units real
atom_style full
boundary p p p

# --- Force Field Styles ---
pair_style lj/class2/coul/long 9.5 9.5
kspace_style pppm 1e-6
dielectric 1.000000
bond_style class2
angle_style class2
dihedral_style class2
improper_style class2
special_bonds lj/coul 0 0 1
pair_modify mix sixthpower tail yes
neighbor 2.0 bin
neigh_modify delay 0 every 1 check yes
neigh_modify one 4000
# KOKKOS: package loaded via -pk kokkos on the command line

read_data /home/alexzhao/PolyJarvis/data/PEEK4/lammps/equil/nvt_production/nvt_production_out.data
Reading data file ...
  orthogonal box = (4.0558128 4.0558128 4.0558128) to (52.999716 52.999716 52.999716)
  1 by 1 by 1 MPI processor grid
  reading atoms ...
  8720 atoms
  reading velocities ...
  8720 velocities
  scanning bonds ...
  3 = max bonds/atom
  scanning angles ...
  9 = max angles/atom
  scanning dihedrals ...
  18 = max dihedrals/atom
  scanning impropers ...
  4 = max impropers/atom
  orthogonal box = (4.0558128 4.0558128 4.0558128) to (52.999716 52.999716 52.999716)
  1 by 1 by 1 MPI processor grid
  reading bonds ...
  9480 bonds
  reading angles ...
  15104 angles
  reading dihedrals ...
  22512 dihedrals
  reading impropers ...
  4864 impropers
Finding 1-2 1-3 1-4 neighbors ...
  special bond factors lj:    0        0        1       
  special bond factors coul:  0        0        1       
     3 = max # of 1-2 neighbors
     6 = max # of 1-3 neighbors
     9 = max # of special neighbors
  special bonds CPU = 0.006 seconds
  read_data CPU = 0.354 seconds
include /home/alexzhao/PolyJarvis/data/PEEK4/lammps/equil/emc_build.params
# LAMMPS parameters created by EMC v9.4.4, build Jul 31 2025 20:33:44

# Variables

variable	seed		index	734812
variable	ntotal		index	8720
variable	fshape		index	1
variable	output		index	emc_build
variable	field		index	pcff/pcff
variable	location1	index	~/emc/field/
variable	nav		index	0.6022141179
variable	temperature	index	300
variable	radius		index	5
variable	nrelax		index	100
variable	weight_nonbond	index	0.0001
variable	weight_bond	index	0.0001
variable	weight_focus	index	1
variable	cutoff		index	9.5
variable	charge_cutoff	index	9.5
variable	kappa		index	4
variable	density1	index	0.66
variable	lprevious	index	0
variable	lphase		index	57.0555285531
variable	f_poly		index	8
variable	chem_repeat	index	*Oc1ccc(Oc2ccc(C(=O)c3ccc(cc3)*)cc2)cc1
variable	chem_cap	index	*[H]
variable	lg_repeat	index	34
variable	lg_cap		index	1
variable	norm_poly	index	100
variable	l_poly		index	1090
variable	mg_repeat	index	260.29514
variable	mg_cap		index	0
variable	m_poly		index	8329.44448
variable	n_poly		index	8
variable	mtotal		index	73822.38416
variable	nphase1		index	8720
variable	mphase1		index	73822.38416
variable	vphase1		index	185734.764243
variable	lbox		index	57.0555285531
variable	lphase1		index	57.0555285531
variable	lxx		index	57.0555285531
variable	lyy		index	57.0555285531
variable	lzz		index	57.0555285531
variable	lzy		index	0
variable	lzx		index	0
variable	lyx		index	0
variable	vtotal		index	185734.764243
variable	nl_poly		index	8

# Types

variable	type_c_0	index	1
variable	type_cp		index	2
variable	type_hc		index	3
variable	type_ho		index	4
variable	type_o_1	index	5
variable	type_oc		index	6
variable	type_oh		index	7

variable	type_bond_c_0_cp index	1
variable	type_bond_c_0_o_1 index	2
variable	type_bond_cp_cp	index	3
variable	type_bond_cp_hc	index	4
variable	type_bond_cp_oc	index	5
variable	type_bond_cp_oh	index	6
variable	type_bond_ho_oh	index	7

variable	type_angle_c_0_cp_cp index	1
variable	type_angle_cp_c_0_cp index	2
variable	type_angle_cp_c_0_o_1 index	3
variable	type_angle_cp_cp_cp index	4
variable	type_angle_cp_cp_hc index	5
variable	type_angle_cp_cp_oc index	6
variable	type_angle_cp_cp_oh index	7
variable	type_angle_cp_oc_cp index	8
variable	type_angle_cp_oh_ho index	9

# Clusters

variable	n0_poly		index	1
variable	n1_poly		index	8
variable	nl_poly		index	8

# Flags

variable	flag_charged	index	1

# Masses

mass		1    12.01115  # c_0
mass		2    12.01115  # cp
mass		3     1.00797  # hc
mass		4     1.00797  # ho
mass		5    15.99940  # o_1
mass		6    15.99940  # oc
mass		7    15.99940  # oh

# Potentials

pair_modify	mix sixthpower tail yes
special_bonds	lj/coul 0 0 1

# Pair Coeffs

pair_coeff	 1  1    0.12000    3.30800  # c_0,c_0
pair_coeff	 2  2    0.06400    4.01000  # cp,cp
pair_coeff	 3  3    0.02000    2.99500  # hc,hc
pair_coeff	 4  4    0.01300    1.09800  # ho,ho
pair_coeff	 5  5    0.26700    3.30000  # o_1,o_1
pair_coeff	 6  6    0.24000    3.53500  # oc,oc
pair_coeff	 7  7    0.24000    3.53500  # oh,oh

# Bond Coeffs

bond_coeff	1    1.48900  339.35740 -655.72360  670.23620  # c_0,cp
bond_coeff	2    1.21600  823.79480 -1878.79400 2303.53110  # c_0,o_1
bond_coeff	3    1.41700  470.83610 -627.61790 1327.63450  # cp,cp
bond_coeff	4    1.09820  372.82510 -803.45260  894.31730  # cp,hc
bond_coeff	5    1.37680  428.87980 -738.23510 1114.96550  # cp,oc
bond_coeff	6    1.37680  428.87980 -738.23510 1114.96550  # cp,oh
bond_coeff	7    0.96500  532.50620 -1282.90500 2004.76580  # ho,oh

# Angle Coeffs

angle_coeff	1  108.40000   43.95940   -8.39240   -9.33790  # c_0,cp,cp
angle_coeff	2  110.58840   34.62140   -7.09390   -7.40320  # cp,c_0,cp
angle_coeff	3  119.30000   65.10160  -17.97660    0.00000  # cp,c_0,o_1
angle_coeff	4  118.90000   61.02260  -34.99310    0.00000  # cp,cp,cp
angle_coeff	5  117.94000   35.15580  -12.46820    0.00000  # cp,cp,hc
angle_coeff	6  123.42000   73.67810  -21.67870    0.00000  # cp,cp,oc
angle_coeff	7  123.42000   73.67810  -21.67870    0.00000  # cp,cp,oh
angle_coeff	8  109.50000   60.00000    0.00000    0.00000  # cp,oc,cp
angle_coeff	9  108.19000   53.12500   -8.50160    0.00000  # cp,oh,ho

# BondBond Coeffs

angle_coeff	1 bb    0.00000    1.48900    1.41700  # c_0,cp,cp
angle_coeff	2 bb    0.00000    1.48900    1.48900  # cp,c_0,cp
angle_coeff	3 bb    0.00000    1.48900    1.21600  # cp,c_0,o_1
angle_coeff	4 bb   68.28560    1.41700    1.41700  # cp,cp,cp
angle_coeff	5 bb    1.07950    1.41700    1.09820  # cp,cp,hc
angle_coeff	6 bb   48.47540    1.41700    1.37680  # cp,cp,oc
angle_coeff	7 bb   48.47540    1.41700    1.37680  # cp,cp,oh
angle_coeff	8 bb    0.00000    1.37680    1.37680  # cp,oc,cp
angle_coeff	9 bb   20.65770    1.37680    0.96500  # cp,oh,ho

# BondAngle Coeffs

angle_coeff	1 ba    0.00000    0.00000    1.48900    1.41700  # c_0,cp,cp
angle_coeff	2 ba    0.00000    0.00000    1.48900    1.48900  # cp,c_0,cp
angle_coeff	3 ba    0.00000    0.00000    1.48900    1.21600  # cp,c_0,o_1
angle_coeff	4 ba   28.87080   28.87080    1.41700    1.41700  # cp,cp,cp
angle_coeff	5 ba   20.00330   24.21830    1.41700    1.09820  # cp,cp,hc
angle_coeff	6 ba   58.47900  107.68060    1.41700    1.37680  # cp,cp,oc
angle_coeff	7 ba   58.47900  107.68060    1.41700    1.37680  # cp,cp,oh
angle_coeff	8 ba    0.00000    0.00000    1.37680    1.37680  # cp,oc,cp
angle_coeff	9 ba   53.86140   23.92240    1.37680    0.96500  # cp,oh,ho

# Dihedral Coeffs

dihedral_coeff	 1    0.00000    0.00000    4.62820    0.00000    0.00000    0.00000  # c_0,cp,cp,cp
dihedral_coeff	 2    0.00000    0.00000    2.16700    0.00000    0.00000    0.00000  # c_0,cp,cp,hc
dihedral_coeff	 3    0.00000    0.00000    2.50000    0.00000    0.00000    0.00000  # cp,c_0,cp,cp
dihedral_coeff	 4    0.00000    0.00000    0.90630    0.00000    0.00000    0.00000  # cp,cp,c_0,o_1
dihedral_coeff	 5    8.36670    0.00000    1.19320    0.00000    0.00000    0.00000  # cp,cp,cp,cp
dihedral_coeff	 6    0.00000    0.00000    3.96610    0.00000    0.00000    0.00000  # cp,cp,cp,hc
dihedral_coeff	 7    0.00000    0.00000    4.84980    0.00000    0.00000    0.00000  # cp,cp,cp,oc
dihedral_coeff	 8    0.00000    0.00000    4.84980    0.00000    0.00000    0.00000  # cp,cp,cp,oh
dihedral_coeff	 9    0.00000    0.00000    1.80000    0.00000    0.00000    0.00000  # cp,cp,oc,cp
dihedral_coeff	10   -0.69000    0.00000    0.50970    0.00000    0.00950    0.00000  # cp,cp,oh,ho
dihedral_coeff	11    0.00000    0.00000    1.87690    0.00000    0.00000    0.00000  # hc,cp,cp,hc
dihedral_coeff	12    0.00000    0.00000    1.72340    0.00000    0.00000    0.00000  # hc,cp,cp,oc
dihedral_coeff	13    0.00000    0.00000    1.72340    0.00000    0.00000    0.00000  # hc,cp,cp,oh

# MiddleBondTorsion Coeffs

dihedral_coeff	 1 mbt    0.00000    0.00000    0.00000    1.41700  # c_0,cp,cp,cp
dihedral_coeff	 2 mbt    0.00000    0.00000    0.00000    1.41700  # c_0,cp,cp,hc
dihedral_coeff	 3 mbt    0.00000    0.00000    0.00000    1.48900  # cp,c_0,cp,cp
dihedral_coeff	 4 mbt    0.00000    0.00000    0.00000    1.48900  # cp,cp,c_0,o_1
dihedral_coeff	 5 mbt   27.59890   -2.31200    0.00000    1.41700  # cp,cp,cp,cp
dihedral_coeff	 6 mbt    0.00000   -1.15210    0.00000    1.41700  # cp,cp,cp,hc
dihedral_coeff	 7 mbt    0.00000    4.82550    0.00000    1.41700  # cp,cp,cp,oc
dihedral_coeff	 8 mbt    0.00000    4.82550    0.00000    1.41700  # cp,cp,cp,oh
dihedral_coeff	 9 mbt    0.00000    0.00000    0.00000    1.37680  # cp,cp,oc,cp
dihedral_coeff	10 mbt    1.15800    3.26970    3.51320    1.37680  # cp,cp,oh,ho
dihedral_coeff	11 mbt    0.00000    4.82280    0.00000    1.41700  # hc,cp,cp,hc
dihedral_coeff	12 mbt    0.00000    5.54320    0.00000    1.41700  # hc,cp,cp,oc
dihedral_coeff	13 mbt    0.00000    5.54320    0.00000    1.41700  # hc,cp,cp,oh

# EndBondTorsion Coeffs

dihedral_coeff	 1 ebt    0.00000    0.00000    0.00000    0.00000    0.00000    0.00000    1.48900    1.41700  # c_0,cp,cp,cp
dihedral_coeff	 2 ebt    0.00000    0.00000    0.00000    0.00000    0.00000    0.00000    1.48900    1.09820  # c_0,cp,cp,hc
dihedral_coeff	 3 ebt    0.00000    0.00000    0.00000    0.00000    0.00000    0.00000    1.48900    1.41700  # cp,c_0,cp,cp
dihedral_coeff	 4 ebt    0.00000    0.00000    0.00000    0.00000    0.00000    0.00000    1.41700    1.21600  # cp,cp,c_0,o_1
dihedral_coeff	 5 ebt   -0.11850    6.32040    0.00000   -0.11850    6.32040    0.00000    1.41700    1.41700  # cp,cp,cp,cp
dihedral_coeff	 6 ebt    0.00000   -6.89580    0.00000    0.00000   -0.46690    0.00000    1.41700    1.09820  # cp,cp,cp,hc
dihedral_coeff	 7 ebt    0.00000    0.26550    0.00000    0.00000    4.89050    0.00000    1.41700    1.37680  # cp,cp,cp,oc
dihedral_coeff	 8 ebt    0.00000    0.26550    0.00000    0.00000    4.89050    0.00000    1.41700    1.37680  # cp,cp,cp,oh
dihedral_coeff	 9 ebt    0.00000    0.00000    0.00000    0.00000    0.00000    0.00000    1.41700    1.37680  # cp,cp,oc,cp
dihedral_coeff	10 ebt    0.90000   -1.34560    1.19000    3.41320    0.58730   -0.13230    1.41700    0.96500  # cp,cp,oh,ho
dihedral_coeff	11 ebt    0.00000   -0.68900    0.00000    0.00000   -0.68900    0.00000    1.09820    1.09820  # hc,cp,cp,hc
dihedral_coeff	12 ebt    0.00000   -1.58670    0.00000    0.00000    4.26410    0.00000    1.09820    1.37680  # hc,cp,cp,oc
dihedral_coeff	13 ebt    0.00000   -1.58670    0.00000    0.00000    4.26410    0.00000    1.09820    1.37680  # hc,cp,cp,oh

# AngleTorsion Coeffs

dihedral_coeff	 1 at    0.00000    0.00000    0.00000    0.00000    0.00000    0.00000  108.40000  118.90000  # c_0,cp,cp,cp
dihedral_coeff	 2 at    0.00000    0.00000    0.00000    0.00000    0.00000    0.00000  108.40000  117.94000  # c_0,cp,cp,hc
dihedral_coeff	 3 at    0.00000    0.00000    0.00000    0.00000    0.00000    0.00000  110.58840  108.40000  # cp,c_0,cp,cp
dihedral_coeff	 4 at    0.00000    0.00000    0.00000    0.00000    0.00000    0.00000  108.40000  119.30000  # cp,cp,c_0,o_1
dihedral_coeff	 5 at    1.97670    1.02390    0.00000    1.97670    1.02390    0.00000  118.90000  118.90000  # cp,cp,cp,cp
dihedral_coeff	 6 at    0.00000    2.50140    0.00000    0.00000    2.71470    0.00000  118.90000  117.94000  # cp,cp,cp,hc
dihedral_coeff	 7 at    0.00000   10.01550    0.00000    0.00000    1.74040    0.00000  118.90000  123.42000  # cp,cp,cp,oc
dihedral_coeff	 8 at    0.00000   10.01550    0.00000    0.00000    1.74040    0.00000  118.90000  123.42000  # cp,cp,cp,oh
dihedral_coeff	 9 at    0.00000    0.00000    0.00000    0.00000    0.00000    0.00000  123.42000  109.50000  # cp,cp,oc,cp
dihedral_coeff	10 at   -5.13600   -1.01220    0.00000    4.68520    0.02300   -0.59800  123.42000  108.19000  # cp,cp,oh,ho
dihedral_coeff	11 at    0.00000    2.45010    0.00000    0.00000    2.45010    0.00000  117.94000  117.94000  # hc,cp,cp,hc
dihedral_coeff	12 at    0.00000    1.87290    0.00000    0.00000    2.57060    0.00000  117.94000  123.42000  # hc,cp,cp,oc
dihedral_coeff	13 at    0.00000    1.87290    0.00000    0.00000    2.57060    0.00000  117.94000  123.42000  # hc,cp,cp,oh

# AngleAngleTorsion Coeffs

dihedral_coeff	 1 aat    0.00000  108.40000  118.90000  # c_0,cp,cp,cp
dihedral_coeff	 2 aat    0.00000  108.40000  117.94000  # c_0,cp,cp,hc
dihedral_coeff	 3 aat    0.00000  110.58840  108.40000  # cp,c_0,cp,cp
dihedral_coeff	 4 aat    0.00000  108.40000  119.30000  # cp,cp,c_0,o_1
dihedral_coeff	 5 aat    0.00000  118.90000  118.90000  # cp,cp,cp,cp
dihedral_coeff	 6 aat   -4.81410  118.90000  117.94000  # cp,cp,cp,hc
dihedral_coeff	 7 aat  -21.02470  118.90000  123.42000  # cp,cp,cp,oc
dihedral_coeff	 8 aat  -21.02470  118.90000  123.42000  # cp,cp,cp,oh
dihedral_coeff	 9 aat    0.00000  123.42000  109.50000  # cp,cp,oc,cp
dihedral_coeff	10 aat   -4.60720  123.42000  108.19000  # cp,cp,oh,ho
dihedral_coeff	11 aat    0.35980  117.94000  117.94000  # hc,cp,cp,hc
dihedral_coeff	12 aat    4.22960  117.94000  123.42000  # hc,cp,cp,oc
dihedral_coeff	13 aat    4.22960  117.94000  123.42000  # hc,cp,cp,oh

# BondBond13 Coeffs

dihedral_coeff	 1 bb13    0.00000    1.48900    1.41700  # c_0,cp,cp,cp
dihedral_coeff	 2 bb13    0.00000    1.48900    1.09820  # c_0,cp,cp,hc
dihedral_coeff	 3 bb13    0.00000    1.48900    1.41700  # cp,c_0,cp,cp
dihedral_coeff	 4 bb13    0.00000    1.41700    1.21600  # cp,cp,c_0,o_1
dihedral_coeff	 5 bb13   53.00000    1.41700    1.41700  # cp,cp,cp,cp
dihedral_coeff	 6 bb13   -6.27410    1.41700    1.09820  # cp,cp,cp,hc
dihedral_coeff	 7 bb13   -2.24360    1.41700    1.37680  # cp,cp,cp,oc
dihedral_coeff	 8 bb13   -2.24360    1.41700    1.37680  # cp,cp,cp,oh
dihedral_coeff	 9 bb13    0.00000    1.41700    1.37680  # cp,cp,oc,cp
dihedral_coeff	10 bb13    1.15900    1.41700    0.96500  # cp,cp,oh,ho
dihedral_coeff	11 bb13   -1.70770    1.09820    1.09820  # hc,cp,cp,hc
dihedral_coeff	12 bb13    2.05170    1.09820    1.37680  # hc,cp,cp,oc
dihedral_coeff	13 bb13    2.05170    1.09820    1.37680  # hc,cp,cp,oh

# Improper Coeffs

improper_coeff	1   38.79490    0.00000  # c_0,cp,cp,o_1
improper_coeff	2    0.00000    0.00000  # cp,c_0,cp,cp
improper_coeff	3    4.89120    0.00000  # cp,cp,cp,hc
improper_coeff	4   13.04210    0.00000  # cp,cp,cp,oc
improper_coeff	5   13.04210    0.00000  # cp,cp,cp,oh

# AngleAngle Coeffs

improper_coeff	1 aa    0.00000    0.00000    0.00000  110.58840  119.30000  119.30000  # c_0,cp,cp,o_1
improper_coeff	2 aa    0.00000    0.00000    0.00000  108.40000  108.40000  118.90000  # cp,c_0,cp,cp
improper_coeff	3 aa    0.00000    0.00000    0.00000  118.90000  117.94000  117.94000  # cp,cp,cp,hc
improper_coeff	4 aa    0.00000    0.00000    0.00000  118.90000  123.42000  123.42000  # cp,cp,cp,oc
improper_coeff	5 aa    0.00000    0.00000    0.00000  118.90000  123.42000  123.42000  # cp,cp,cp,oh


# --- Thermo Output ---
thermo_style custom step time temp press enthalpy etotal ke pe ebond eangle edihed eimp evdwl ecoul elong etail vol lx ly lz density pxx pyy pzz
thermo_modify flush yes
thermo 1000

# --- Trajectory ---
dump dump_npt all custom 1000 npt_production.dump id type mol x y z ix iy iz vx vy vz

# --- Restart Checkpointing ---
# No restart checkpointing

# --- Initial Velocities (optional) ---
# Velocities read from data file

# --- SHAKE Constraints ---
# SHAKE disabled

# --- NPT Thermostat + Barostat (Nose-Hoover) ---
# T_damp = 100.0 fs  (heat bath coupling)
# P_damp = 1000.0 fs  (pressure bath coupling, ~10x T_damp typical)
# Ramp: T=770.0->770.0K  P=1.0->1.0atm
timestep 1.0
fix npt_fix all npt temp 770.0 770.0 100.0 iso 1.0 1.0 1000.0

run 1000000
PPPM Kokkos initialization ...
  using 12-bit tables for long-range coulomb
  G vector (1/distance) = 0.31209042
  grid = 40 40 40
  stencil order = 5
  estimated absolute RMS force accuracy = 0.00026733666
  estimated relative force accuracy = 8.0507641e-07
  using double precision cuFFT
  3d grid and FFT values/proc = 103823 64000
Generated 21 of 21 mixed pair_coeff terms from sixthpower/sixthpower mixing rule
Neighbor list info ...
  update: every = 1 steps, delay = 0 steps, check = yes
  max neighbors/atom: 4000, page size: 100000
  master list distance cutoff = 11.5
  ghost atom cutoff = 11.5
  binsize = 11.5, bins = 5 5 5
  1 neighbor lists, perpetual/occasional/extra = 1 0 0
  (1) pair lj/class2/coul/long/kk, perpetual
      attributes: full, newton off, kokkos_device
      pair build: full/bin/kk/device
      stencil: full/bin/3d
      bin: kk/device
Per MPI rank memory allocation (min/avg/max) = 37.88 | 37.88 | 37.88 Mbytes
   Step          Time           Temp          Press         Enthalpy        TotEng         KinEng         PotEng         E_bond        E_angle        E_dihed        E_impro         E_vdwl         E_coul         E_long         E_tail         Volume           Lx             Ly             Lz          Density          Pxx            Pyy            Pzz      
         0   0              764.29359     -668.76372      51701.67       52845.192      19863.748      32981.444      8268.959       8907.2995      9117.4237      1058.6171      213.28712      15947.513     -10531.656     -685.63898      117245.4       48.943903      48.943903      48.943903      1.0455416     -911.63209     -693.91403     -400.74505    
      1000   1000           779.97106     -1102.1624      51509.306      53385.437      20271.2        33114.237      8204.4465      8763.3726      9373.1559      1134.4729      231.75278      15943.533     -10536.497     -688.73103      116719.02      48.870549      48.870549      48.870549      1.0502568     -2215.1803      94.791065     -1186.098     
      2000   2000           770.13412      31.651879      53427.99       53373.019      20015.541      33357.478      8349.7087      8858.6207      9146.2106      1116.0398      454.65872      15950.797     -10518.558     -675.05555      119083.55      49.198356      49.198356      49.198356      1.0294028     -1992.6637      252.67809      1834.9413    
      3000   3000           759.21345     -1668.8392      50588.964      53428.512      19731.717      33696.795      8639.3435      8970.0379      9299.1747      1100.6209      239.14251      15969.312     -10520.836     -689.02101      116669.9       48.863692      48.863692      48.863692      1.050699      -386.73385     -3251.3468     -1368.4369    
      4000   4000           771.30715      221.73379      54008.327      53623.711      20046.028      33577.683      8513.0325      8887.2469      9267.2379      1099.5587      349.83624      15986.673     -10525.902     -675.88358      118937.66      49.178257      49.178257      49.178257      1.0306655      1089.6636      1145.4849     -1569.9471    
      5000   5000           764.36599      384.90994      53859.543      53188.964      19865.63       33323.334      8422.893       8617.0376      9303.8067      1097.1981      470.00128      15944.674     -10532.277     -672.93998      119457.92      49.249859      49.249859      49.249859      1.0261767      566.57671      1652.0899     -1063.9368    
      6000   6000           778.46039     -1414.8491      51085.959      53503.048      20231.939      33271.11       8500.8941      8702.5491      9370.155       1064.3915      200.79174      15953.588     -10521.26      -686.25352      117140.4       48.929289      48.929289      48.929289      1.0464788     -1787.0046     -483.48732     -1974.0555    
      7000   7000           767.11043      774.63615      54383.122      53059.508      19936.957      33122.551      8499.6934      8723.1289      9063.204       1101.6744      304.4013       15960.001     -10529.552     -686.12558      117162.24      48.93233       48.93233       48.93233       1.0462837     -511.60903      2057.8554      777.66205    
      8000   8000           767.29311     -1355.9131      50796.541      53137.475      19941.705      33195.771      8485.6961      8600.2892      9226.373       1092.247       382.07883      15937.536     -10528.45      -679.06271      118380.84      49.101392      49.101392      49.101392      1.0355134     -3246.0154     -75.38688      -746.33697    
      9000   9000           764.31226      671.77694      54538.491      53386.997      19864.233      33522.764      8555.3522      8852.153       9246.9411      1133.8517      304.75264      15959.114     -10529.401     -683.95991      117533.22      48.983921      48.983921      48.983921      1.0429812     -863.77898      157.15357      2721.9562    
     10000   10000          767.29169      997.8083       55008.39       53270.65       19941.668      33328.983      8268.9719      8769.9916      9327.926       1127.1791      381.02061      15979.839     -10525.946     -673.1774       119415.79      49.244068      49.244068      49.244068      1.0265388      3046.7042     -118.71978      65.440485    
     11000   11000          775.48196      637.6608       54768.893      53654.249      20154.53       33499.719      8559.9135      8787.2702      9208.4695      1102.7168      397.46922      15973.868     -10529.989     -670.68835      119858.97      49.304911      49.304911      49.304911      1.0227432      1451.2247      210.57179      251.18589    
     12000   12000          775.46507      169.01946      53725.844      53435.577      20154.091      33281.486      8630.9832      8700.0501      9036.8267      1063.7805      435.02754      15946.554     -10531.736     -682.66304      117756.5       49.01492       49.01492       49.01492       1.0410036     -227.19044      363.16859      371.08023    
     13000   13000          753.73414     -905.97817      51830.447      53390.764      19589.311      33801.453      8710.6758      8839.0096      9322.7901      1151.2276      323.84811      15974.188     -10520.286     -680.72527      118091.71      49.061385      49.061385      49.061385      1.0380486     -415.74708     -1149.9166     -1152.2709    
     14000   14000          761.47351      521.01575      54072.208      53170.642      19790.455      33380.187      8516.1848      8732.5234      9223.0806      1131.8793      327.22541      15969.534     -10520.24      -677.51768      118650.8       49.138688      49.138688      49.138688      1.0331573      398.76517      632.38095      531.90113    
     15000   15000          775.53816     -741.86415      52093.368      53369.42       20155.991      33213.429      8500.2332      8681.1729      9272.0114      1101.6522      225.66819      15964.176     -10531.485     -681.59034      117941.83      49.04062       49.04062       49.04062       1.0393678     -2090.1761      1449.2155     -1584.6318    
     16000   16000          770.59972      1175.7157      55706.937      53681.852      20027.642      33654.21       8676.2289      8631.4344      9314.3252      1148.4779      438.18947      15966.518     -10520.964     -680.65393      118104.09      49.063099      49.063099      49.063099      1.0379398     -1379.0067      2183.2143      2722.9394    
     17000   17000          759.87239      92.122772      53253.517      53094.1        19748.842      33345.257      8513.5311      8736.4662      9175.0049      1107.5423      411.14222      15932.908     -10531.337     -677.48354      118656.78      49.139513      49.139513      49.139513      1.0331053     -64.646362     -333.477        674.49167    
     18000   18000          770.1968      -513.1082       52821.369      53703.673      20017.17       33686.502      8620.2684      8831.8857      9361.0817      1125.145       325.19671      15951.238     -10528.313     -681.80144      117905.31      49.035558      49.035558      49.035558      1.0396897     -620.25051      458.50811     -1377.5822    
     19000   19000          777.71281      1769.2879      56712.787      53652.242      20212.509      33439.733      8604.3901      8691.7962      9212.0611      1118.166       406.52999      15937.258     -10530.468     -677.74585      118610.85      49.133173      49.133173      49.133173      1.0335053      462.8001       3709.4489      1135.6147    
     20000   20000          767.74191     -77.529939      53281.412      53417.646      19953.369      33464.278      8588.0759      8747.3829      9077.5079      1111.4517      512.50382      15952.201     -10524.846     -667.19242      120487         49.390876      49.390876      49.390876      1.0174122      275.91064      225.14648     -733.64694    
     21000   21000          774.09202     -729.61016      52461.141      53725.423      20118.406      33607.017      8601.6087      8794.759       9307.3235      1118.489       365.11519      15950.66      -10530.939     -676.57187      118816.67      49.161575      49.161575      49.161575      1.0317151     -333.16137     -59.768785     -1795.9003    
     22000   22000          778.18802     -357.08457      53106.603      53730.875      20224.86       33506.015      8500.357       8885.9611      9110.3676      1097.1276      447.73785      15984.549     -10520.085     -670.6006       119874.65      49.307061      49.307061      49.307061      1.0226094      940.81455     -194.93218     -1817.1361    
     23000   23000          764.93048     -528.9463       52483.074      53393.288      19880.3        33512.987      8789.1127      8802.4001      9001.0788      1049.9394      433.63334      15955.949     -10519.126     -681.29553      117992.87      49.047693      49.047693      49.047693      1.0389182     -177.23952     -2312.0117      902.41235    
     24000   24000          773.35308      921.46187      55120.845      53532.835      20099.201      33433.633      8694.5566      8706.5771      9221.0748      1072.1246      276.48126      15979.656     -10516.837     -680.28549      118168.06      49.071955      49.071955      49.071955      1.037378      -80.159739      333.86149      2510.6839    
     25000   25000          758.25626     -1932.0429      49926.186      53223.119      19706.84       33516.279      8610.45        8741.1623      9393.4408      1120.9594      211.03831      15960.661     -10521.432     -687.02702      117008.52      48.910919      48.910919      48.910919      1.0476583     -4257.7848      350.05671     -1888.4007    
     26000   26000          765.60522     -299.25171      52494.853      53014.511      19897.837      33116.674      8523.8407      8737.4261      9093.788       1058.7466      262.87334      15961.299     -10521.3       -675.12886      119070.62      49.196576      49.196576      49.196576      1.0295146     -1032.4207     -503.05135      637.71689    
     27000   27000          772.27747      1464.5996      56212.831      53658.139      20071.247      33586.892      8625.085       8852.7134      9150.0824      1100.3213      422.19361      15962.548     -10526.051     -672.12122      119603.44      49.269849      49.269849      49.269849      1.0249282      627.40205      1275.2313      2491.1655    
     28000   28000          773.37167     -620.19634      52256.866      53338.666      20099.684      33238.982      8645.2721      8516.1549      9163.4478      1085.7869      386.01003      15956.827     -10514.517     -672.12391      119602.97      49.269783      49.269783      49.269783      1.0249323     -479.26389     -460.80993     -920.5152     
     29000   29000          770.29724      520.09412      54748.896      53831.499      20019.781      33811.718      8745.4314      8689.2587      9242.9066      1106.7664      579.34462      15966.603     -10518.593     -664.64809      120948.24      49.45382       49.45382       49.45382       1.0135323      547.53145     -1020.5309      2033.2818    
     30000   30000          768.43741      904.63214      54803.81       53221.326      19971.445      33249.881      8499.6585      8876.829       8916.4794      1088.8173      396.07435      15982.254     -10510.231     -670.19294      119947.57      49.317057      49.317057      49.317057      1.0219877      954.92396      1923.0216     -164.04911    
     31000   31000          769.10898      1240.4615      55429.531      53275.817      19988.898      33286.919      8405.9185      8628.3846      9351.044       1112.2474      345.76414      15961.429     -10517.869     -675.24695      119049.8       49.193708      49.193708      49.193708      1.0296947      812.75342      1585.1941      1323.437     
     32000   32000          777.32657     -1019.2831      52143.414      53942.989      20202.471      33740.518      8461.6567      8767.6519      9393.316       1152.2771      525.13213      15960.007     -10519.523     -664.0369       121059.56      49.468988      49.468988      49.468988      1.0126003     -1407.8353      843.8091      -2493.823     
     33000   33000          766.91439      666.31407      54400.254      53234.834      19931.862      33302.972      8464.6035      8679.2772      9262.8743      1094.279       372.82524      15955.334     -10526.221     -670.29153      119929.92      49.314638      49.314638      49.314638      1.0221381     -927.38526      2255.8212      670.50622    
     34000   34000          774.62173      1432.9053      55923.132      53435.8        20132.173      33303.627      8475.4769      8699.5167      9167.8025      1081.7367      434.88459      15962.488     -10518.279     -675.38434      119025.58      49.190371      49.190371      49.190371      1.0299042      1415.6372      723.25485      2159.824     
     35000   35000          769.79556     -193.68835      53126.897      53466.056      20006.742      33459.313      8497.3807      8953.2523      9005.9852      1098.9464      476.72465      15949.302     -10522.279     -669.52741      120066.8       49.333392      49.333392      49.333392      1.0209729      764.89763     -953.60597     -392.35673    
     36000   36000          775.36884      1701.5071      56346.055      53370.065      20151.59       33218.475      8445.7229      8685.8963      9107.578       1122.2954      414.56433      15969.027     -10526.609     -670.30041      119928.34      49.314421      49.314421      49.314421      1.0221516      1840.915       1376.2639      1887.3423    
     37000   37000          755.92456     -707.12391      51806.955      53035.799      19646.24       33389.56       8519.0364      8712.5701      9282.1179      1080.1797      367.50053      15952.283     -10524.128     -674.63012      119158.65      49.208696      49.208696      49.208696      1.0287541     -1604.6987      355.08122     -871.75424    
     38000   38000          775.26016     -985.30738      51739.256      53425.898      20148.766      33277.132      8505.1987      8665.592       9231.0434      1123.9172      322.40886      15949.896     -10520.924     -684.88229      117374.93      48.961921      48.961921      48.961921      1.0443878     -1548.8749      189.66822     -1596.7155    
     39000   39000          772.35186     -477.59802      52402.282      53230.993      20073.18       33157.813      8531.8058      8671.8848      9015.3804      1102.9634      413.74696      15947.087     -10525.055     -675.65722      118977.51      49.183748      49.183748      49.183748      1.0303203     -1230.332       881.0543      -1083.5164    
     40000   40000          776.98547     -1251.0344      51420.858      53605.881      20193.606      33412.275      8585.9808      8654.5412      9310.8444      1090.869       365.56224      15940.821     -10536.343     -671.24388      119759.77      49.291305      49.291305      49.291305      1.0235903     -2477.9801      568.42816     -1843.5512    
     41000   41000          774.12271     -1608.1276      51102.625      53907.105      20119.204      33787.901      8563.9348      8910.5087      9394.5751      1095.0589      394.40951      15952.493     -10523.078     -672.25688      119579.31      49.266534      49.266534      49.266534      1.0251351     -1995.7639     -1044.5609     -1784.0578    
     42000   42000          770.94251      351.61488      53983.459      53370.074      20036.551      33333.523      8639.2698      8779.6556      8993.8491      1113.6666      408.35239      15929.751     -10531.021     -672.04959      119616.19      49.271599      49.271599      49.271599      1.024819       725.16425      1608.2068     -1278.5264    
     43000   43000          772.49286     -830.49704      52295.282      53721.971      20076.845      33645.127      8557.0297      8910.0229      9269.6209      1102.6827      405.06802      15925.754     -10525.052     -682.45808      117791.87      49.019827      49.019827      49.019827      1.040691      -398.66209     -1037.9122     -1054.9169    
     44000   44000          766.21825     -1492.6033      50847.044      53414.913      19913.769      33501.144      8613.174       8797.0516      9138.8236      1137.546       415.84429      15927.333     -10528.629     -681.45733      117964.85      49.043811      49.043811      49.043811      1.039165      -1994.4391     -431.39783     -2051.9731    
     45000   45000          769.37324     -1200.557       51108.981      53208.315      19995.767      33212.548      8545.5671      8689.3336      9058.5527      1085.3572      431.51514      15926.692     -10524.47      -670.45311      119901.02      49.310677      49.310677      49.310677      1.0223845     -1180.1151     -2116.9512     -304.60462    
     46000   46000          786.79645     -94.428982      53667.969      53831.746      20448.59       33383.156      8521.2433      8780.5697      9095.8357      1114.1105      427.46512      15965.937     -10522.005     -675.96036      118924.15      49.176395      49.176395      49.176395      1.0307826      1049.247       869.94243     -2202.4764    
     47000   47000          765.96966      37.719314      53634.33       53568.717      19907.308      33661.409      8696.9458      8903.7902      9092.5775      1117.7051      409.90273      15963.768     -10523.281     -673.97433      119274.59      49.224651      49.224651      49.224651      1.027754       837.71524      951.31342     -1675.8707    
     48000   48000          774.28791     -709.13123      52116.321      53345.832      20123.497      33222.335      8541.1571      8715.9028      9037.6566      1095.1608      396.48307      15954.972     -10518.998     -676.17816      118885.85      49.171115      49.171115      49.171115      1.0311147     -883.13983     -1637.4089      393.15501    
     49000   49000          776.66362      795.06453      54993.437      53619.038      20185.241      33433.797      8572.3548      8873.6561      9054.5034      1083.2057      436.9692       15940.902     -10527.794     -678.19849      118531.69      49.12224       49.12224       49.12224       1.0341955      106.30025      2524.0871     -245.1937     
     50000   50000          767.04954      2186.669       57274.755      53545.593      19935.374      33610.219      8801.1063      8737.1211      9203.6563      1137.0923      318.80508      15936.934     -10524.497     -687.44657      116937.11      48.900967      48.900967      48.900967      1.0482981      2867.2029      2391.5398      1301.2642    
     51000   51000          764.62803     -156.69073      53043.973      53315.564      19872.44       33443.124      8458.4637      8742.6074      9243.8983      1132.0678      425.89557      15963.551     -10523.359     -676.38519      118849.46      49.166097      49.166097      49.166097      1.0314304     -535.1134       524.27263     -459.23143    
     52000   52000          772.51913      88.061465      53902.042      53749.683      20077.527      33672.155      8717.0438      8849.3923      9124.2799      1081.5146      469.62855      15952.587     -10522.291     -677.6155       118633.67      49.136323      49.136323      49.136323      1.0333065      1049.6189     -1190.4075      404.97294    
     53000   53000          775.27419      55.211715      53684.692      53588.095      20149.13       33438.964      8498.6539      8955.7953      9170.6836      1127.0858      257.31746      15956.532     -10527.104     -670.09049      119965.91      49.31957       49.31957       49.31957       1.0218315      2150.4888     -1047.6678     -937.18589    
     54000   54000          766.19084      272.29249      53680.432      53213.041      19913.057      33299.984      8516.6173      8805.1964      9161.2201      1119.7452      279.637        15943.727     -10526.16      -683.00224      117698.02      49.006805      49.006805      49.006805      1.0415208     -116.33007      1035.5972     -102.38968    
     55000   55000          768.81354      646.74935      54408.418      53290.032      19981.22       33308.812      8685.3831      8734.2943      8989.2794      1101.8475      395.728        15925.629     -10523.349     -677.9712       118571.43      49.127728      49.127728      49.127728      1.0338489      1996.7542      953.90262     -1010.4088    
     56000   56000          768.29843      1294.0922      55265.15       53057.609      19967.833      33089.776      8646.3093      8606.5789      9005.1838      1053.8311      347.4573       15950.471     -10520.055     -687.264        116968.17      48.905297      48.905297      48.905297      1.0480197      2139.3097     -53.413706      1796.3805    
     57000   57000          772.97881      767.56577      54535.75       53225.772      20089.474      33136.298      8608.9503      8849.1841      8852.1996      1076.6767      311.03513      15958.381     -10520.129     -686.93963      117023.4       48.912993      48.912993      48.912993      1.047525       431.40485      899.93004      971.36243    
     58000   58000          772.04053      328.89538      54053.627      53485.833      20065.089      33420.745      8609.4618      8917.9336      9013.7672      1097.1544      348.78912      15953.105     -10519.467     -679.10079      118374.2       49.100474      49.100474      49.100474      1.0355715      168.98845      1043.8191     -226.12143    
     59000   59000          764.76043      1319.0412      54897.389      52645.381      19875.881      32769.5        8465.8808      8559.6638      8978.36        1108.4572      240.90826      15940.13      -10523.901     -686.68178      117067.35      48.919115      48.919115      48.919115      1.0471318      1077.7709      1331.3646      1547.9881    
     60000   60000          766.78368      1609.7059      56146.891      53382.621      19928.465      33454.156      8608.9433      8959.4545      8963.8997      1095.7352      383.89416      15964.892     -10522.662     -682.70532      117749.21      49.013909      49.013909      49.013909      1.041068       1969.806       1001.5509      1857.7609    
     61000   61000          779.25777      502.41592      54408.316      53542.35       20252.662      33289.688      8584.8599      8887.1382      8964.9713      1097.3657      323.37337      15956.652     -10524.673     -680.18891      118184.83      49.074278      49.074278      49.074278      1.0372307      2374.4743     -820.35767     -46.868897    
     62000   62000          772.22367      765.2527       54622.585      53311.251      20069.848      33241.403      8622.778       8820.6068      8946.118       1096.1452      342.64601      15936.813     -10523.704     -684.16164      117498.57      48.979107      48.979107      48.979107      1.0432888     -190.61313      2010.4092      475.96202    
     63000   63000          764.09751     -1090.6119      51284.264      53151.658      19858.652      33293.006      8411.078       8757.1809      9278.732       1134.0604      298.31634      15941.486     -10527.848     -684.70184      117405.87      48.966222      48.966222      48.966222      1.0441126     -1561.9092     -2054.919       344.99266    
     64000   64000          772.42275      286.28213      54050.242      53558.975      20075.022      33483.952      8502.0547      8887.5055      9280.1021      1099.6512      302.47822      15938.89      -10526.729     -683.19289      117665.18      49.002246      49.002246      49.002246      1.0418116      405.31972      795.93711     -342.41044    
     65000   65000          762.80983      3017.3467      58316.963      53107.983      19825.186      33282.798      8541.2077      8943.6755      8800.4046      1107.7199      452.00545      15961.007     -10523.222     -679.10932      118372.71      49.100269      49.100269      49.100269      1.0355845      1557.7267      1457.6237      6036.6896    
     66000   66000          771.50279      160.83578      53473.782      53195.623      20051.113      33144.51       8546.2196      8821.6435      8883.636       1087.4155      382.95784      15945.833     -10523.195     -677.88743      118586.08      49.129752      49.129752      49.129752      1.0337212      1676.6073     -478.3951      -715.70485    
     67000   67000          764.7728       790.52102      54659.648      53295.722      19876.202      33419.52       8602.5991      8689.611       9098.9493      1103.049       468.93972      15978.674     -10522.302     -679.50056      118304.56      49.090843      49.090843      49.090843      1.0361811      3528.2784     -604.75675     -551.95861    
     68000   68000          769.94927      405.126        54209.854      53510.371      20010.737      33499.633      8523.4179      8793.815       9300.6851      1149.1644      292.82183      15956.433     -10516.705     -679.01608      118388.97      49.102516      49.102516      49.102516      1.0354423      2315.0211     -1213.8817      114.23857    
     69000   69000          774.22694      1080.1115      55153.221      53310.293      20121.913      33188.381      8558.6498      8588.2366      9238.8         1055.3526      300.339        15967.206     -10520.203     -687.11213      116994.02      48.9089        48.9089        48.9089        1.0477881      771.05938      986.98682      1482.2883    
     70000   70000          761.04824      32.76856       52728.592      52672.836      19779.402      32893.433      8398.6726      8542.1522      9155.4882      1077.4738      285.68524      15961.106     -10527.145     -689.01597      116670.75      48.863811      48.863811      48.863811      1.0506913     -102.17915     -539.44288      739.92771    
     71000   71000          773.33386      230.25992      53897.559      53505.969      20098.702      33407.267      8470.3681      8814.0762      9286.1114      1129.0305      281.10171      15950.298     -10523.718     -689.37186      116610.52      48.855401      48.855401      48.855401      1.051234      -582.58609      2358.2584     -1084.8925    
     72000   72000          772.04906     -491.41602      52687.787      53526.477      20065.31       33461.167      8546.61        8688.6227      9365.6495      1117.8558      349.4226       15925.086     -10532.079     -686.934        117024.36      48.913127      48.913127      48.913127      1.0475164     -1521.1506      823.92265     -777.02014    
     73000   73000          766.99142     -1359.1401      50892.482      53245.124      19933.864      33311.26       8607.0176      8631.4221      9274.8014      1111.4756      268.03198      15936.676     -10518.165     -677.2915       118690.42      49.144157      49.144157      49.144157      1.0328124     -608.21375     -1593.3537     -1875.8528    
     74000   74000          773.20215      1269.6517      55566.005      53400.338      20095.279      33305.059      8697.7627      8776.9635      9004.4971      1127.9583      263.66337      15954.24      -10520.025     -687.32168      116958.35      48.903929      48.903929      48.903929      1.0481076      2726.4904     -594.21291      1676.6774    
     75000   75000          775.99071     -588.3262       52123.6        53131.289      20167.752      32963.536      8380.271       8748.3014      9076.6989      1121.7111      240.76084      15927.078     -10531.285     -684.47736      117444.37      48.971575      48.971575      48.971575      1.0437703     -287.88208      1095.5675     -2572.6641    
     76000   76000          777.27602      142.01925      53856.874      53615.918      20201.157      33414.761      8708.5973      8860.6834      9080.8535      1097.8053      217.0683       15964.842     -10515.089     -690.99738      116336.2       48.817061      48.817061      48.817061      1.0537127     -441.07205     -849.29769      1716.4275    
     77000   77000          765.58791     -526.69863      52201.283      53095.225      19897.387      33197.838      8532.3911      8858.7139      9074.4729      1113.5808      170.15021      15969.291     -10520.762     -690.74845      116378.13      48.822925      48.822925      48.822925      1.0533331     -1020.3316     -757.09492      197.33061    
     78000   78000          778.21507      725.76721      54899.647      53660.761      20225.563      33435.198      8656.6238      8858.8349      9053.8428      1121.6469      290.39385      15969.713     -10515.857     -686.80492      117046.36      48.916191      48.916191      48.916191      1.0473196     -288.84121      1177.0742      1289.0686    
     79000   79000          771.45319      891.16987      54953.583      53430.234      20049.824      33380.41       8557.6471      8917.9424      9065.344       1096.6336      308.15819      15955.879     -10521.195     -685.84862      117209.56      48.938916      48.938916      48.938916      1.0458613      2131.4402      1570.4747     -1028.4052    
     80000   80000          760.35729     -306.1244       52764.33       53285.866      19761.445      33524.421      8491.4733      8796.7211      9351.3783      1146.9386      311.41518      15954.513     -10528.018     -688.1458       116818.29      48.884399      48.884399      48.884399      1.0493643      1294.9758     -802.13563     -1411.2134    
     81000   81000          774.99966     -637.42341      52478.913      53573.965      20141.995      33431.97       8423.5952      8820.2899      9404.4953      1145.7082      215.45701      15950.163     -10527.739     -682.43385      117796.05      49.020407      49.020407      49.020407      1.0406541     -504.66611     -477.24448     -930.35964    
     82000   82000          763.23892     -965.04924      51384.716      53022.249      19836.338      33185.911      8530.7929      8679.0215      9311.8702      1104.496       131.096        15959.041     -10530.407     -690.91814      116349.55      48.818927      48.818927      48.818927      1.0535919     -1592.956       283.94122     -1586.133     
     83000   83000          766.96032     -1902.314       49989.281      53242.976      19933.056      33309.921      8482.6092      8827.314       9239.3079      1132.2092      226.98789      15929.532     -10528.04      -685.44495      117278.58      48.948521      48.948521      48.948521      1.0452458     -4246.9352     -634.63611     -825.37053    
     84000   84000          787.20838      832.64566      55180.345      53776.729      20459.296      33317.433      8481.9036      8751.8453      9319.9584      1112.0176      223.2881       15953.397     -10524.977     -695.47127      115587.83      48.712158      48.712158      48.712158      1.060535       2229.8439      224.40108      43.691981    
     85000   85000          770.27876     -1020.3897      51461.931      53217.613      20019.301      33198.313      8435.9101      8840.4032      9213.1945      1112.7149      202.91244      15921.801     -10528.624     -681.37665      117978.82      49.045747      49.045747      49.045747      1.0390419     -1022.728      -892.44833     -1145.9929    
     86000   86000          768.70959      1033.8657      55302.288      53538.809      19978.518      33560.29       8794.8387      8792.0217      9192.7907      1123.5155      235.81772      15947.337     -10526.031     -687.32293      116958.14      48.903899      48.903899      48.903899      1.0481095      473.77862      2382.3802      245.43823    
     87000   87000          770.71078     -632.28772      52736.421      53818.064      20030.529      33787.536      8638.9569      8901.3555      9325.2691      1109.3466      381.17774      15955.534     -10524.104     -685.32693      117298.78      48.95133       48.95133       48.95133       1.0450658     -872.8706      -367.60128     -656.39128    
     88000   88000          769.50742     -917.53075      51670.848      53247.654      19999.254      33248.401      8504.7052      8626.7979      9164.7423      1126.184       380.62441      15970.352     -10525.005     -682.19644      117837.05      49.026093      49.026093      49.026093      1.040292      -2059.2988     -137.14124     -556.15216    
     89000   89000          766.22787     -1013.7254      51366.048      53111.372      19914.019      33197.353      8650.6293      8774.1848      8994.867       1059.741       299.2824       15950.572     -10531.924     -680.94403      118053.78      49.056131      49.056131      49.056131      1.0383822     -892.09544     -1846.8409     -302.23986    
     90000   90000          772.96923      91.615244      53596.28       53437.578      20089.225      33348.353      8585.9         8960.1318      9028.601       1053.6342      297.35724      15950.802     -10528.073     -676.78746      118778.82      49.156354      49.156354      49.156354      1.0320438     -1106.0123      488.68156      892.17652    
     91000   91000          768.24563      1685.5601      56287.48       53381.739      19966.46       33415.279      8741.1839      8837.6882      9063.2109      1110.5672      232.2363       15952.303     -10521.911     -680.07149      118205.24      49.077102      49.077102      49.077102      1.0370517      1950.3832      1180.1202      1926.1769    
     92000   92000          771.29272     -1293.6544      51122.92       53341.517      20045.653      33295.863      8417.56        8788.7659      9255.7091      1138.5307      279.90601      15942.302     -10526.91      -683.60783      117593.76      48.992329      48.992329      48.992329      1.0424443     -364.13915     -630.44332     -2886.3807    
     93000   93000          761.01489      663.90925      54110.213      52982.289      19778.536      33203.753      8554.0768      8813.8826      9023.6677      1135.3565      259.48118      15946.293     -10529.005     -690.0744       116491.81      48.838816      48.838816      48.838816      1.0523053     -1015.3298      967.1707       2039.8869    
     94000   94000          775.02676      228.0161       54057.537      53666.462      20142.7        33523.763      8837.4549      8793.4203      9069.6389      1086.9652      287.01988      15974.869     -10525.606     -683.55392      117603.03      48.993617      48.993617      48.993617      1.0423621      86.13337       358.88883      239.02611    
     95000   95000          767.58944      921.33017      54518.217      52954.202      19949.406      33004.796      8490.6945      8738.9171      9025.1316      1110.7259      227.45379      15942.677     -10530.804     -690.62406      116399.09      48.825856      48.825856      48.825856      1.0531435     -190.18967     -81.354552      3035.5347    
     96000   96000          773.23683      116.81981      53729.099      53529.555      20096.18       33433.375      8814.6247      8877.4712      8912.978       1065.6932      341.04197      15946.441     -10524.875     -686.34954      117124.01      48.927007      48.927007      48.927007      1.0466252      587.11217      173.18786     -409.84059    
     97000   97000          776.24358     -244.92577      52773.532      53194.104      20174.325      33019.779      8337.9425      8752.9902      9210.0817      1111.6009      169.42499      15971.958     -10534.219     -682.74978      117741.54      49.012844      49.012844      49.012844      1.0411359     -1673.7377      1874.5036     -935.54326    
     98000   98000          776.10147     -106.40687      53048.108      53229.283      20170.631      33058.652      8178.6372      8867.8057      9080.6033      1108.1082      392.2525       15966.65      -10535.405     -688.55609      116748.68      48.874687      48.874687      48.874687      1.04999        543.14086      261.18099     -1123.5425    
     99000   99000          766.80991      1315.5048      55331.788      53080.142      19929.146      33150.996      8616.0062      8732.2451      8971.6304      1123.8068      280.755        15959.091     -10532.539     -684.951        117363.16      48.960284      48.960284      48.960284      1.0444925      730.05336      1928.1524      1288.3087    
    100000   100000         771.66563      122.04725      53562.263      53354.756      20055.345      33299.411      8525.1646      9038.7957      8989.4141      1085.4324      242.15877      15946.716     -10528.27      -689.54564      116581.13      48.851296      48.851296      48.851296      1.051499      -5.1049278     -1300.697       1671.9436    
    101000   101000         772.12532     -688.42976      52237.783      53419.895      20067.292      33352.603      8556.2616      8800.0118      9159.9794      1091.0495      304.38997      15969.261     -10528.351     -682.76051      117739.69      49.012588      49.012588      49.012588      1.0411522      349.31502     -1455.69       -958.9143     
    102000   102000         759.3795       588.6246       54179.233      53169.011      19736.032      33432.979      8485.5111      8947.1967      9108.3241      1110.4344      297.09122      15997.723     -10513.302     -683.10734      117679.91      49.004291      49.004291      49.004291      1.0416811     -593.5836       2233.8599      125.59753    
    103000   103000         771.11377     -982.76985      51594.534      53252.274      20041.002      33211.272      8432.2198      8859.719       9155.83        1136.3933      196.98963      15958.442     -10528.322     -695.02842      115661.48      48.722501      48.722501      48.722501      1.0598597     -3471.0818      972.75884     -449.98657    
    104000   104000         771.4771       545.5113       54278          53348.446      20050.445      33298.001      8502.0765      8881.7254      9163.466       1070.4968      267.11109      15940.352     -10527.227     -688.01248      116840.92      48.887556      48.887556      48.887556      1.049161      -559.09247      1107.7938      1087.8326    
    105000   105000         773.95226      591.70519      54245.922      53221.621      20114.774      33106.847      8473.3361      8739.597       9017.0191      1111.1481      312.23681      15975.574     -10522.064     -677.24398      118698.75      49.145306      49.145306      49.145306      1.03274       -357.11301      1535.7333      596.49525    
    106000   106000         775.90601      522.98563      54460.006      53567.682      20165.551      33402.131      8574.9318      8712.5246      9246.5824      1105.5151      332.36354      15952.217     -10522.004     -687.1232       116992.14      48.908637      48.908637      48.908637      1.0478049     -447.29829      575.81951      1440.4357    
    107000   107000         769.81846      1365.502       55919.158      53560.655      20007.338      33553.317      8731.019       8920.0492      8970.865       1129.2486      353.07374      15969.375     -10520.314     -678.77076      118431.76      49.108431      49.108431      49.108431      1.0350682      3661.5417     -607.84098      1042.8054    
    108000   108000         776.22876      299.70198      53972.874      53463.716      20173.939      33289.776      8633.4499      8791.6912      8960.2399      1106.5962      402.96434      15929.419     -10534.584     -690.08655      116489.75      48.838529      48.838529      48.838529      1.0523238      1049.9633      717.65305     -868.51044    
    109000   109000         770.05251     -840.54272      51877.292      53322.482      20013.421      33309.061      8471.995       8754.6438      9220.731       1069.2838      372.58588      15947.181     -10527.359     -681.87103      117893.28      49.03389       49.03389       49.03389       1.0397958     -893.01904     -184.23337     -1444.3757    
    110000   110000         773.65662     -1992.1296      50063.93       53497.498      20107.09       33390.408      8382.3494      8857.5982      9239.2319      1083.3904      395.55949      15957.541     -10525.262     -680.20388      118182.23      49.073918      49.073918      49.073918      1.0372536     -1412.2007     -1820.4109     -2743.7773    
    111000   111000         771.73418      108.45591      53498.685      53311.856      20057.127      33254.729      8570.2597      8870.5637      8925.1576      1103.7007      345.65059      15958.409     -10519.013     -680.57306      118118.12      49.065043      49.065043      49.065043      1.0378165     -1313.5938      237.5778       1401.3837    
    112000   112000         766.67946      20.198881      53065.704      53031.377      19925.756      33105.621      8461.792       8839.1089      9037.0792      1110.737       237.79068      15941.594     -10522.482     -689.85456      116528.93      48.844003      48.844003      48.844003      1.05197       -1687.7774      409.60074      1338.7733    
    113000   113000         767.518       -165.6923       53269.847      53556.198      19947.55       33608.649      8801.2914      8992.0222      8908.1477      1143.9432      329.726        15959.73      -10526.212     -678.37576      118500.72      49.11796       49.11796       49.11796       1.0344658      469.20395     -488.11825     -478.16259    
    114000   114000         761.25968     -917.33119      51528.028      53101.216      19784.898      33316.319      8683.5374      8801.4601      9099.0264      1089.9192      242.89503      15926.3       -10526.82      -683.6165       117592.27      48.992122      48.992122      48.992122      1.0424575     -387.91077     -1584.0308     -780.05197    
    115000   115000         769.15726     -153.66427      53139.182      53404.095      19990.153      33413.942      8579.7933      8808.2846      9136.2091      1095.111       362.5534       15959.978     -10527.988     -680.04379      118210.05      49.077768      49.077768      49.077768      1.0370094     -276.01284     -793.97177      608.99179    
    116000   116000         778.35268      417.66985      54273.849      53559.93       20229.139      33330.791      8547.4055      8806.3135      9136.3709      1119.5612      303.07966      15947.896     -10529.836     -685.88539      117203.27      48.938041      48.938041      48.938041      1.0459174     -895.06119      1904.8044      243.2663     
    117000   117000         759.5187      -858.53225      51623.664      53108.235      19739.65       33368.585      8315.9867      8816.5733      9285.0725      1123.6704      403.49237      15950.808     -10527.018     -677.98923      118568.27      49.127293      49.127293      49.127293      1.0338764     -1582.7427     -361.65263     -631.2014     
    118000   118000         773.68107     -1743.059       50738.42       53737.998      20107.726      33630.273      8626.217       8927.6285      9368.9227      1126.7331      139.04133      15962.124     -10520.394     -681.26973      117997.34      49.048312      49.048312      49.048312      1.0388789     -2659.4338     -2108.0982     -461.64501    
    119000   119000         785.30318     -487.57719      52727.399      53566.313      20409.78       33156.532      8309.8946      8725.2832      9210.1618      1073.6862      402.23358      15950.278     -10515.005     -681.38627      117977.15      49.045516      49.045516      49.045516      1.0390566     -498.26808     -198.40822     -766.05527    
    120000   120000         768.6407      -2022.1515      49814.562      53274.284      19976.728      33297.556      8422.562       8739.9252      9254.4619      1121.9946      337.65251      15940.28      -10519.32      -685.23529      117314.47      48.953512      48.953512      48.953512      1.044926      -2213.8937     -1535.074      -2317.4868    
    121000   121000         779.18948     -1474.8101      51076.336      53621.327      20250.887      33370.439      8487.3007      8665.6533      9319.3475      1126.9507      314.00763      15970.024     -10512.844     -679.38672      118324.38      49.093585      49.093585      49.093585      1.0360075     -292.4602      -3031.2        -1100.77      
    122000   122000         766.4263       2069.7214      56651.642      53073.367      19919.177      33154.191      8398.538       8739.2795      8986.5489      1106.4612      456.89258      15981.24      -10514.77      -678.1183       118545.71      49.124176      49.124176      49.124176      1.0340732      370.29613      3443.4359      2395.4323    
    123000   123000         777.81485     -715.15582      52362.488      53615.784      20215.161      33400.623      8582.5616      8796.7266      9118.6812      1081.061       395.41187      15948.82      -10522.64      -668.9815       120164.78      49.346808      49.346808      49.346808      1.0201404     -427.21218     -1149.8939     -568.3614     
    124000   124000         765.65276     -311.21769      52597.423      53128.984      19899.073      33229.912      8475.2568      8903.552       9011.6206      1114.664       331.33368      15926.819     -10533.334     -686.40138      117115.17      48.925775      48.925775      48.925775      1.0467042     -808.19857      851.12573     -976.58024    
    125000   125000         762.99669      1352.9884      55393.273      53055.833      19830.042      33225.791      8470.8956      8786.0583      8966.4487      1138.0126      398.70538      15986.119     -10520.449     -678.61071      118459.69      49.112291      49.112291      49.112291      1.0348241      2724.9488      511.14927      822.86716    
    126000   126000         771.01214     -1540.9757      50803.156      53453.119      20038.361      33414.758      8330.7961      9096.8877      9088.3607      1112.0551      342.14263      15969.834     -10525.318     -681.74689      117914.75      49.036866      49.036866      49.036866      1.0396065     -2643.6331     -2368.9583      389.66443    
    127000   127000         759.92808     -1427.6329      50608.977      53069.165      19750.29       33318.875      8430.0294      8850.4608      9149.5502      1118.9127      365.33114      15943.603     -10539.012     -680.32356      118161.44      49.07104       49.07104       49.07104       1.0374361     -2652.0777     -1610.4826     -20.338483    
    128000   128000         771.18128     -433.40793      52571.19       53315.313      20042.757      33272.556      8490.1466      8910.8344      8972.7874      1127.3888      338.44165      15956.406     -10523.449     -682.84082      117725.85      49.010666      49.010666      49.010666      1.0412747     -960.31648     -1179.0233      839.11597    
    129000   129000         766.16627     -445.3512       52781.075      53553.42       19912.418      33641.002      8340.1656      9076.1952      9281.6833      1180.5975      317.53451      15964.814     -10519.988     -676.01822      118913.97      49.174992      49.174992      49.174992      1.0308708     -2309.5858      728.07039      245.46181    
    130000   130000         768.4222       523.85708      54115.753      53211.907      19971.049      33240.858      8379.2265      8808.4942      9199.7942      1061.0044      359.86756      15962.151     -10529.681     -679.49405      118305.69      49.091         49.091         49.091         1.0361711      29.175944      467.69004      1074.7053    
    131000   131000         776.09256     -929.13513      51972.747      53567.194      20170.4        33396.794      8447.8517      8875.1299      9172.7911      1090.441       345.53096      15982.384     -10517.334     -683.1817       117667.1       49.002513      49.002513      49.002513      1.0417945     -2231.6836      1109.0052     -1664.727     
    132000   132000         764.68089     -585.22459      52248.447      53253.376      19873.814      33379.562      8510.239       8908.1289      9091.1904      1114.1393      323.45322      15963.199     -10530.788     -682.73867      117743.46      49.01311       49.01311       49.01311       1.0411189     -1346.294       346.64759     -756.0274     
    133000   133000         777.71302     -340.29409      53093.797      53675.525      20212.515      33463.01       8664.7571      8835.8335      9193.0837      1091.7394      244.2114       15958.949     -10525.564     -685.80669      117216.72      48.939913      48.939913      48.939913      1.0457974      902.71672     -1335.8469     -587.75212    
    134000   134000         761.76038     -342.56634      52464.185      53047.609      19797.911      33249.699      8370.2192      8924.2508      9182.2245      1083.7347      264.92027      15951.591     -10527.241     -688.37881      116778.74      48.878882      48.878882      48.878882      1.0497197     -493.81119     -43.944806     -489.94303    
    135000   135000         768.20384     -83.951714      53051.825      53195.036      19965.374      33229.662      8451.8476      9024.6799      9000.5703      1074.2438      255.03087      15948.144     -10524.855     -687.25815      116969.17      48.905436      48.905436      48.905436      1.0480107     -1411.5314      1967.8002     -808.12397    
    136000   136000         771.73342     -62.17407       53564.046      53671.057      20057.107      33613.95       8698.2503      8925.1155      9186.6287      1098.9441      267.69759      15958.907     -10521.593     -681.15904      118016.51      49.050969      49.050969      49.050969      1.0387101      650.77191      1224.6401     -2061.9343    
    137000   137000         760.25942      772.99476      54504.551      53179.845      19758.901      33420.944      8473.7963      8959.8924      9244.0373      1088.8115      221.87087      15965.977     -10533.442     -684.10692      117507.97      48.980412      48.980412      48.980412      1.0432054      1419.7299      902.60637     -3.3520162    
    138000   138000         758.02942     -267.87764      52675.89       53130.592      19700.944      33429.648      8614.3535      8819.6364      9224.5393      1101.1886      253.84893      15943.497     -10527.415     -690.67904      116389.83      48.82456       48.82456       48.82456       1.0532273      372.12636     -58.322999     -1117.4363    
    139000   139000         772.72472     -75.391691      53236.042      53365.14       20082.87       33282.269      8399.0757      8771.5457      9229.8016      1118.4052      335.91711      15953.407     -10525.883     -684.65758      117413.46      48.967278      48.967278      48.967278      1.0440451     -931.84325      1395.7184     -690.05018    
    140000   140000         768.24852     -1428.7965      50902.31       53362.301      19966.535      33395.766      8388.476       8843.6207      9307.428       1108.7802      283.44644      15986.602     -10522.587     -680.93226      118055.81      49.056414      49.056414      49.056414      1.0383643     -2308.0367     -1575.9948     -402.35799    
    141000   141000         770.23437     -602.68255      52358.836      53392.516      20018.147      33374.369      8355.0371      8796.911       9287.3192      1150.9001      330.20295      15973.229     -10519.23      -683.54927      117603.83      48.993728      48.993728      48.993728      1.042355      -191.60182     -1927.7633      311.31743    
    142000   142000         754.81243      48.598591      52927.508      52843.949      19617.336      33226.613      8446.1764      8912.6904      9044.6963      1106.2668      283.912        15956.153     -10523.282     -681.85695      117895.72      49.034228      49.034228      49.034228      1.0397744     -1163.6242      147.45959      1161.9603    
    143000   143000         766.26094     -285.04633      52719.139      53214.096      19914.879      33299.217      8325.8956      8958.759       9123.7458      1092.4697      359.15568      15962.107     -10522.915     -675.17356      119062.74      49.19549       49.19549       49.19549       1.0295827     -123.01227      271.62761     -1003.7543    
    144000   144000         762.23268     -1475.5914      50406.499      52956.783      19810.185      33146.597      8470.5715      8901.9787      8921.8935      1071.645       344.99986      15957.055     -10521.546     -678.336        118507.66      49.11892       49.11892       49.11892       1.0344052     -1045.3118     -1626.6199     -1754.8423    
    145000   145000         766.38383     -1651.4003      50656.083      53500.395      19918.073      33582.322      8633.1759      8887.6011      9123.7396      1102.0776      368.20218      15978.485     -10510.959     -680.67886      118099.76      49.0625        49.0625        49.0625        1.0379779     -1945.5577     -4.0971828     -3004.5462    
    146000   146000         772.87361     -471.48404      52586.388      53404.055      20086.74       33317.315      8465.7463      8882.977       9130.9508      1110.2986      294.3185       15950.675     -10517.651     -676.01646      118914.28      49.175035      49.175035      49.175035      1.0308681     -1864.4456      1048.8836     -598.8901     
    147000   147000         773.49011     -1937.5198      49885.289      53214.115      20102.763      33111.352      8402.5533      8789.2124      9163.5917      1083.5142      228.70383      15958.91      -10515.134     -682.37382      117806.41      49.021844      49.021844      49.021844      1.0405625     -1144.5954     -2399.5734     -2268.3906    
    148000   148000         773.88434     -422.28943      52714.949      53435.23       20113.009      33322.222      8609.8831      8931.3709      8954.1376      1075.766       320.74551      15950.058     -10519.739     -687.34589      116954.23      48.903355      48.903355      48.903355      1.0481445     -1279.0996      735.40772     -723.17637    
    149000   149000         766.65941      1006.7896      54830.277      53095.835      19925.235      33170.6        8246.0915      8855.8811      9202.5266      1065.0899      335.32646      15985.115     -10519.43      -680.52832      118125.89      49.066118      49.066118      49.066118      1.0377483      800.24517      1469.1333      750.99045    
    150000   150000         775.68151      221.96869      53854.976      53475.582      20159.716      33315.866      8585.0317      8668.5996      9171.7704      1082.2375      380.49813      15947.458     -10519.729     -685.91233      117198.67      48.9374        48.9374        48.9374        1.0459585     -559.10807      2366.6984     -1141.6843    
    151000   151000         770.49185      390.46049      53769.808      53105.77       20024.839      33080.932      8461.8861      8684.4299      9105.9743      1065.5365      333.20474      15954.323     -10524.423     -689.36884      116611.03      48.855472      48.855472      48.855472      1.0512294     -265.75461      622.79901      814.33707    
    152000   152000         761.93358      57.799616      52979.626      52880.536      19802.412      33078.124      8386.4982      8716.0845      9190.3012      1105.5179      221.52407      15977.664     -10519.465     -683.85473      117551.3       48.986433      48.986433      48.986433      1.0428208      307.79482     -80.912685     -53.483284    
    153000   153000         782.17667      703.43784      54710.98       53510.934      20328.523      33182.411      8406.6554      8801.5077      9152.5193      1096.1591      270.17466      15979.16      -10523.765     -687.21914      116975.81      48.906361      48.906361      48.906361      1.0479512      2820.1406      176.69393     -886.52098    
    154000   154000         773.32374     -1132.9812      51285.978      53234.243      20098.439      33135.804      8394.0356      8987.2291      9020.0017      1087.6065      236.11004      15940.53      -10529.709     -681.77638      117909.65      49.036159      49.036159      49.036159      1.0396515      384.75759     -1955.8052     -1827.8959    
    155000   155000         776.52335      1500.9096      56098.204      53529.826      20181.596      33348.23       8521.5467      8980.9643      9099.7736      1110.0206      201.17856      15951.977     -10517.231     -685.11379      117335.27      48.956406      48.956406      48.956406      1.0447408      2292.0564      2137.3629      73.309393    
    156000   156000         779.08643      750.64656      55378.407      54099.044      20248.209      33850.835      8814.1444      8921.3673      9151.8816      1133.6497      398.90482      15953.294     -10522.407     -687.8741       116864.43      48.890834      48.890834      48.890834      1.04895        1274.9655     -512.45837      1489.4325    
    157000   157000         776.57024      744.38374      54450.864      53183.471      20182.814      33000.657      8463.8929      8729.2398      9003.5294      1101.4398      238.63554      15981.669     -10517.75      -688.5774       116745.06      48.874183      48.874183      48.874183      1.0500225     -1313.7779      267.19798      3279.7312    
    158000   158000         781.46246      1324.3611      56057.135      53761.817      20309.961      33451.856      8550.1738      8894.6593      9040.4036      1069.4122      421.42196      15994.934     -10519.149     -676.44213      118839.45      49.164717      49.164717      49.164717      1.0315172      564.36281      1764.615       1644.1054    
    159000   159000         770.12023      721.78997      55070.064      53832.114      20015.18       33816.934      8844.4271      8843.3352      9159.6508      1103.2762      431.41283      15960.508     -10525.677     -683.55723      117602.46      48.993538      48.993538      48.993538      1.0423671     -664.99672      1917.5389      912.82772    
    160000   160000         760.61452      323.66282      53710.776      53154.023      19768.13       33385.893      8398.2476      8834.4296      9297.2656      1113.4455      310.91882      15958.553     -10526.967     -681.54913      117948.96      49.041609      49.041609      49.041609      1.039305       673.39126      207.74141      89.855794    
    161000   161000         782.38526     -929.21101      52110.84       53695.542      20333.945      33361.597      8613.807       8769.0397      9312.4141      1069.6951      180.8823       15936.492     -10520.733     -687.43864      116938.46      48.901155      48.901155      48.901155      1.048286      -224.27141     -1571.6594     -991.70224    
    162000   162000         773.57465     -1337.1552      50908.305      53180.36       20104.96       33075.4        8415.5908      8796.7065      9116.6207      1118.9557      198.93046      15948.726     -10520.131     -689.97         116509.43      48.841279      48.841279      48.841279      1.0521461     -2258.9711     -483.15893     -1269.3354    
    163000   163000         776.20883      1110.2639      55658.887      53765.199      20173.421      33591.777      8480.2097      8939.8209      9326.4199      1104.3914      322.19517      15948.791     -10530.051     -687.361        116951.66      48.902996      48.902996      48.902996      1.0481676      1050.8853     -48.699625      2328.6059    
    164000   164000         767.93059     -2352.8438      49565.777      53605.614      19958.272      33647.342      8519.0716      9052.3924      9243.494       1110.1603      301.59962      15944.961     -10524.337     -682.80453      117732.1       49.011534      49.011534      49.011534      1.0412193     -3073.8288     -1258.0768     -2726.6258    
    165000   165000         768.30418     -1459.4093      50661.385      53182.21       19967.982      33214.228      8514.7953      8791.1716      9079.1847      1076.0043      345.10329      15939.341     -10531.372     -678.73714      118437.62      49.109241      49.109241      49.109241      1.0350169     -2234.5666     -1368.6962     -774.96508    
    166000   166000         762.56394      319.39318      53649.941      53109.045      19818.795      33290.25       8595.7433      8916.7632      9005.6453      1104.7461      230.20155      15965.237     -10528.086     -692.27662      116121.23      48.786973      48.786973      48.786973      1.0556635     -324.22906      1446.3755     -163.96685    
    167000   167000         772.63278     -865.30786      52066.288      53540.873      20080.481      33460.392      8600.2708      8862.1221      9287.3659      1110.917       159.6762       15964.293     -10524.253     -687.96767      116848.53      48.888617      48.888617      48.888617      1.0490927     -347.32959     -2351.2692      102.67517    
    168000   168000         766.14709      174.11341      53576.477      53282.653      19911.92       33370.734      8565.6419      8806.7984      9220.6673      1103.859       272.61353      15934.383     -10533.229     -694.72371      115712.21      48.729624      48.729624      48.729624      1.0593951      1247.2004      152.99962     -877.85977    
    169000   169000         765.24577      23.005098      53237.596      53198.52       19888.495      33310.025      8539.8588      8871.4577      9125.2887      1112.7769      249.02865      15947.428     -10535.814     -690.20646      116469.52      48.835701      48.835701      48.835701      1.0525067     -1000.3342      202.36028      866.98925    
    170000   170000         780.7644       1358.045       55862.567      53570.032      20291.819      33278.213      8357.2691      8913.4908      9185.4696      1172.5788      227.97894      15954.272     -10532.846     -694.48895      115751.32      48.735114      48.735114      48.735114      1.0590371     -1122.6171      3352.1903      1844.5618    
    171000   171000         769.0702      -1365.8348      50872.349      53218.263      19987.891      33230.372      8480.1441      8837.6316      9063.9716      1123.1625      301.14218      15949.725     -10525.406     -682.57955      117770.91      49.016919      49.016919      49.016919      1.0408763     -2524.491      -646.58835     -926.42509    
    172000   172000         774.53625     -924.86734      51895.076      53462.266      20129.952      33332.314      8515.6987      8823.9199      9218.9949      1150.3621      186.35745      15959.217     -10522.235     -691.8707       116189.36      48.796513      48.796513      48.796513      1.0550445     -2142.7658      19.323053     -651.15929    
    173000   173000         769.48801     -91.029263      52951.957      53107.666      19998.749      33108.917      8464.216       8851.4485      9007.1776      1071.847       297.89335      15940.89      -10524.556     -685.38608      117288.66      48.949922      48.949922      48.949922      1.045156       226.94104     -684.53166      184.50283    
    174000   174000         766.64169      4.7074518      53022.526      53014.533      19924.774      33089.759      8504.8567      8764.8729      9024.5562      1081.8191      282.24157      15959.651     -10528.239     -690.52992      116414.96      48.828074      48.828074      48.828074      1.0529999     -356.96737      330.49604      40.593686    
[...]
    955000   955000         769.8034      -186.94301      53014.08       53338.394      20006.946      33331.448      8467.7045      8625.1842      9295.3807      1121.4699      393.9421       15955.086     -10527.32      -675.7866       118954.73      49.180609      49.180609      49.180609      1.0305176     -1064.8155      1990.2187     -1486.2322    
    956000   956000         780.62339     -268.7215       53395.441      53858.17       20288.154      33570.015      8482.8866      8892.3649      9364.575       1118.0821      272.60757      15964.495     -10524.996     -680.83747      118072.25      49.05869       49.05869       49.05869       1.0382197     -329.19599      325.50973     -802.47824    
    957000   957000         778.75549     -1529.317       51043.68       53660.187      20239.608      33420.578      8571.1369      8811.4103      9345.7398      1071.1883      180.66422      15963.34      -10522.901     -685.24036      117313.6       48.953392      48.953392      48.953392      1.0449338     -984.61295     -1078.0269     -2525.3111    
    958000   958000         769.68633     -370.61643      52459.554      53098.195      20003.904      33094.292      8338.224       8723.7538      9161.5689      1084.385       336.17793      15973.072     -10522.89      -680.35344      118156.25      49.070322      49.070322      49.070322      1.0374816     -1422.0066      631.14234     -320.98498    
    959000   959000         767.63046      156.45007      53795.884      53530.399      19950.472      33579.927      8606.6728      8803.6884      9354.0638      1151.41        232.69044      15959.351     -10527.95      -690.88197      116355.64      48.819779      48.819779      48.819779      1.0535368     -2169.3165      2417.6563      221.01041    
    960000   960000         765.76203      559.35205      54386.283      53418.766      19901.912      33516.854      8534.6732      8742.2946      9248.4292      1115.4466      449.27345      15949.13      -10522.393     -677.78768      118603.53      49.132162      49.132162      49.132162      1.0335691      2701.936      -815.1804      -208.69949    
    961000   961000         766.26951     -238.64545      52825.079      53236          19915.102      33320.899      8608.0492      8793.6044      9139.6927      1119.3801      230.23095      15949.867     -10519.926     -680.86524      118067.44      49.058023      49.058023      49.058023      1.0382621      542.19934     -947.79448     -310.34121    
    962000   962000         768.13237     -49.88025       53171.347      53256.415      19963.517      33292.898      8479.3706      8781.1797      9170.7001      1159.4023      288.6475       15937.706     -10524.108     -687.43243      116939.51      48.901302      48.901302      48.901302      1.0482765     -2446.3188      823.70982      1472.9682    
    963000   963000         776.99693      1433.8832      56084.983      53633.152      20193.904      33439.248      8653.889       8830.0177      9118.1993      1122.1597      284.28372      15954.371     -10523.672     -685.631        117246.76      48.944093      48.944093      48.944093      1.0455295      1187.5991      777.1306       2336.92      
    964000   964000         764.98296     -150.8363       52924.512      53184.004      19881.664      33302.34       8693.8251      8762.4897      9148.4012      1036.304       220.82788      15972.822     -10532.33      -681.47266      117962.2       49.043443      49.043443      49.043443      1.0391884     -411.85444      430.4054      -471.05986    
    965000   965000         778.39445     -2113.9837      49904.486      53571.545      20230.225      33341.32       8619.3844      8568.1478      9376.914       1079.8143      243.73077      15969.864     -10516.536     -675.851        118943.4       49.179047      49.179047      49.179047      1.0306158     -3558.8991     -1264.6036     -1518.4484    
    966000   966000         759.63996     -873.58615      51510.07       53006.201      19742.802      33263.4        8408.8354      8807.6541      9215.5433      1114.7038      286.57992      15958.531     -10528.448     -684.5468       117432.46      48.969919      48.969919      48.969919      1.0438762     -946.36712     -2269.3232      594.9319     
    967000   967000         763.36161     -1299.2982      51042.345      53299.93       19839.526      33460.404      8516.2169      8837.3574      9140.4099      1103.8261      424.72886      15960.628     -10522.763     -674.73311      119140.46      49.206192      49.206192      49.206192      1.0289111     -887.732       -1021.4514     -1988.7114    
    968000   968000         771.97248     -578.81279      52408.882      53408.897      20063.32       33345.577      8676.3433      8509.7083      9304.5353      1097.3025      340.90026      15948.411     -10531.624     -678.57662      118465.64      49.113113      49.113113      49.113113      1.0347721     -1283.3769     -1267.4967      814.43515    
    969000   969000         773.35289      1305.1231      55667.009      53425.943      20099.196      33326.747      8545.4727      8708.119       9152.3735      1102.4358      390.57366      15943.69      -10515.918     -682.75384      117740.84      49.012747      49.012747      49.012747      1.041142       2722.107       713.83112      479.43126    
    970000   970000         774.37562      742.04117      55061.09       53792.737      20125.777      33666.96       8590.9185      8942.2153      9258.61        1135.7847      289.2034       15972.935     -10522.706     -685.89063      117202.38      48.937917      48.937917      48.937917      1.0459254      1928.9881     -524.87348      822.00883    
    971000   971000         771.91547     -1693.3274      50154.894      53058.237      20061.838      32996.399      8503.8249      8616.9135      9145.4378      1086.3231      241.87781      15933.289     -10531.268     -683.76952      117565.95      48.988467      48.988467      48.988467      1.0426909     -3000.7173     -1856.2095     -223.05535    
    972000   972000         777.79435      651.98315      54768.913      53633.35       20214.629      33418.721      8477.4675      8714.491       9277.1054      1115.6664      377.83761      15976.576     -10520.422     -673.11993      119425.99      49.24547       49.24547       49.24547       1.0264511      868.29031     -270.59867      1358.2578    
    973000   973000         767.64        -527.48731      52258.227      53158.674      19950.72       33207.954      8500.725       8793.8644      9200.4626      1099.4216      221.19209      15928.268     -10535.98      -686.78581      117049.61      48.916645      48.916645      48.916645      1.0472905      196.17252     -2470.0068      691.37239    
    974000   974000         774.18285      455.12817      54434.042      53647.556      20120.767      33526.789      8605.9294      8777.1101      9324.026       1101.1571      310.4558       15941.786     -10533.675     -678.43768      118489.9       49.116466      49.116466      49.116466      1.0345603      148.52178      51.624432      1165.2383    
    975000   975000         769.54397     -103.4914       52918.594      53095.16       20000.204      33094.956      8556.3558      8719.5257      9119.386       1060.8448      206.65077      15965.732     -10533.539     -687.17076      116984.04      48.907509      48.907509      48.907509      1.0478775      170.47147     -266.88825     -214.05742    
    976000   976000         788.11952      438.95055      54431.268      53686.605      20482.976      33203.629      8647.2154      8638.1338      9092.7796      1090.4608      312.97294      15944.68      -10522.614     -691.07174      116323.69      48.81531       48.81531       48.81531       1.0538261      1221.7118      685.65614     -590.51629    
    977000   977000         770.55347     -253.0912       52900.473      53332.122      20026.44       33305.682      8637.1728      8520.7596      9342.5875      1094.3573      277.01913      15950.707     -10516.921     -687.40483      116944.21      48.901957      48.901957      48.901957      1.0482344     -1943.3588     -1204.8552      2388.9404    
    978000   978000         786.32014      26.41289       53903.095      53858.371      20436.211      33422.16       8606.4145      8891.6864      9137.359       1124.2837      241.31724      15948.635     -10527.537     -692.36646      116106.16      48.784863      48.784863      48.784863      1.0558005      244.80003     -2136.3433      1970.7819    
    979000   979000         780.0282      -2027.6412      50068.525      53528.606      20272.686      33255.92       8832.6834      8711.4511      9124.1409      1062.3794      141.89707      15923.857     -10540.489     -687.02428      117008.98      48.910984      48.910984      48.910984      1.0476541     -1750.6014     -2299.4286     -2032.8936    
    980000   980000         775.83055      881.60374      54943.586      53452.037      20163.59       33288.447      8631.5161      8782.2859      9170.4126      1081.8751      241.51666      15919.59      -10538.749     -692.95194      116008.06      48.77112       48.77112       48.77112       1.0566933      1145.3652      1082.8903      416.55569    
    981000   981000         765.28716      1478.7677      55712.959      53208.584      19889.571      33319.013      8781.0459      8744.7867      9084.8289      1124.0593      183.01687      15942.824     -10541.548     -692.25765      116124.41      48.787419      48.787419      48.787419      1.0556346     -108.11451      751.69941      3792.7182    
    982000   982000         762.83269      656.40805      54375.296      53259.237      19825.78       33433.458      8822.302       8754.2261      9074.5896      1113.27        275.65576      15935.251     -10541.837     -689.53146      116583.53      48.851631      48.851631      48.851631      1.0514773      1109.7409      1330.3648     -470.8816     
    983000   983000         778.23588     -1435.5368      51073.51       53507.001      20226.104      33280.898      8594.9083      8780.5002      9253.9552      1103.5974      124.51944      15959.455     -10536.038     -691.5947       116235.73      48.803003      48.803003      48.803003      1.0546236     -1206.7361     -560.45415     -2539.4203    
    984000   984000         761.32442      837.62907      54380.861      52967.096      19786.58       33180.516      8777.8627      8643.4896      9107.2815      1056.9844      210.28425      15927.693     -10543.079     -694.61106      115730.97      48.732258      48.732258      48.732258      1.0592233     -259.805        327.36689      2445.3253    
    985000   985000         766.69843      268.75891      53556.293      53104.172      19926.249      33177.923      8557.9832      8869.617       9070.0134      1098.3422      146.03343      15966.569     -10530.635     -696.90747      115349.62      48.678672      48.678672      48.678672      1.0627251     -464.56653      274.56775      996.2755     
    986000   986000         771.40462     -931.81134      51698.092      53281.022      20048.561      33232.461      8442.0894      8805.3716      9325.749       1089.5818      144.09291      15957.533     -10531.956     -690.1339       116481.76      48.837412      48.837412      48.837412      1.052396      -1551.2496     -149.24677     -1094.9377    
    987000   987000         778.81964     -339.69919      53049.595      53618.434      20241.275      33377.158      8485.2007      8760.4997      9441.4654      1153.3444      90.602299      15977.154     -10531.108     -700.12079      114820.21      48.604085      48.604085      48.604085      1.0676252      1134.7328     -700.09327     -1453.7372    
    988000   988000         756.75602      1397.5103      55345.621      53001.24       19667.849      33333.391      8764.0894      8787.3887      9047.6044      1103.6495      187.62942      15971.757     -10528.727     -698.86631      115026.31      48.63315       48.63315       48.63315       1.0657122      280.28087      1759.6369      2152.6133    
    989000   989000         768.72621     -506.97563      52480.774      53345.424      19978.95       33366.474      8579.2388      8810.7542      9154.7568      1095.2639      319.88511      15943.082     -10536.507     -687.40639      116943.94      48.90192       48.90192       48.90192       1.0482368      396.68314     -2021.1675      103.5575     
    990000   990000         761.99969      574.27534      54008.429      53040.505      19804.13       33236.375      8695.388       8748.0019      9147.672       1081.8141      126.2301       15968.985     -10531.717     -695.57834      115570.04      48.709658      48.709658      48.709658      1.0606983     -430.6842       596.38316      1557.1271    
    991000   991000         769.24499      3197.9446      58340.016      52925.922      19992.433      32933.488      8788.4934      8580.1936      8809.9624      1074.2085      220.25573      15986.716     -10526.341     -692.48808      116085.77      48.782007      48.782007      48.782007      1.0559859      2048.1588      4414.1828      3131.4924    
    992000   992000         760.93506     -2033.3552      49763.416      53222.616      19776.461      33446.155      8582.8996      9003.8424      9221.569       1077.6752      123.33797      15965.647     -10528.816     -689.13575      116650.47      48.86098       48.86098       48.86098       1.0508739     -2321.1229     -2496.835      -1282.1078    
    993000   993000         758.52159     -1665.8112      50384.723      53214.277      19713.735      33500.542      8621.5317      8826.4418      9304.9452      1133.5158      203.91407      15943.404     -10533.21      -690.19997      116470.61      48.835854      48.835854      48.835854      1.0524968     -3010.6645     -1102.0836     -884.68564    
    994000   994000         762.76979      572.31333      53643.46       52665.9        19824.145      32841.755      8408.3019      8678.7628      9054.8404      1078.85        194.86883      15959.237     -10533.105     -686.36913      117120.67      48.926542      48.926542      48.926542      1.0466551      1143.6743      1863.8592     -1290.5935    
    995000   995000         773.22931     -74.062813      53219.878      53345.131      20095.985      33249.146      8452.1458      8835.2392      9240.8751      1092.2664      184.05103      15974.316     -10529.748     -693.23144      115961.29      48.764564      48.764564      48.764564      1.0571195     -319.94958      407.47683     -309.71569    
    996000   996000         764.21585     -525.47371      52117.901      53024.155      19861.728      33162.428      8404.7851      8846.6689      9064.5884      1081.7688      339.55095      15957.953     -10532.887     -679.77923      118256.06      49.084134      49.084134      49.084134      1.036606      -4.3820055     -505.57879     -1066.4603    
    997000   997000         769.66979     -383.46455      52726.541      53379.207      20003.474      33375.734      8577.0183      8830.5793      9298.8439      1105.6735      150.24403      15947.283     -10533.908     -688.81296      116705.14      48.868611      48.868611      48.868611      1.0503817      530.87511     -1063.2876     -617.98115    
    998000   998000         763.26329      431.96778      53774.768      53037.134      19836.971      33200.163      8652.7888      8657.6475      9105.295       1083.2822      260.15591      15967.519     -10526.525     -686.55849      117088.37      48.922043      48.922043      48.922043      1.0469438      1149.1895      171.89877     -25.184955    
    999000   999000         768.10944     -562.68591      52431.231      53388.513      19962.921      33425.592      8611.7794      8726.7008      9352.8202      1148.8186      176.60648      15945.253     -10536.387     -689.11757      116653.55      48.86141       48.86141       48.86141       1.0508462     -1263.5337     -104.16839     -320.35568    
   1000000   1000000        772.66771      72.833395      53319.818      53195.471      20081.389      33114.082      8558.6413      8793.7184      8990.0054      1079.8449      288.63783      15939.877     -10536.642     -686.6924       117065.54      48.918863      48.918863      48.918863      1.047148      -553.26094      132.56276      639.19837    
Loop time of 2264.48 on 1 procs for 1000000 steps with 8720 atoms

Performance: 38.154 ns/day, 0.629 hours/ns, 441.602 timesteps/s, 3.851 Matom-step/s
99.9% CPU use with 1 MPI tasks x 1 OpenMP threads

MPI task timing breakdown:
Section |  min time  |  avg time  |  max time  |%varavg| %total
---------------------------------------------------------------
Pair    | 267.02     | 267.02     | 267.02     |   0.0 | 11.79
Bond    | 267.4      | 267.4      | 267.4      |   0.0 | 11.81
Kspace  | 1017       | 1017       | 1017       |   0.0 | 44.91
Neigh   | 278.98     | 278.98     | 278.98     |   0.0 | 12.32
Comm    | 62.859     | 62.859     | 62.859     |   0.0 |  2.78
Output  | 11.558     | 11.558     | 11.558     |   0.0 |  0.51
Modify  | 316.45     | 316.45     | 316.45     |   0.0 | 13.97
Other   |            | 43.23      |            |       |  1.91

Nlocal:           8720 ave        8720 max        8720 min
Histogram: 1 0 0 0 0 0 0 0 0 0
Nghost:          19115 ave       19115 max       19115 min
Histogram: 1 0 0 0 0 0 0 0 0 0
Neighs:              0 ave           0 max           0 min
Histogram: 1 0 0 0 0 0 0 0 0 0
FullNghs:  4.13227e+06 ave 4.13227e+06 max 4.13227e+06 min
Histogram: 1 0 0 0 0 0 0 0 0 0

Total # of neighbors = 4132274
Ave neighs/atom = 473.88463
Ave special neighs/atom = 5.6385321
Neighbor list builds = 81936
Dangerous builds = 0

# --- Cleanup ---
unfix npt_fix

undump dump_npt

# --- Write Output ---
write_dump all custom npt_production_last.dump id type mol x y z xu yu zu vx vy vz modify sort id
write_data /home/alexzhao/PolyJarvis/data/PEEK4/lammps/equil/npt_production/npt_production_out.data
System init for write_data ...
PPPM Kokkos initialization ...
  using 12-bit tables for long-range coulomb
  G vector (1/distance) = 0.31213077
  grid = 40 40 40
  stencil order = 5
  estimated absolute RMS force accuracy = 0.00026692846
  estimated relative force accuracy = 8.0384714e-07
  using double precision cuFFT
  3d grid and FFT values/proc = 103823 64000
Generated 21 of 21 mixed pair_coeff terms from sixthpower/sixthpower mixing rule

print "STAGE COMPLETE: NPT T=770.0->770.0K P=1.0->1.0atm steps=1000000"
STAGE COMPLETE: NPT T=770.0->770.0K P=1.0->1.0atm steps=1000000
quit
 | 43.23      |            |       |  1.91

Nlocal:           8720 ave        8720 max        8720 min
Histogram: 1 0 0 0 0 0 0 0 0 0
Nghost:          19115 ave       19115 max       19115 min
Histogram: 1 0 0 0 0 0 0 0 0 0
Neighs:              0 ave           0 max           0 min
Histogram: 1 0 0 0 0 0 0 0 0 0
FullNghs:  4.13227e+06 ave 4.13227e+06 max 4.13227e+06 min
Histogram: 1 0 0 0 0 0 0 0 0 0

Total # of neighbors = 4132274
Ave neighs/atom = 473.88463
Ave special neighs/atom = 5.6385321
Neighbor list builds = 81936
Dangerous builds = 0
System init for write_data ...
PPPM Kokkos initialization ...
  using 12-bit tables for long-range coulomb
  G vector (1/distance) = 0.31213077
  grid = 40 40 40
  stencil order = 5
  estimated absolute RMS force accuracy = 0.00026692846
  estimated relative force accuracy = 8.0384714e-07
  using double precision cuFFT
  3d grid and FFT values/proc = 103823 64000
Generated 21 of 21 mixed pair_coeff terms from sixthpower/sixthpower mixing rule
STAGE COMPLETE: NPT T=770.0->770.0K P=1.0->1.0atm steps=1000000
