units real
atom_style full
boundary p p p

# --- Force Field Styles ---
pair_style lj/cut 14.0
dielectric 1.000000
bond_style harmonic
angle_style harmonic
dihedral_style multi/harmonic
improper_style none
special_bonds lj 0 0 0
pair_modify mix arithmetic tail yes
neighbor 2.0 bin
neigh_modify delay 0 every 1 check yes
neigh_modify one 4000
# GPU disabled (CPU run)

read_data /home/arz2/PolyJarvis/data/cis-PBD4/lammps/equil/npt_production/npt_production_out.data
Reading data file ...
  orthogonal box = (4.8353854 4.8353854 4.8353854) to (63.342992 63.342992 63.342992)
  2 by 2 by 2 MPI processor grid
  reading atoms ...
  8040 atoms
  reading velocities ...
  8040 velocities
  scanning bonds ...
  2 = max bonds/atom
  scanning angles ...
  1 = max angles/atom
  scanning dihedrals ...
  2 = max dihedrals/atom
  orthogonal box = (4.8353854 4.8353854 4.8353854) to (63.342992 63.342992 63.342992)
  2 by 2 by 2 MPI processor grid
  reading bonds ...
  8020 bonds
  reading angles ...
  8000 angles
  reading dihedrals ...
  7980 dihedrals
Finding 1-2 1-3 1-4 neighbors ...
  special bond factors lj:    0        0        0       
  special bond factors coul:  0        0        0       
     2 = max # of 1-2 neighbors
     2 = max # of 1-3 neighbors
     4 = max # of 1-4 neighbors
     6 = max # of special neighbors
  special bonds CPU = 0.001 seconds
  read_data CPU = 0.116 seconds


# --- Thermo Output ---
thermo_style custom step time temp press enthalpy etotal ke pe ebond eangle edihed eimp evdwl ecoul elong etail vol lx ly lz density pxx pyy pzz
thermo_modify flush yes
thermo 100

# --- Trajectory ---
dump dump_npt all custom 1000 /home/arz2/PolyJarvis/data/cis-PBD4/lammps/mechanical/bm_series/bm_P2000/bm_P2000.dump id type mol x y z ix iy iz vx vy vz

# --- Restart Checkpointing ---
restart 10000 npt_1.rst npt_2.rst

# --- Initial Velocities (optional) ---
# Velocities read from data file

# --- SHAKE Constraints ---
# SHAKE disabled (TraPPE-UA united-atom)

# --- NPT Thermostat + Barostat (Nose-Hoover) ---
# T_damp = 100.0 fs  (heat bath coupling)
# P_damp = 1000.0 fs  (pressure bath coupling, ~10x T_damp typical)
# Ramp: T=300.0->300.0K  P=2000.0->2000.0atm
timestep 2.0
fix npt_fix all npt temp 300.0 300.0 100.0 iso 2000.0 2000.0 1000.0

run 500000
Generated 3 of 3 mixed pair_coeff terms from arithmetic mixing rule
Neighbor list info ...
  update: every = 1 steps, delay = 0 steps, check = yes
  max neighbors/atom: 4000, page size: 100000
  master list distance cutoff = 16
  ghost atom cutoff = 16
  binsize = 8, bins = 8 8 8
  1 neighbor lists, perpetual/occasional/extra = 1 0 0
  (1) pair lj/cut, perpetual
      attributes: half, newton on
      pair build: half/bin/newton
      stencil: half/bin/3d
      bin: standard
Per MPI rank memory allocation (min/avg/max) = 9.233 | 9.235 | 9.237 Mbytes
   Step          Time           Temp          Press         Enthalpy        TotEng         KinEng         PotEng         E_bond        E_angle        E_dihed        E_impro         E_vdwl         E_coul         E_long         E_tail         Volume           Lx             Ly             Lz          Density          Pxx            Pyy            Pzz      
         0   0              295.79304      231.38206      12127.597      11451.759      7088.0093      4363.7498      2414.3678      2391.3747      8698.4384      0             -9140.4311      0              0             -290.21756      200279.73      58.507607      58.507607      58.507607      0.90194038     391.82294      226.97404      75.349191    
       100   200            303.90647      1214.1008      15157.356      11726.823      7282.4293      4444.3941      2439.8685      2453.4063      8736.4918      0             -9185.3724      0              0             -300.00586      193745.2       57.864248      57.864248      57.864248      0.93236056     1466.212       1392.5683      783.52214    
       200   400            302.77506      2108.6803      17429.449      11577.033      7255.3176      4321.7152      2418.6102      2409.9312      8828.0888      0             -9334.915       0              0             -305.4303       190304.29      57.519644      57.519644      57.519644      0.94921866     2051.7472      1683.7098      2590.5838    
       300   600            298.50221      2086.9099      17134.359      11370.801      7152.9284      4217.8729      2458.8809      2385.6497      8830.239       0             -9456.8968      0              0             -306.9373       189369.93      57.425353      57.425353      57.425353      0.95390213     1659.0493      2359.0099      2242.6706    
       400   800            304.68922      1273.3173      14767.139      11256.189      7301.1862      3955.0028      2281.5026      2347.308       8799.5197      0             -9473.3276      0              0             -307.4316       189065.45      57.394559      57.394559      57.394559      0.95543832     1129.6704      1495.6651      1194.6163    
       500   1000           293.64916      2436.0084      17831.459      11135.813      7036.6362      4099.1768      2339.3697      2433.8547      8846.3425      0             -9520.3901      0              0             -308.40604      188468.08      57.334047      57.334047      57.334047      0.9584667      2703.7637      2496.9447      2107.3167    
       600   1200           301.37182      2066.4912      17063.26       11400.012      7221.6923      4178.3197      2378.8541      2449.4602      8866.6084      0             -9516.603       0              0             -309.31753      187912.71      57.277676      57.277676      57.277676      0.96129941     2023.7745      1877.8686      2297.8305    
       700   1400           301.72897      2067.5367      16973.34       11304.911      7230.2504      4074.6602      2352.8455      2425.4684      8839.6643      0             -9543.318       0              0             -309.19114      187989.52      57.285479      57.285479      57.285479      0.96090663     1724.4583      2451.05        2027.1019    
       800   1600           295.65682      1913.5079      16416.298      11159.703      7084.7451      4074.9582      2343.6092      2381.0179      8890.7681      0             -9540.4371      0              0             -308.57616      188364.18      57.323509      57.323509      57.323509      0.95899539     2413.5218      1860.8776      1466.1243    
       900   1800           301.35115      1593.4279      15782.15       11406.701      7221.1969      4185.5041      2385.2287      2417.0341      8906.6871      0             -9523.4458      0              0             -308.70689      188284.41      57.315417      57.315417      57.315417      0.95940168     1669.8891      1548.6769      1561.7177    
      1000   2000           298.0257       2393.4034      17831.644      11274.635      7141.5101      4133.1247      2364.5691      2375.8876      8876.5834      0             -9483.9155      0              0             -309.41877      187851.22      57.271427      57.271427      57.271427      0.96161407     2753.4702      2254.4194      2172.3205    
      1100   2200           301.71982      1732.4655      16153.162      11399.754      7230.0313      4169.7223      2402.9799      2450.9619      8811.7667      0             -9495.9862      0              0             -308.9556       188132.84      57.300033      57.300033      57.300033      0.96017461     2391.6391      1275.4456      1530.3118    
      1200   2400           302.81805      2011.6304      16883.775      11365.345      7256.3478      4108.9977      2379.046       2411.8741      8876.9634      0             -9558.8858      0              0             -309.00766      188101.15      57.296815      57.296815      57.296815      0.9603364      2135.9356      1822.7354      2076.2201    
      1300   2600           298.16163      1666.6194      15788.404      11229.622      7144.7671      4084.8552      2345.3436      2447.3869      8831.1292      0             -9539.0046      0              0             -309.90185      187558.4       57.241654      57.241654      57.241654      0.96311539     1095.8836      1938.0824      1965.8923    
      1400   2800           303.21971      2251.2136      17572.235      11402.505      7265.9726      4136.5324      2406.0331      2418.501       8856.0026      0             -9544.0043      0              0             -309.30513      187920.24      57.278441      57.278441      57.278441      0.96126089     2130.0255      2465.0015      2158.614     
      1500   3000           300.2093       1997.9379      16883.468      11397.089      7193.835       4203.2542      2451.4669      2440.9196      8796.5156      0             -9485.6479      0              0             -308.69726      188290.28      57.316013      57.316013      57.316013      0.95937175     2371.7758      1685.5349      1936.5029    
      1600   3200           302.01258      1928.0234      16562.117      11271.08       7237.0465      4034.0334      2362.561       2345.2967      8831.9196      0             -9505.7439      0              0             -308.89301      188170.96      57.303903      57.303903      57.303903      0.9599801      2385.206       1511.6736      1887.1905    
      1700   3400           304.46424      1935.1646      16584.035      11289.596      7295.7951      3993.8012      2343.4476      2406.1254      8819.6654      0             -9575.4372      0              0             -309.83793      187597.09      57.24559       57.24559       57.24559       0.96291673     1957.3015      1881.293       1966.8993    
      1800   3600           297.11666      2108.9513      16831.962      11068.521      7119.727       3948.7938      2312.0989      2386.4576      8817.5577      0             -9567.3205      0              0             -310.18531      187387         57.224212      57.224212      57.224212      0.96399633     2150.2236      2353.5094      1823.1209    
      1900   3800           296.28523      1723.5443      15927.612      11190.753      7099.8036      4090.949       2403.5025      2395.33        8818.6943      0             -9526.5778      0              0             -308.43845      188448.28      57.332039      57.332039      57.332039      0.95856743     1478.1938      2028.3061      1664.1331    
      2000   4000           301.95168      1831.0242      16412.218      11392.196      7235.5873      4156.609       2428.9043      2466.1633      8810.0167      0             -9548.4753      0              0             -309.18973      187990.38      57.285566      57.285566      57.285566      0.96090223     1169.4         2373.5002      1950.1724    
      2100   4200           299.47502      2463.2202      17916.521      11194.54       7176.2396      4018.3003      2418.4707      2375.4968      8778.4294      0             -9554.0966      0              0             -310.62937      187119.12      57.196931      57.196931      57.196931      0.96537636     1816.6049      2692.4966      2880.5592    
      2200   4400           300.21428      1689.125       15852.743      11227.289      7193.9544      4033.3346      2416.0104      2331.4577      8823.3422      0             -9537.4758      0              0             -309.55939      187765.89      57.262754      57.262754      57.262754      0.96205109     1167.3985      2289.5827      1610.3939    
      2300   4600           300.37399      2128.716       17148.723      11322.927      7197.7813      4125.146       2422.9277      2416.9839      8840.3854      0             -9555.1509      0              0             -309.74127      187655.63      57.251544      57.251544      57.251544      0.96261634     2438.0935      2201.1981      1746.8563    
      2400   4800           296.46846      2307.2755      17379.122      11071.951      7104.1941      3967.757       2353.6206      2393.7059      8771.6217      0             -9551.1911      0              0             -310.09975      187438.7       57.229474      57.229474      57.229474      0.96373042     2085.8482      2645.5996      2190.3789    
      2500   5000           299.25409      2291.6216      17498.39       11236.678      7170.9455      4065.7322      2358.9656      2407.4832      8889.9283      0             -9590.6449      0              0             -310.23184      187358.9       57.221351      57.221351      57.221351      0.96414092     1986.8481      2365.2317      2522.7849    
      2600   5200           299.97594      2161.2604      17218.943      11313.311      7188.243       4125.0678      2419.8666      2397.9663      8800.8636      0             -9493.6287      0              0             -310.22536      187362.81      57.221749      57.221749      57.221749      0.96412078     1970.8489      1917.5264      2595.4058    
      2700   5400           307.22524      2491.5877      18309.991      11479.06       7361.956       4117.1044      2434.1428      2417.9961      8807.319       0             -9542.3535      0              0             -309.19532      187986.98      57.285221      57.285221      57.285221      0.9609196      2189.677       2549.7134      2735.3728    
      2800   5600           297.30412      1109.997       14355.839      11311.489      7124.219       4187.27        2419.2547      2456.7066      8863.5575      0             -9552.2488      0              0             -309.07494      188060.2       57.292657      57.292657      57.292657      0.9605455      1307.6602      615.97288      1406.358     
      2900   5800           303.59691      2480.0133      18078.488      11287.112      7275.0115      4012.1007      2387.2039      2344.4459      8808.1988      0             -9527.748       0              0             -309.55145      187770.71      57.263244      57.263244      57.263244      0.96202641     2639.0751      2453.7753      2347.1896    
      3000   6000           297.37205      1495.1976      15276.982      11184.154      7125.8466      4058.3071      2351.6245      2401.6755      8845.9877      0             -9540.9806      0              0             -309.6789       187693.43      57.255387      57.255387      57.255387      0.9624225      1387.5572      1088.4337      2009.6021    
      3100   6200           298.55137      2205.2404      17146.642      11112.58       7154.1066      3958.4735      2356.0239      2409.9047      8771.4724      0             -9578.9275      0              0             -309.80097      187619.47      57.247866      57.247866      57.247866      0.96280188     1639.9629      2298.2879      2677.4706    
      3200   6400           302.36944      1907.6128      16558.001      11344.661      7245.5978      4099.0634      2385.8827      2453.2624      8842.9915      0             -9583.0732      0              0             -310.17785      187391.5       57.22467       57.22467       57.22467       0.96397315     2223.9912      1463.6037      2035.2435    
      3300   6600           298.98761      1719.7031      15908.837      11213.445      7164.5599      4048.8855      2386.0199      2391.2048      8849.845       0             -9578.1841      0              0             -310.469        187215.78      57.206777      57.206777      57.206777      0.96487796     1581.4583      1766.4504      1811.2007    
      3400   6800           303.75335      2286.2582      17549.736      11304.306      7278.76        4025.5464      2408.4452      2437.1397      8740.9261      0             -9560.9646      0              0             -310.31271      187310.07      57.216379      57.216379      57.216379      0.96439226     2459.3682      1845.3625      2554.0438    
      3500   7000           303.12644      1793.4497      16275.977      11355.748      7263.7377      4092.0107      2410.5094      2460.5254      8798.4998      0             -9577.5239      0              0             -308.98718      188113.61      57.298081      57.298081      57.298081      0.96027275     2079.0001      1467.9515      1833.3973    
      3600   7200           296.31502      1269.049       14682.027      11207.817      7100.5173      4107.2996      2334.2989      2453.6376      8851.0548      0             -9531.6917      0              0             -309.64132      187716.21      57.257703      57.257703      57.257703      0.9623057      533.47473      1968.7777      1304.8947    
      3700   7400           304.04973      2125.7922      17233.599      11421.105      7285.8622      4135.2425      2392.5568      2470.1116      8876.277       0             -9603.7029      0              0             -310.02366      187484.71      57.234156      57.234156      57.234156      0.96349394     2326.2457      2002.6824      2048.4485    
      3800   7600           302.75117      2098.9912      17070.406      11346.997      7254.7453      4092.2519      2417.4261      2445.0562      8806.6157      0             -9576.8462      0              0             -310.87975      186968.42      57.181571      57.181571      57.181571      0.9661545      2392.267       1958.2518      1946.4549    
      3900   7800           297.2406       1734.1511      15985.47       11239.127      7122.6969      4116.4303      2420.9707      2406.393       8858.5456      0             -9569.4791      0              0             -309.71652      187670.63      57.253069      57.253069      57.253069      0.96253941     2148.3056      2062.2973      991.8504     
      4000   8000           297.8312       1837.7097      16348.363      11312.215      7136.8493      4175.3653      2437.5527      2489.0301      8827.846       0             -9579.0634      0              0             -309.32494      187908.21      57.277218      57.277218      57.277218      0.96132244     2275.4146      1289.0972      1948.6173    
      4100   8200           299.89848      1959.4091      16601.455      11259.144      7186.3869      4072.7568      2364.5644      2442.5457      8874.4362      0             -9608.7895      0              0             -310.90841      186951.18      57.179814      57.179814      57.179814      0.96624357     2015.457       2447.6332      1415.1371    
      4200   8400           296.64766      2371.21        17596.567      11152.96       7108.4884      4044.4714      2428.0726      2475.3569      8748.2138      0             -9607.172       0              0             -311.94466      186330.15      57.116428      57.116428      57.116428      0.96946405     2667.215       2121.5511      2324.8639    
      4300   8600           297.75352      2202.6447      17166.799      11158.466      7134.9878      4023.4777      2405.4478      2409.2928      8786.3206      0             -9577.5835      0              0             -310.76135      187039.65      57.188832      57.188832      57.188832      0.96578654     2071.0135      2125.4407      2411.48      
      4400   8800           298.65016      1568.4553      15610.272      11319.019      7156.4737      4162.5452      2509.2091      2399.024       8836.6242      0             -9582.3121      0              0             -309.83079      187601.41      57.246029      57.246029      57.246029      0.96289455     1871.0791      1729.7014      1104.5855    
      4500   9000           293.87742      1835.7597      16175.876      11193.624      7042.1058      4151.5185      2437.2833      2408.1279      8926.0998      0             -9619.9925      0              0             -312.33935      186094.69      57.09236       57.09236       57.09236       0.97069066     1019.4613      2055.3583      2432.4595    
      4600   9200           296.97854      1595.5171      15486.255      11157.791      7116.4171      4041.3743      2363.1825      2486.368       8799.8153      0             -9607.9915      0              0             -312.4671       186018.61      57.084578      57.084578      57.084578      0.97108769     1500.9321      1458.5999      1827.0193    
      4700   9400           302.56614      2373.1715      17920.877      11457.665      7250.3114      4207.3537      2447.3208      2489.4447      8854.5241      0             -9583.9359      0              0             -311.25567      186742.6       57.158541      57.158541      57.158541      0.96732281     1970.1235      2287.7916      2861.5996    
      4800   9600           304.58792      1596.5406      15677.35       11299.574      7298.7588      4000.8147      2361.5767      2429.566       8824.483       0             -9614.811       0              0             -309.14553      188017.25      57.288296      57.288296      57.288296      0.96076489     1507.6356      2103.6234      1178.363     
      4900   9800           298.79344      2456.8817      17898.271      11224.77       7159.9072      4064.8625      2408.357       2434.7588      8843.9737      0             -9622.227       0              0             -312.08083      186248.85      57.10812       57.10812       57.10812       0.96988722     2105.4659      3034.0164      2231.1628    
      5000   10000          295.04365      1593.4332      15368.311      11046.888      7070.052       3976.8363      2360.8968      2416.5838      8863.8357      0             -9664.4801      0              0             -312.5674       185958.92      57.078472      57.078472      57.078472      0.97139939     2093.5447      902.23118      1784.5237    
      5100   10200          298.72902      2503.6589      17921.31       11130.771      7158.3633      3972.408       2444.0766      2425.8434      8794.7821      0             -9692.2941      0              0             -312.54137      185974.41      57.080056      57.080056      57.080056      0.97131849     2631.8269      2303.1882      2575.9616    
      5200   10400          296.29523      1658.859       15714.428      11211.74       7100.0431      4111.6967      2491.9735      2403.442       8910.8758      0             -9694.5946      0              0             -312.30161      186117.18      57.094659      57.094659      57.094659      0.97057338     1676.1966      1706.9024      1593.478     
      5300   10600          302.41548      1907.1552      16433.013      11249.598      7246.7012      4002.8964      2388.3108      2447.4308      8862.25        0             -9695.0952      0              0             -311.8937       186360.59      57.119539      57.119539      57.119539      0.96930568     1797.7528      2263.8018      1659.9112    
      5400   10800          301.27915      1462.0849      15267.048      11290.877      7219.4714      4071.4061      2436.7333      2423.222       8837.2979      0             -9625.8471      0              0             -311.70528      186473.24      57.131046      57.131046      57.131046      0.96872009     538.83772      2139.0963      1708.3206    
      5500   11000          295.50357      1772.9834      15967.919      11123.271      7081.0728      4042.1982      2460.6466      2397.7599      8793.6961      0             -9609.9044      0              0             -310.22662      187362.05      57.221672      57.221672      57.221672      0.9641247      2173.8367      1408.2373      1736.8763    
      5600   11200          303.574        1925.3166      16578.766      11332.247      7274.4625      4057.7846      2432.4179      2488.7365      8773.177       0             -9636.5469      0              0             -311.07671      186850.04      57.1695        57.1695        57.1695        0.96676662     2141.4811      2126.6765      1507.7921    
      5700   11400          299.62724      2029.6684      16743.606      11233.283      7179.8872      4053.3957      2410.8889      2414.3436      8882.0319      0             -9653.8686      0              0             -312.23716      186155.6       57.098588      57.098588      57.098588      0.97037307     2329.0151      2036.8436      1723.1463    
      5800   11600          297.71971      2456.1115      17856.375      11192.812      7134.1776      4058.6345      2445.8162      2426.8096      8882.6817      0             -9696.6731      0              0             -312.44829      186029.81      57.085724      57.085724      57.085724      0.97102921     2034.491       2461.4379      2872.4057    
      5900   11800          302.4132       1819.9112      16208.592      11273.731      7246.6465      4027.0843      2425.1893      2434.6218      8845.4792      0             -9678.206       0              0             -312.61642      185929.75      57.075488      57.075488      57.075488      0.97155175     2233.5236      1658.1853      1568.0248    
      6000   12000          301.61767      2096.7547      16949.476      11242.242      7227.5834      4014.6586      2401.6548      2444.2108      8810.0567      0             -9641.2636      0              0             -311.42863      186638.9       57.147958      57.147958      57.147958      0.96786031     2030.1034      2029.8405      2230.3202    
      6100   12200          298.95941      1454.2201      15073.614      11117.854      7163.8843      3953.9694      2409.5801      2384.5031      8801.2774      0             -9641.3912      0              0             -311.62818      186519.38      57.135757      57.135757      57.135757      0.96848049     1833.1605      679.55292      1849.947     
      6200   12400          301.63877      2413.848       17840.491      11296.621      7228.0889      4068.532       2394.213       2439.2672      8896.9608      0             -9661.9091      0              0             -312.68841      185886.95      57.071107      57.071107      57.071107      0.97177548     2294.0615      2773.4158      2174.0666    
      6300   12600          303.49552      1646.1929      15759.418      11295.261      7272.5818      4022.6789      2427.8265      2439.9164      8865.9882      0             -9711.0522      0              0             -312.59197      185944.3       57.076976      57.076976      57.076976      0.97147575     2441.0232      456.95116      2040.6044    
      6400   12800          297.66733      2274.1357      17330.698      11156.984      7132.9225      4024.0615      2430.473       2422.8913      8841.7979      0             -9671.1007      0              0             -312.2529       186146.21      57.097628      57.097628      57.097628      0.97042198     2559.5792      1399.7192      2863.1088    
      6500   13000          301.71945      2102.3111      16995.318      11277.047      7230.0224      4047.025       2466.6789      2462.3425      8798.521       0             -9680.5173      0              0             -311.65122      186505.59      57.134349      57.134349      57.134349      0.96855207     2829.7986      2051.84        1425.2948    
      6600   13200          302.73952      1765.947       16057.833      11260.963      7254.4661      4006.4971      2370.0324      2449.8674      8859.9018      0             -9673.3046      0              0             -312.0731       186253.46      57.108592      57.108592      57.108592      0.9698632      2194.723       1165.7069      1937.4111    
      6700   13400          295.48132      1868.7631      16159.483      11079.318      7080.5397      3998.7786      2427.8957      2440.0281      8833.0094      0             -9702.1546      0              0             -311.82648      186400.76      57.123643      57.123643      57.123643      0.96909677     1481.0815      2347.7913      1777.4166    
      6800   13600          302.51203      2258.8787      17395.775      11274.082      7249.0146      4025.0674      2433.8599      2421.4022      8807.5681      0             -9637.7628      0              0             -312.79368      185824.39      57.064704      57.064704      57.064704      0.97210264     2019.0006      2977.3976      1780.2381    
      6900   13800          301.79986      2263.0604      17389.243      11243.661      7231.9493      4011.7113      2421.565       2490.0193      8801.861       0             -9701.734       0              0             -312.15455      186204.86      57.103624      57.103624      57.103624      0.97011634     2102.2785      2361.2139      2325.6887    
      7000   14000          298.62327      2203.4956      17110.842      11146.533      7155.8293      3990.7042      2434.6353      2443.8356      8839.7801      0             -9727.5467      0              0             -313.17616      185597.44      57.041464      57.041464      57.041464      0.9732913      1764.8305      2692.7234      2152.9329    
      7100   14200          298.40132      1950.1063      16553.257      11256.017      7150.5109      4105.5066      2443.4996      2454.361       8839.936       0             -9632.2901      0              0             -312.06515      186258.21      57.109077      57.109077      57.109077      0.96983849     1781.884       2111.7383      1956.6965    
      7200   14400          302.68918      2221.9909      17396.122      11354.684      7253.2598      4101.4239      2492.0471      2451.6204      8840.1797      0             -9682.4234      0              0             -311.77299      186432.75      57.12691       57.12691       57.12691       0.96893051     2027.3547      2628.5137      2010.1043    
      7300   14600          300.08046      2391.5228      17657.262      11160.732      7190.7475      3969.9847      2451.0417      2430.1569      8809.6756      0             -9720.8895      0              0             -312.05394      186264.89      57.10976       57.10976       57.10976       0.96980367     2882.5559      2104.2186      2187.7938    
      7400   14800          297.49794      2006.3424      16575.466      11142.727      7128.8633      4013.864       2397.4979      2447.4892      8821.8904      0             -9653.0134      0              0             -313.05654      185668.36      57.048728      57.048728      57.048728      0.97291956     2244.3157      1771.5197      2003.1918    
      7500   15000          300.50596      2105.4972      17014.638      11302.406      7200.9438      4101.4626      2460.4877      2486.4924      8826.9929      0             -9672.5105      0              0             -312.45351      186026.7       57.085406      57.085406      57.085406      0.97104544     2325.9223      1954.9909      2035.5783    
      7600   15200          298.91187      1475.101       15181.821      11158.649      7162.7451      3995.904       2408.8275      2398.6325      8804.9479      0             -9616.5039      0              0             -310.80623      187012.65      57.18608       57.18608       57.18608       0.96592601     1983.2635      1268.8817      1173.1578    
      7700   15400          299.28752      1993.3117      16550.887      11120.033      7171.7466      3948.2859      2366.5882      2504.9654      8772.226       0             -9695.4936      0              0             -311.13127      186817.27      57.166158      57.166158      57.166158      0.96693618     2319.2388      1938.3172      1722.3791    
      7800   15600          302.53741      2764.0993      18787.332      11305.127      7249.623       4055.5042      2391.3751      2454.3165      8846.2275      0             -9636.4148      0              0             -313.15593      185609.43      57.042692      57.042692      57.042692      0.97322845     2298.3256      2583.3643      3410.6081    
      7900   15800          297.36534      1967.5051      16370.861      11024.784      7125.6859      3899.0977      2405.5874      2385.7562      8818.4079      0             -9710.6538      0              0             -311.97312      186313.15      57.114691      57.114691      57.114691      0.9695525      2006.5703      1703.534       2192.4109    
      8000   16000          298.79979      2234.2278      17248.751      11198.82       7160.0594      4038.7608      2413.5434      2458.3391      8857.9937      0             -9691.1154      0              0             -313.04992      185672.29      57.04913       57.04913       57.04913       0.97289899     1950.44        2274.9332      2477.3101    
      8100   16200          299.9932       1835.9408      16279.043      11295.948      7188.6566      4107.2912      2451.8018      2479.5346      8852.6322      0             -9676.6775      0              0             -312.3173       186107.83      57.093703      57.093703      57.093703      0.97062213     2249.1966      1337.2188      1921.4069    
      8200   16400          296.25903      2140.2737      16950.445      11132.187      7099.1758      4033.0109      2385.9496      2456.372       8854.179       0             -9663.4897      0              0             -311.82639      186400.82      57.123649      57.123649      57.123649      0.96909647     1859.7619      2535.8345      2025.2248    
      8300   16600          301.17497      2023.2527      16663.614      11176.376      7216.9752      3959.4011      2403.0841      2377.6626      8831.6973      0             -9653.0428      0              0             -312.55965      185963.53      57.078943      57.078943      57.078943      0.97137532     1884.8425      2213.3163      1971.5992    
      8400   16800          303.26993      2038.5681      16848.432      11303.782      7267.1761      4036.6055      2439.1502      2412.3262      8824.0316      0             -9638.9025      0              0             -311.66472      186497.51      57.133524      57.133524      57.133524      0.96859405     1573.0608      2709.6037      1833.0399    
      8500   17000          296.80012      1485.6914      15250.167      11202.512      7112.1417      4090.3702      2458.5204      2433.2425      8839.2037      0             -9640.5964      0              0             -311.14421      186809.5       57.165366      57.165366      57.165366      0.96697641     1345.4011      1857.538       1254.1351    
      8600   17200          301.06348      2134.2616      17091.913      11289.86       7214.3036      4075.5563      2424.2329      2458.3919      8817.5113      0             -9624.5798      0              0             -311.81893      186405.28      57.124104      57.124104      57.124104      0.96907331     2159.1564      1615.796       2627.8323    
      8700   17400          302.52999      2569.6143      18354.757      11356.713      7249.445       4107.2678      2434.1569      2440.9978      8868.0705      0             -9635.9574      0              0             -311.26325      186738.06      57.158077      57.158077      57.158077      0.96734635     2410.8015      2845.0313      2453.01      
      8800   17600          300.44917      1954.3868      16413.688      11101.955      7199.5829      3902.3725      2377.7636      2415.4001      8741.0765      0             -9631.8676      0              0             -311.89679      186358.74      57.11935       57.11935       57.11935       0.96931528     1703.2545      1747.9762      2411.9297    
      8900   17800          300.05281      2033.1431      16653.305      11141.373      7190.0851      3951.2874      2403.238       2365.6082      8858.0908      0             -9675.6496      0              0             -312.68039      185891.72      57.071595      57.071595      57.071595      0.97175055     2446.9295      2213.5328      1438.9669    
      9000   18000          300.43677      1246.0918      14650.072      11261.909      7199.2858      4062.623       2436.8319      2448.1184      8827.6787      0             -9650.006       0              0             -311.76138      186439.69      57.127619      57.127619      57.127619      0.96889444     645.70402      1119.336       1973.2354    
      9100   18200          299.62898      2267.5849      17362.314      11175.101      7179.9288      3995.172       2410.529       2401.5306      8817.3584      0             -9634.246       0              0             -310.6741       187092.18      57.194186      57.194186      57.194186      0.96551537     2130.4011      2489.6171      2182.7365    
      9200   18400          301.48025      1488.1475      15364.066      11303.53       7224.2903      4079.2394      2422.5619      2441.9461      8815.9445      0             -9601.2131      0              0             -310.6699       187094.71      57.194443      57.194443      57.194443      0.96550234     1229.5936      1436.7353      1798.1135    
      9300   18600          299.88144      2205.5802      17182.119      11179.883      7185.9786      3993.9042      2393.74        2346.8456      8865.3612      0             -9612.0425      0              0             -311.49161      186601.16      57.144106      57.144106      57.144106      0.96805604     2737.8741      2414.7321      1464.1345    
      9400   18800          299.50008      1821.1351      16101.12       11157.452      7176.8402      3980.6121      2404.2718      2405.2587      8833.5034      0             -9662.4218      0              0             -312.26943      186136.36      57.096621      57.096621      57.096621      0.97047336     473.65665      2326.1613      2663.5875    
      9500   19000          300.02362      2396.9321      17702.418      11199.314      7189.3856      4009.9283      2424.9267      2434.4197      8838.4553      0             -9687.8734      0              0             -312.44357      186032.62      57.086011      57.086011      57.086011      0.97101455     2377.9024      2590.6909      2222.203     
      9600   19200          297.72646      2045.708       16696.55       11116.226      7134.3394      3981.8864      2365.0856      2420.4156      8839.7761      0             -9643.3909      0              0             -310.75688      187042.34      57.189106      57.189106      57.189106      0.96577264     1752.6856      1698.0881      2686.3503    
      9700   19400          303.07786      1934.6321      16596.936      11310.518      7262.5734      4047.9445      2423.5316      2415.6535      8822.2471      0             -9613.4877      0              0             -310.22262      187364.46      57.221917      57.221917      57.221917      0.96411228     1722.6861      2068.5419      2012.6683    
      9800   19600          301.22767      1932.8649      16455.835      11190.294      7218.2379      3972.056       2359.6104      2415.6466      8832.7305      0             -9635.9315      0              0             -311.16807      186795.18      57.163905      57.163905      57.163905      0.96705054     2152.0603      1134.5489      2511.9854    
      9900   19800          300.13163      1938.8952      16409.027      11132.797      7191.9738      3940.8229      2399.152       2336.6605      8835.6584      0             -9630.6479      0              0             -311.50652      186592.22      57.143194      57.143194      57.143194      0.96810239     2150.6052      2154.2618      1511.8184    
     10000   20000          304.54239      1639.1242      15733.377      11275.249      7297.6677      3977.5812      2371.5383      2421.1463      8800.1282      0             -9615.2317      0              0             -311.67063      186493.98      57.133163      57.133163      57.133163      0.9686124      1504.4817      1569.4735      1843.4175    
     10100   20200          302.1069       2611.8399      18342.668      11238.406      7239.3068      3999.0992      2387.0101      2447.7641      8821.2688      0             -9656.9437      0              0             -311.64786      186507.6       57.134555      57.134555      57.134555      0.96854163     2366.1043      2900.7063      2568.7093    
     10200   20400          299.5564       1630.6308      15517.921      11089.062      7178.1897      3910.8723      2448.2306      2427.6385      8723.4934      0             -9688.4902      0              0             -312.10476      186234.57      57.106661      57.106661      57.106661      0.9699616      1761.8653      1619.7253      1510.3019    
     10300   20600          300.0476       1816.2089      16133.943      11203.729      7189.9602      4013.7684      2432.2596      2415.4406      8813.0429      0             -9646.9747      0              0             -312.27455      186133.3       57.096308      57.096308      57.096308      0.97048929     1466.4897      1727.113       2255.024     
     10400   20800          304.07064      2019.7288      16746.269      11241.399      7286.3631      3955.0363      2415.7888      2397.437       8829.2029      0             -9687.3924      0              0             -311.0159       186886.57      57.173226      57.173226      57.173226      0.96657764     2320.3288      1651.5258      2087.3318    
     10500   21000          294.44425      1846.65        16123.331      11090.316      7055.6887      4034.6268      2392.0487      2429.6141      8854.4924      0             -9641.5284      0              0             -311.02326      186882.15      57.172775      57.172775      57.172775      0.9666005      1666.162       2106.6007      1767.1874    
     10600   21200          304.2557       1676.3361      15905.136      11349.799      7290.7978      4059.0014      2443.2757      2403.1117      8868.9391      0             -9656.3251      0              0             -311.94436      186330.33      57.116447      57.116447      57.116447      0.9694631      1749.9042      1913.2967      1365.8073    
     10700   21400          301.93565      2005.9377      16640.746      11189.78       7235.2031      3954.5768      2399.1264      2365.2751      8882.4226      0             -9692.2473      0              0             -311.94677      186328.89      57.116299      57.116299      57.116299      0.96947061     1403.8682      2602.1913      2011.7536    
     10800   21600          299.5944       2124.1653      16904.786      11133.608      7179.1002      3954.5081      2388.1844      2424.5897      8830.9255      0             -9689.1915      0              0             -312.00418      186294.6       57.112796      57.112796      57.112796      0.96964901     2155.3676      2240.8058      1976.3224    
     10900   21800          298.19914      1756.8319      15892.592      11114.152      7145.6662      3968.4856      2404.5485      2414.9921      8825.836       0             -9676.891       0              0             -311.65968      186500.53      57.133832      57.133832      57.133832      0.96857837     1465.2675      1968.8031      1836.425     
     11000   22000          294.55307      1732.9292      15650.473      10942.923      7058.2962      3884.6264      2383.9995      2420.2951      8779.7213      0             -9699.3895      0              0             -312.04869      186268.03      57.110081      57.110081      57.110081      0.96978735     1043.9254      1807.5864      2347.2756    
     11100   22200          300.82356      2178.2668      17107.183      11171.063      7208.5544      3962.5091      2411.2198      2437.3903      8788.1319      0             -9674.2329      0              0             -311.06062      186859.7       57.170486      57.170486      57.170486      0.96671662     2113.9508      2253.047       2167.8025    
     11200   22400          301.1667       2012.4472      16637.682      11149.83       7216.7769      3933.0529      2472.051       2334.4993      8779.2771      0             -9652.7744      0              0             -310.85559      186982.95      57.183053      57.183053      57.183053      0.96607941     2101.976       1197.7529      2737.6126    
     11300   22600          296.87571      1478.7593      15025.003      11003.582      7113.9532      3889.6289      2450.2419      2374.1801      8726.8154      0             -9661.6084      0              0             -311.71276      186468.77      57.130589      57.130589      57.130589      0.96874334     1696.1175      1411.7753      1328.3853    
     11400   22800          301.03478      1990.6959      16669.648      11268.973      7213.6157      4055.3571      2433.9752      2475.9476      8788.3482      0             -9642.9139      0              0             -312.45927      186023.27      57.085055      57.085055      57.085055      0.97106335     1660.0263      1854.0142      2458.0471    
     11500   23000          298.45764      1857.4502      16159.735      11107.034      7151.8605      3955.1739      2385.3453      2449.8559      8813.1873      0             -9693.2145      0              0             -311.62349      186522.19      57.136044      57.136044      57.136044      0.9684659      1997.02        2025.778       1549.5525    
     11600   23200          301.27159      1996.0608      16628.981      11209.236      7219.2903      3989.9459      2450.3964      2401.8477      8800.0714      0             -9662.3696      0              0             -312.199        186178.35      57.100914      57.100914      57.100914      0.97025447     2252.164       1484.2979      2251.7205    
     11700   23400          304.42027      2249.2656      17377.381      11273.411      7294.7414      3978.6697      2476.9877      2376.2945      8836.9696      0             -9711.5821      0              0             -312.36684      186078.31      57.090685      57.090685      57.090685      0.9707761      1807.5777      2985.4776      1954.7417    
     11800   23600          301.88613      2197.7244      17116.692      11150.431      7234.0165      3916.4148      2466.0914      2386.7183      8783.1627      0             -9719.5576      0              0             -312.25366      186145.76      57.097582      57.097582      57.097582      0.97042436     2309.4282      1792.1962      2491.5487    
     11900   23800          299.45897      1971.3841      16457.546      11116.931      7175.8549      3941.076       2464.8303      2356.6511      8856.3052      0             -9736.7106      0              0             -312.90794      185756.54      57.057758      57.057758      57.057758      0.97245772     1459.2866      2890.5014      1564.3644    
     12000   24000          304.95724      2062.2523      16869.085      11293.741      7307.6086      3986.1323      2448.7415      2413.277       8793.188       0             -9669.0743      0              0             -313.54995      185376.19      57.018788      57.018788      57.018788      0.97445298     1978.292       2025.9156      2182.5494    
     12100   24200          296.4058       1734.9001      15767.203      11040.93       7102.6927      3938.2374      2408.2586      2418.2767      8798.0727      0             -9686.3706      0              0             -311.16611      186796.36      57.164025      57.164025      57.164025      0.96704445     1686.273       1810.1396      1708.2876    
     12200   24400          299.16425      2138.7486      16963.05       11148.712      7168.7927      3979.9192      2392.1883      2436.0654      8795.8022      0             -9644.1368      0              0             -311.81431      186408.04      57.124386      57.124386      57.124386      0.96905893     2380.3639      2233.8357      1802.046     
     12300   24600          302.00587      2210.1804      17270.748      11290.728      7236.8858      4053.8423      2473.88        2463.3918      8799.9562      0             -9683.3857      0              0             -313.30095      185523.52      57.03389       57.03389       57.03389       0.97367911     2399.4607      2029.5508      2201.5297    
     12400   24800          299.11311      2094.8841      16813.722      11123.853      7167.5672      3956.2859      2466.6533      2424.5187      8778.0143      0             -9712.9005      0              0             -312.10041      186237.16      57.106926      57.106926      57.106926      0.96994807     1982.1351      2499.1243      1803.393     
     12500   25000          297.27098      2049.552       16644.002      11083.626      7123.4248      3960.2012      2431.0063      2423.2735      8808.7039      0             -9702.7825      0              0             -312.45778      186024.16      57.085146      57.085146      57.085146      0.97105872     1658.467       2513.3751      1976.814     
     12600   25200          306.54914      2163.2905      17110.679      11245.518      7345.7549      3899.7629      2432.5032      2425.9276      8759.4838      0             -9718.1517      0              0             -312.6594       185904.2       57.072872      57.072872      57.072872      0.97168533     2414.4318      1407.0684      2668.3712    
     12700   25400          296.55454      1514.4475      15092.577      10971.986      7106.2569      3865.7295      2431.6655      2371.7331      8750.9758      0             -9688.6449      0              0             -311.55256      186564.65      57.14038       57.14038       57.14038       0.96824546     1167.3975      1536.9055      1839.0396    
     12800   25600          299.43124      2308.5722      17460.845      11189.667      7175.1904      4014.4763      2446.1899      2462.9647      8818.4716      0             -9713.1499      0              0             -312.05479      186264.39      57.109708      57.109708      57.109708      0.96980632     2200.5553      2385.605       2339.5563    
     12900   25800          299.53309      2566.041       18125.506      11207.23       7177.6311      4029.5986      2472.1368      2429.136       8825.0621      0             -9696.7363      0              0             -314.41429      184866.58      56.966491      56.966491      56.966491      0.97713917     2479.7231      2274.5607      2943.8392    
     13000   26000          295.51203      1903.5292      16118.761      10966.054      7081.2756      3884.7783      2434.2389      2417.2627      8781.8617      0             -9748.585       0              0             -313.15596      185609.41      57.04269       57.04269       57.04269       0.97322853     2370.4649      1220.9384      2119.1842    
     13100   26200          298.60479      1832.8543      16120.13       11144.834      7155.3867      3989.4472      2481.8843      2392.3676      8806.6466      0             -9691.4514      0              0             -312.28103      186129.45      57.095914      57.095914      57.095914      0.9705094      1453.9804      2247.6937      1796.8888    
     13200   26400          303.14867      1850.674       16214.844      11194.98       7264.2704      3930.7099      2451.7034      2385.1918      8794.0344      0             -9700.2197      0              0             -312.51766      185988.51      57.081499      57.081499      57.081499      0.97124482     1934.3431      1629.9424      1987.7365    
     13300   26600          294.28515      1491.769       15030.094      10985.321      7051.8762      3933.4446      2398.4122      2448.5137      8803.1881      0             -9716.6694      0              0             -312.63957      185915.99      57.074079      57.074079      57.074079      0.97162368     972.41174      1942.0831      1560.8122    
     13400   26800          299.00701      2158.6957      16965.068      11111.587      7165.0248      3946.5618      2418.5495      2449.6059      8790.9502      0             -9712.5437      0              0             -312.61783      185928.92      57.075402      57.075402      57.075402      0.97155613     1942.3447      2057.1001      2476.6424    
     13500   27000          295.91668      1922.7246      16356.443      11130.303      7090.972       4039.331       2458.638       2432.7429      8811.323       0             -9663.3729      0              0             -311.86928      186375.18      57.12103       57.12103       57.12103       0.96922978     2166.936       1991.7054      1609.5324    
     13600   27200          301.22813      2270.1289      17469.397      11305.942      7218.249       4087.6932      2468.4649      2496.667       8809.9284      0             -9687.3671      0              0             -312.22158      186164.89      57.099538      57.099538      57.099538      0.97032464     2206.7976      2380.7927      2222.7965    
     13700   27400          300.25344      2044.0153      16634.106      11106.886      7194.8927      3911.9933      2435.0674      2430.3221      8756.2487      0             -9709.645       0              0             -313.48297      185415.8       57.022849      57.022849      57.022849      0.97424482     1823.5327      1816.5367      2491.9763    
     13800   27600          301.06596      2236.1007      17166.854      11096.134      7214.3628      3881.7711      2452.6627      2401.0396      8743.6177      0             -9715.5489      0              0             -312.23941      186154.26      57.098451      57.098451      57.098451      0.97038006     1984.6311      2306.4728      2417.1982    
     13900   27800          301.6912       1736.5227      15935.465      11210.687      7229.3453      3981.3419      2499.7147      2418.2448      8748.5502      0             -9685.1678      0              0             -311.55568      186562.78      57.140189      57.140189      57.140189      0.96825516     1758.686       1451.5754      1999.3068    
     14000   28000          297.77561      1768.4279      15883.19       11090.507      7135.5171      3954.9902      2406.7222      2428.617       8806.9966      0             -9687.3456      0              0             -312.78453      185829.83      57.065261      57.065261      57.065261      0.97207418     2163.9812      1358.2552      1783.0472    
     14100   28200          299.51254      2185.6167      17015.227      11115.106      7177.1387      3937.9677      2477.2212      2442.6219      8780.0657      0             -9761.9411      0              0             -314.01447      185101.96      56.990659      56.990659      56.990659      0.9758966      1969.9945      2441.8458      2145.0097    
     14200   28400          299.24903      1543.1455      15458.183      11278.598      7170.8244      4107.7733      2447.6304      2488.5859      8853.4757      0             -9681.9187      0              0             -312.97545      185716.47      57.053655      57.053655      57.053655      0.97266754     1575.3178      1204.491       1849.6278    
     14300   28600          301.0274       1927.9909      16478.665      11236.783      7213.439       4023.3444      2444.7328      2444.3694      8849.3945      0             -9715.1523      0              0             -311.7844       186425.92      57.126213      57.126213      57.126213      0.96896599     1724.9237      2136.684       1922.365     
     14400   28800          299.11815      2445.9373      17736.313      11128.948      7167.6882      3961.2594      2389.7159      2474.5283      8770.7984      0             -9673.7832      0              0             -313.80047      185228.2       57.003611      57.003611      57.003611      0.97523154     1822.5069      2824.2304      2691.0748    
     14500   29000          298.98347      2349.0033      17371.889      11017.387      7164.4607      3852.9264      2410.0398      2406.8695      8777.0418      0             -9741.0247      0              0             -313.35647      185490.65      57.030521      57.030521      57.030521      0.97385169     2365.4419      2239.9031      2441.665     
     14600   29200          295.79801      1951.8008      16288.415      11002.345      7088.1284      3914.2165      2475.6989      2413.3141      8758.4809      0             -9733.2773      0              0             -312.99624      185704.13      57.052392      57.052392      57.052392      0.97273215     1681.2428      2495.7121      1678.4473    
     14700   29400          300.77088      2068.6943      16776.687      11170.916      7207.292       3963.6235      2461.9055      2417.2791      8810.8604      0             -9726.4214      0              0             -312.82213      185807.49      57.062974      57.062974      57.062974      0.97219106     1666.3131      2503.2141      2036.5558    
     14800   29600          301.39599      1462.9178      15102.355      11140.649      7222.2713      3918.3773      2412.8868      2460.8219      8776.8666      0             -9732.198       0              0             -313.02155      185689.11      57.050854      57.050854      57.050854      0.97281081     1198.9573      1966.0779      1223.7181    
     14900   29800          296.79982      2255.8989      17069.438      10977.551      7112.1344      3865.4165      2443.858       2362.3463      8791.2777      0             -9732.0654      0              0             -313.90943      185163.9       56.997014      56.997014      56.997014      0.97557018     2282.5185      2518.393       1966.7851    
     15000   30000          300.43839      2027.5095      16654.825      11159.753      7199.3247      3960.4286      2464.7711      2434.1128      8794.2022      0             -9732.6575      0              0             -312.77072      185838.03      57.066101      57.066101      57.066101      0.97203128     1992.3273      2296.9826      1793.2185    
     15100   30200          299.48704      2223.8338      17106.325      11092.116      7176.5276      3915.5888      2391.6372      2469.7232      8786.2819      0             -9732.0535      0              0             -313.44435      185438.64      57.025191      57.025191      57.025191      0.97412478     2105.3336      2451.5941      2114.5736    
     15200   30400          297.6538       2482.2412      17796.051      11094.866      7132.5982      3962.2682      2443.5272      2446.4474      8784.634       0             -9712.3404      0              0             -313.99949      185110.79      56.991565      56.991565      56.991565      0.97585006     2787.3269      2316.9973      2342.3993    
     15300   30600          306.75877      1701.0633      15782.967      11157.72       7350.7781      3806.9415      2393.2254      2333.9759      8756.5         0             -9676.7597      0              0             -311.76121      186439.79      57.127629      57.127629      57.127629      0.96889391     1633.4235      1929.4597      1540.3068    
     15400   30800          296.44556      1242.6432      14434.478      11039.948      7103.6455      3936.3026      2445.0126      2414.431       8735.9827      0             -9659.1237      0              0             -310.31543      187308.42      57.216212      57.216212      57.216212      0.96440071     1258.7387      1508.1232      961.06774    
     15500   31000          300.11608      2484.4679      18037.714      11286.366      7191.6011      4094.7652      2523.7102      2436.7309      8797.493       0             -9663.1689      0              0             -311.94606      186329.31      57.116343      57.116343      57.116343      0.96946837     2488.6056      2243.2142      2721.5839    
     15600   31200          300.96133      2213.661       17127.511      11115.953      7211.8558      3904.0968      2450.8237      2366.0642      8796.6983      0             -9709.4895      0              0             -312.14805      186208.74      57.104021      57.104021      57.104021      0.97009612     1360.8149      2767.1376      2513.0304    
     15700   31400          301.69279      1336.5738      14735.135      11101.4        7229.3836      3872.0164      2425.8526      2352.445       8763.7741      0             -9670.0552      0              0             -311.80009      186416.54      57.125255      57.125255      57.125255      0.96901473     989.97692      892.09038      2127.6541    
     15800   31600          303.66042      2003.4059      16719.445      11270.155      7276.5334      3993.6221      2441.4004      2441.6597      8778.8523      0             -9668.2903      0              0             -311.64893      186506.96      57.134489      57.134489      57.134489      0.96854497     1446.8307      2221.7858      2341.6012    
     15900   31800          299.81022      1984.204       16526.562      11116.914      7184.2719      3932.6418      2451.7124      2396.8836      8773.6126      0             -9689.5668      0              0             -310.92372      186941.98      57.178876      57.178876      57.178876      0.96629115     2174.8089      2397.7383      1380.0647    
     16000   32000          303.18616      2386.0266      17620.755      11153.628      7265.1688      3888.4591      2475.3781      2351.9828      8760.5942      0             -9699.496       0              0             -312.75226      185849         57.067224      57.067224      57.067224      0.9719739      2551.628       2619.4654      1986.9864    
     16100   32200          303.30736      2081.1177      16907.442      11267.661      7268.073       3999.5879      2514.7117      2354.5407      8811.8723      0             -9681.5367      0              0             -312.80306      185818.81      57.064134      57.064134      57.064134      0.9721318      2530.686       2042.938       1669.7291    
     16200   32400          300.60974      1907.8478      16381.146      11185.924      7203.4307      3982.4931      2492.8732      2395.8202      8812.4529      0             -9718.6532      0              0             -311.29787      186717.29      57.155959      57.155959      57.155959      0.96745394     2049.0964      2022.1709      1652.2761    
     16300   32600          299.62881      2212.1495      17103.194      11098.674      7179.9249      3918.7491      2449.6671      2372.9177      8777.4166      0             -9681.2523      0              0             -312.30055      186117.81      57.094724      57.094724      57.094724      0.97057008     2049.3585      2219.2029      2367.8869    
     16400   32800          301.77338      2497.8213      18079.221      11296.399      7231.3146      4065.0843      2460.9728      2427.5792      8872.3493      0             -9695.817       0              0             -312.1674       186197.2       57.102841      57.102841      57.102841      0.97015626     2584.9846      2498.6799      2409.7993    
     16500   33000          296.73495      1735.1705      15843.963      11130.888      7110.5801      4020.3074      2389.809       2427.1574      8834.2745      0             -9630.9336      0              0             -312.08604      186245.74      57.107802      57.107802      57.107802      0.96990342     1306.8478      1644.1646      2254.4991    
     16600   33200          297.68532      1292.3753      14693.713      11177.552      7133.3534      4044.1982      2462.9014      2391.3408      8839.1339      0             -9649.1779      0              0             -311.57059      186553.85      57.139277      57.139277      57.139277      0.96830151     1465.2854      621.57718      1790.2633    
     16700   33400          300.33175      1967.6201      16690.73       11336.684      7196.7693      4139.9143      2539.6855      2431.4525      8825.2274      0             -9656.4511      0              0             -311.52703      186579.94      57.14194       57.14194       57.14194       0.96816612     2133.9039      1533.6852      2235.2712    
     16800   33600          299.94152      1780.9975      15965.537      11120.472      7187.4184      3933.0541      2493.5157      2386.3723      8745.666       0             -9692.5         0              0             -311.60206      186535.01      57.137354      57.137354      57.137354      0.9683993      2131.5221      1807.6778      1403.7925    
     16900   33800          300.24984      2223.7922      17206.448      11164.715      7194.8064      3969.9084      2475.2332      2382.8663      8798.8558      0             -9687.0469      0              0             -312.0105       186290.83      57.112411      57.112411      57.112411      0.96966867     2380.3852      2350.8009      1940.1906    
     17000   34000          302.80981      2093.0271      16994.653      11302.639      7256.1504      4046.4886      2459.5628      2401.5409      8859.8185      0             -9674.4336      0              0             -311.70621      186472.68      57.130989      57.130989      57.130989      0.968723       2340.3845      1835.4202      2103.2768    
     17100   34200          301.09324      2172.1235      17045.655      11147.656      7215.0167      3932.6395      2444.0354      2369.8458      8788.5802      0             -9669.8218      0              0             -312.18815      186184.82      57.101576      57.101576      57.101576      0.97022075     2246.1871      2230.9899      2039.1934    
     17200   34400          300.61635      2172.415       17094.217      11186.706      7203.589       3983.1171      2441.0178      2461.2961      8781.295       0             -9700.492       0              0             -311.72728      186460.08      57.129702      57.129702      57.129702      0.96878848     2140.0341      1937.3555      2439.8554    
     17300   34600          300.29019      1878.9842      16435.166      11314.525      7195.7733      4118.7513      2503.6986      2476.1357      8804.1447      0             -9665.2277      0              0             -311.05369      186863.86      57.17091       57.17091       57.17091       0.96669509     1872.7328      2069.4031      1694.8167    
     17400   34800          300.59093      2768.2735      18654.962      11119.704      7202.9799      3916.724       2444.5307      2423.8344      8742.3174      0             -9693.9583      0              0             -311.42069      186643.65      57.148444      57.148444      57.148444      0.96783563     3345.4795      2568.0568      2391.2843    
     17500   35000          300.86496      1994.3407      16471.872      11070.429      7209.5464      3860.8823      2436.8615      2373.5693      8738.6018      0             -9688.1502      0              0             -312.98685      185709.7       57.052962      57.052962      57.052962      0.97270297     1689.5558      2090.1662      2203.3001    
     17600   35200          295.54786      1702.7207      15558.798      10930.853      7082.1341      3848.7192      2467.816       2384.9329      8721.1762      0             -9725.2059      0              0             -311.88311      186366.92      57.120186      57.120186      57.120186      0.96927275     1309.4054      2661.4154      1137.3414    
     17700   35400          299.47414      2102.7238      16790.366      11089.265      7176.2186      3913.0462      2411.0727      2388.1586      8794.7911      0             -9680.9761      0              0             -312.65118      185909.08      57.073373      57.073373      57.073373      0.97165977     1738.3977      2726.691       1843.0827    
     17800   35600          303.7764       1813.9851      16191.592      11268.484      7279.3125      3989.1711      2473.1143      2393.694       8809.3438      0             -9686.981       0              0             -312.34233      186092.91      57.092178      57.092178      57.092178      0.97069993     1491.7668      2033.6999      1916.4886    
     17900   35800          297.6364       2029.1622      16601.287      11081.061      7132.1814      3948.8794      2430.524       2391.7098      8833.2624      0             -9706.6168      0              0             -311.59929      186536.67      57.137523      57.137523      57.137523      0.96839069     2435.7427      1885.0453      1766.6987    
     18000   36000          297.5388       2556.952       18047.86       11104.377      7129.8426      3974.5341      2446.4163      2452.9713      8768.0382      0             -9692.8917      0              0             -312.16322      186199.69      57.103096      57.103096      57.103096      0.97014327     2889.9215      2085.2829      2695.6516    
     18100   36200          298.52525      1909.8624      16307.184      11131.025      7153.4805      3977.5444      2451.9287      2437.6626      8781.9405      0             -9693.9875      0              0             -312.77428      185835.91      57.065884      57.065884      57.065884      0.97204235     2134.6534      1584.376       2010.5578    
     18200   36400          295.49017      2345.2607      17376.694      11023.684      7080.7516      3942.9325      2464.9811      2419.0536      8774.6157      0             -9715.7179      0              0             -312.93073      185743.01      57.056373      57.056373      57.056373      0.97252854     2903.806       1446.79        2685.1862    
     18300   36600          301.98883      1334.3129      14755.269      11139.354      7236.4774      3902.8764      2421.8335      2373.3616      8840.5046      0             -9732.8233      0              0             -312.80664      185816.69      57.063916      57.063916      57.063916      0.97214292     1543.436       1093.0071      1366.4958    
     18400   36800          300.82175      2740.9107      18629.843      11204.651      7208.511       3996.1403      2439.2751      2363.4513      8890.9409      0             -9697.527       0              0             -312.91313      185753.45      57.057442      57.057442      57.057442      0.97247387     2552.979       2768.4665      2901.2867    
     18500   37000          304.54646      1771.5129      16184.248      11356.505      7297.7652      4058.7393      2463.9432      2475.9663      8806.2709      0             -9687.441       0              0             -311.05466      186863.28      57.170851      57.170851      57.170851      0.96669808     1751.4013      1625.4867      1937.6507    
     18600   37200          302.34899      2195.0668      17196.062      11231.008      7245.1078      3985.9002      2453.4496      2404.4313      8800.5842      0             -9672.565       0              0             -311.9392       186333.41      57.116762      57.116762      57.116762      0.96944708     1721.8084      2914.2484      1949.1436    
     18700   37400          299.58335      1833.5081      16124.094      11148.715      7178.8356      3969.8792      2439.2015      2417.0812      8811.2123      0             -9697.6158      0              0             -312.38719      186066.19      57.089445      57.089445      57.089445      0.97083932     1950.8269      1891.2623      1658.4349    
     18800   37600          296.24827      2037.8271      16515.615      10981.943      7098.9179      3883.0254      2466.1444      2350.542       8773.4703      0             -9707.1312      0              0             -312.16954      186195.92      57.10271       57.10271       57.10271       0.97016294     2109.2276      2033.8815      1970.3723    
     18900   37800          302.85376      1922.2039      16318.105      11105.095      7257.2035      3847.8913      2438.8883      2339.0089      8778.9013      0             -9708.9072      0              0             -312.57013      185957.29      57.078305      57.078305      57.078305      0.97140788     2109.5504      1800.8873      1856.1739    
     19000   38000          300.11463      2220.0469      17119.084      11103.166      7191.5664      3911.5998      2460.8499      2408.7689      8754.4998      0             -9712.5188      0              0             -312.82166      185807.77      57.063003      57.063003      57.063003      0.9721896      2711.2098      2128.1827      1820.7481    
     19100   38200          300.67811      1704.7418      15675.887      11064.562      7205.069       3859.4932      2411.486       2417.8781      8779.169       0             -9749.0398      0              0             -313.37872      185477.48      57.029171      57.029171      57.029171      0.97392081     1469.4485      1852.4011      1792.376     
     19200   38400          300.74053      2637.1468      18092.72       10957.291      7206.5646      3750.7262      2434.6008      2298.2377      8755.2989      0             -9737.4112      0              0             -313.29308      185528.18      57.034367      57.034367      57.034367      0.97365467     3083.6636      2612.1429      2215.6338    
     19300   38600          299.34488      1241.2973      14439.634      11064.459      7173.1211      3891.3377      2466.7609      2365.6449      8780.5994      0             -9721.6674      0              0             -311.75692      186442.35      57.127891      57.127891      57.127891      0.96888059     788.99895      993.62187      1941.2711    
     19400   38800          298.96659      2110.1938      16931.52       11208.619      7164.0564      4044.5625      2470.7387      2443.2832      8815.8763      0             -9685.3356      0              0             -312.56666      185959.35      57.078516      57.078516      57.078516      0.97139711     1884.9988      2075.6482      2369.9344    
     19500   39000          299.7345       1924.7542      16330.924      11127.411      7182.4575      3944.9537      2437.9284      2437.3472      8805.1533      0             -9735.4753      0              0             -313.55611      185372.55      57.018415      57.018415      57.018415      0.97447212     1993.7808      1386.3275      2394.1544    
     19600   39200          299.597        1948.2574      16318.559      11051.451      7179.1626      3872.2879      2425.3958      2427.7282      8759.6082      0             -9740.4443      0              0             -313.55279      185374.51      57.018616      57.018616      57.018616      0.97446181     1819.0665      2008.1288      2017.577     
     19700   39400          303.10566      2249.4088      17320.741      11238.437      7263.2397      3975.1974      2471.2047      2417.8596      8816.0794      0             -9729.9464      0              0             -313.49949      185406.03      57.021847      57.021847      57.021847      0.97429614     2284.5622      2160.9355      2302.7288    
     19800   39600          299.0144       2462.1491      17775.045      11110.304      7165.2018      3945.1025      2409.0354      2472.8816      8798.8934      0             -9735.7078      0              0             -313.16103      185606.41      57.042383      57.042383      57.042383      0.97324427     2168.3816      2919.129       2298.9368    
     19900   39800          295.65747      1905.0519      16219.88       11058.634      7084.7607      3973.8735      2511.8702      2415.1084      8790.2659      0             -9743.371       0              0             -312.88793      185768.42      57.058974      57.058974      57.058974      0.97239554     1996.216       2012.9022      1706.0375    
     20000   40000          299.442        1755.1319      15851.094      11109.88       7175.4485      3934.4318      2458.6187      2398.3259      8788.3558      0             -9710.8686      0              0             -313.80282      185226.81      57.003468      57.003468      57.003468      0.97523884     1655.6738      2223.2116      1386.5102    
     20100   40200          297.31261      2227.1834      17059.119      11031.307      7124.4225      3906.8841      2502.1722      2413.8597      8767.5079      0             -9776.6557      0              0             -313.20799      185578.58      57.039532      57.039532      57.039532      0.97339023     2846.4937      1700.7162      2134.3404    
     20200   40400          299.64148      1540.9877      15183.581      11025.302      7180.2286      3845.0731      2414.6086      2397.4428      8797.1366      0             -9764.1149      0              0             -314.13917      185028.48      56.983116      56.983116      56.983116      0.97628416     1546.8716      1401.9815      1674.11      
     20300   40600          303.30996      1877.4834      16250.444      11185.902      7268.1354      3917.7668      2441.1133      2403.4847      8795.7374      0             -9722.5685      0              0             -314.24797      184964.42      56.976539      56.976539      56.976539      0.97662229     1672.2332      1636.2193      2323.9976    
     20400   40800          299.33361      2018.21        16506.6        11026.879      7172.851       3854.028       2429.9914      2380.7137      8803.4963      0             -9760.1735      0              0             -312.20832      186172.79      57.100346      57.100346      57.100346      0.97028345     1945.2174      1929.6552      2179.7574    
     20500   41000          301.60617      1823.9436      16021.93       11077.209      7227.3077      3849.9016      2440.3907      2379.3489      8724.4928      0             -9694.3308      0              0             -312.68439      185889.34      57.071352      57.071352      57.071352      0.97176297     2333.5106      1703.35        1434.9702    
     20600   41200          296.69423      2047.598       16766.515      11236.73       7109.6044      4127.1259      2540.4282      2461.5321      8831.4325      0             -9706.2669      0              0             -313.8868       185177.25      56.998384      56.998384      56.998384      0.97549982     2598.1354      2163.2771      1381.3814    
     20700   41400          302.79708      2294.2385      17393.437      11192.621      7255.8453      3936.776       2542.1651      2387.3592      8768.788       0             -9761.5363      0              0             -313.63629      185325.15      57.013555      57.013555      57.013555      0.97472131     2149.795       2023.5909      2709.3296    
     20800   41600          296.15317      1744.4118      15763.143      11038.087      7096.6389      3941.4478      2432.3192      2422.9736      8814.1429      0             -9727.9879      0              0             -312.95265      185730         57.05504       57.05504       57.05504       0.97259668     1797.9676      1677.6305      1757.6374    
     20900   41800          306.20503      2503.4551      18006.866      11221.074      7337.5091      3883.5645      2456.2706      2380.4302      8773.4529      0             -9726.5892      0              0             -312.73453      185859.54      57.068302      57.068302      57.068302      0.9719188      1957.8288      2525.8531      3026.6835    
     21000   42000          297.9838       1982.4415      16381.572      11009.629      7140.5061      3869.123       2434.8428      2392.8558      8789.8493      0             -9748.4249      0              0             -312.82798      185804.01      57.062619      57.062619      57.062619      0.97220924     1523.3222      2341.8994      2082.1029    
     21100   42200          297.83185      2117.5574      16850.547      11127.702      7136.8648      3990.837       2485.9033      2427.9936      8767.8031      0             -9690.8629      0              0             -313.66044      185310.89      57.012093      57.012093      57.012093      0.97479634     2035.3321      2441.7513      1875.5887    
     21200   42400          300.21508      2017.0345      16696.7        11214.466      7193.9736      4020.4919      2495.5001      2492.7459      8776.0768      0             -9743.8309      0              0             -311.88345      186366.72      57.120165      57.120165      57.120165      0.96927381     2018.9697      2084.7908      1947.3431    
     21300   42600          302.15569      1823.3252      16031.284      11091.26       7240.4757      3850.7842      2415.6667      2407.8919      8746.6856      0             -9719.46        0              0             -312.87559      185775.74      57.059724      57.059724      57.059724      0.9723572      2596.1012      1927.0287      946.84573    
     21400   42800          300.79852      2122.7766      16804.978      11082.265      7207.9543      3874.3108      2452.7077      2392.7648      8736.1465      0             -9707.3081      0              0             -314.44083      184850.98      56.964888      56.964888      56.964888      0.97722167     2441.2509      1824.4908      2102.5882    
[...]
    495100   990200         301.51886      2203.4044      17039.943      11091.491      7225.2156      3866.275       2501.9081      2372.1462      8758.735       0             -9766.5143      0              0             -313.99791      185111.73      56.99166       56.99166       56.99166       0.97584514     1613.7058      2600.2296      2396.2777    
    495200   990400         299.59099      1877.6226      16143.151      11073.471      7179.0186      3894.4521      2471.8455      2390.493       8802.7581      0             -9770.6446      0              0             -313.95279      185138.33      56.99439       56.99439       56.99439       0.97570493     1768.1048      2165.1845      1699.5787    
    495300   990600         295.0188       2535.6904      17735.177      10880.513      7069.4564      3811.0567      2468.4531      2360.563       8764.1966      0             -9782.1559      0              0             -313.57877      185359.15      57.017041      57.017041      57.017041      0.97454255     2243.1257      2458.7644      2905.181     
    495400   990800         299.62942      1917.0716      16253.943      11088.894      7179.9395      3908.9545      2469.7712      2423.274       8779.8648      0             -9763.9555      0              0             -314.63024      184739.7       56.953455      56.953455      56.953455      0.97781029     2202.2587      2060.9856      1487.9703    
    495500   991000         301.81222      2434.4858      17601.547      11067.293      7232.2454      3835.0476      2428.0805      2452.7958      8765.9519      0             -9811.7806      0              0             -315.82595      184040.28      56.881489      56.881489      56.881489      0.98152633     2121.4917      1901.8267      3280.1389    
    495600   991200         293.54952      2129.4551      16603.856      10873.756      7034.2485      3839.5072      2496.2091      2319.9087      8832.8858      0             -9809.4965      0              0             -315.0234       184509.14      56.929752      56.929752      56.929752      0.97903217     2975.9533      2098.8595      1313.5524    
    495700   991400         302.60893      1879.5452      16076.565      11007.694      7251.3366      3756.3569      2474.4221      2375.9043      8704.4508      0             -9798.4203      0              0             -314.32436      184919.47      56.971923      56.971923      56.971923      0.9768597      2561.8512      1343.5441      1733.2403    
    495800   991600         300.08104      2061.6084      16605.929      11038.713      7190.7615      3847.9516      2475.2508      2404.1991      8756.7139      0             -9788.2122      0              0             -313.90967      185163.76      56.997         56.997         56.997         0.97557092     2443.3343      2152.6506      1588.8401    
    495900   991800         302.94324      2306.1052      17248.374      11024.947      7259.3476      3765.5996      2468.0079      2386.9237      8695.3646      0             -9784.6966      0              0             -314.11316      185043.81      56.98469       56.98469       56.98469       0.97620331     2277.796       2338.2986      2302.2211    
    496000   992000         300.45567      2413.5134      17504.788      11017.634      7199.7386      3817.8953      2474.7953      2420.4165      8758.4539      0             -9835.7704      0              0             -315.37851      184301.38      56.908376      56.908376      56.908376      0.98013579     2331.3137      2804.5409      2104.6856    
    496100   992200         298.40464      1493.9731      14932.705      10913.513      7150.5905      3762.9226      2432.4859      2412.4904      8723.9315      0             -9805.9852      0              0             -315.09436      184467.58      56.925478      56.925478      56.925478      0.9792527      1403.2036      1506.7899      1571.9257    
    496200   992400         301.37281      1557.5588      15297.894      11092.658      7221.7158      3870.9425      2465.9455      2419.7951      8794.2258      0             -9809.0239      0              0             -313.97179      185127.12      56.99324       56.99324       56.99324       0.97576398     1752.1663      1228.3283      1692.1818    
    496300   992600         298.89423      1742.4015      15714.902      11009.596      7162.3224      3847.274       2503.2345      2361.0564      8778.9249      0             -9795.9418      0              0             -313.90409      185167.05      56.997337      56.997337      56.997337      0.97555358     1606.3365      1586.6116      2034.2564    
    496400   992800         298.04303      2270.8119      17143.133      11043.35       7141.9251      3901.4252      2457.6369      2434.4947      8811.1805      0             -9801.8868      0              0             -315.57558      184186.29      56.896528      56.896528      56.896528      0.98074824     2542.4855      2526.9907      1742.9594    
    496500   993000         298.14037      1944.2995      16182.295      10947.353      7144.2578      3803.0956      2469.7175      2390.4996      8748.4485      0             -9805.5701      0              0             -314.83852      184617.48      56.940893      56.940893      56.940893      0.97845759     1791.9536      1944.017       2096.9278    
    496600   993200         298.99222      2325.2325      17374.849      11094.566      7164.6705      3929.8951      2552.1903      2365.7696      8787.9216      0             -9775.9864      0              0             -313.85116      185198.28      57.000542      57.000542      57.000542      0.97538907     1800.0918      3187.0522      1988.5534    
    496700   993400         300.90329      1802.3392      15944.39       11088.686      7210.4648      3878.221       2465.9507      2443.2598      8797.328       0             -9828.3176      0              0             -314.64501      184731.02      56.952564      56.952564      56.952564      0.9778562      1890.9493      1840.3699      1675.6983    
    496800   993600         298.89138      1914.156       16139.511      10982.58       7162.254       3820.3258      2484.4185      2364.7282      8782.5389      0             -9811.3597      0              0             -314.64624      184730.3       56.952489      56.952489      56.952489      0.97786004     2173.363       1329.6841      2239.421     
    496900   993800         300.1678       2121.7977      16871.663      11125.714      7192.8405      3932.8733      2506.4858      2453.2026      8777.6037      0             -9804.4188      0              0             -313.02479      185687.2       57.050657      57.050657      57.050657      0.97282086     1987.1763      2078.1427      2300.074     
    497000   994000         301.01343      2175.747       16974.929      11098.332      7213.1043      3885.2274      2484.4174      2423.3961      8784.4226      0             -9807.0088      0              0             -313.84776      185200.28      57.000747      57.000747      57.000747      0.97537851     2336.4526      1490.8075      2699.981     
    497100   994200         295.65374      2396.1947      17284.324      10852.33       7084.6713      3767.6586      2435.5576      2359.9108      8790.1362      0             -9817.946       0              0             -315.80068      184055         56.883006      56.883006      56.883006      0.9814478      1565.6655      3061.9928      2560.9256    
    497200   994400         299.62532      2125.0378      16729.829      11021.831      7179.8413      3841.9898      2504.4261      2378.1468      8783.0389      0             -9823.622       0              0             -315.58723      184179.49      56.895828      56.895828      56.895828      0.98078444     2333.8788      2299.2158      1742.0188    
    497300   994600         302.86476      1621.525       15481.5        11108.867      7257.4671      3851.3996      2472.0619      2390.456       8769.4621      0             -9780.5804      0              0             -314.35264      184902.84      56.970215      56.970215      56.970215      0.97694757     1366.11        2008.5754      1489.8896    
    497400   994800         297.16651      1654.9301      15367.139      10894.079      7120.9215      3773.158       2454.9928      2361.2407      8746.4876      0             -9789.5631      0              0             -313.62565      185331.44      57.0142        57.0142        57.0142        0.97468823     1586.1746      1842.813       1535.8026    
    497500   995000         301.69569      1563.1336      15270.561      11052.229      7229.453       3822.776       2507.9462      2380.2178      8719.264       0             -9784.652       0              0             -314.11734      185041.34      56.984436      56.984436      56.984436      0.97621632     1093.6473      1848.2734      1747.4801    
    497600   995200         302.6037       2353.3634      17455.442      11118.189      7251.2113      3866.978       2487.6981      2364.8941      8794.1591      0             -9779.7733      0              0             -314.79264      184644.39      56.94366       56.94366       56.94366       0.978315       1810.714       2828.5656      2420.8105    
    497700   995400         299.08965      2311.7531      17231.324      11003.196      7167.0051      3836.1912      2458.6505      2388.9953      8796.7767      0             -9808.2314      0              0             -314.64479      184731.15      56.952577      56.952577      56.952577      0.97785553     1774.9535      2658.2601      2502.0458    
    497800   995600         295.93249      2050.4843      16547.284      11017.235      7091.351       3925.8844      2511.3822      2438.0621      8767.7596      0             -9791.3195      0              0             -314.31423      184925.43      56.972536      56.972536      56.972536      0.9768282      1637.426       2019.4162      2494.6108    
    497900   995800         303.27184      1339.9871      14797.983      11172.96       7267.2218      3905.7383      2523.2499      2413.4581      8737.0272      0             -9767.9969      0              0             -313.34761      185495.89      57.031059      57.031059      57.031059      0.97382413     1288.2308      1452.3378      1279.3926    
    498000   996000         301.3042       2179.8028      16880.357      10991.57       7220.0719      3771.4977      2461.8138      2358.0451      8740.0935      0             -9788.4546      0              0             -313.78188      185239.17      57.004736      57.004736      57.004736      0.97517378     1707.297       2593.0231      2239.0882    
    498100   996200         296.8002       1697.2532      15487.35       10916.396      7112.1437      3804.2521      2477.5978      2347.9856      8746.3323      0             -9767.6637      0              0             -314.75767      184664.9       56.945768      56.945768      56.945768      0.97820633     1374.4666      1774.5586      1942.7344    
    498200   996400         303.56363      2434.2871      17654.013      11081.755      7274.2139      3807.5411      2487.401       2351.204       8779.9325      0             -9810.9963      0              0             -313.97405      185125.79      56.993104      56.993104      56.993104      0.97577098     2480.6917      2529.9156      2292.254     
    498300   996600         298.04695      1860.9255      16030.765      11010.318      7142.0191      3868.2991      2442.6672      2412.6357      8767.2132      0             -9754.2169      0              0             -314.21232      184985.41      56.978694      56.978694      56.978694      0.97651149     1086.3069      1945.4123      2551.0574    
    498400   996800         299.20063      1763.9727      15784.431      11020.654      7169.6646      3850.9897      2439.2547      2414.1907      8795.1334      0             -9797.5891      0              0             -313.88965      185175.57      56.998212      56.998212      56.998212      0.9755087      1329.3334      2212.4731      1750.1117    
    498500   997000         299.32972      2096.1148      16700.875      11047.283      7172.758       3874.5245      2432.9557      2432.6488      8761.5288      0             -9752.6087      0              0             -314.28753      184941.14      56.974149      56.974149      56.974149      0.97674522     2142.3772      1856.957       2289.0103    
    498600   997200         302.64456      2432.4769      17571.967      11013.443      7252.1906      3761.252       2438.3363      2371.9714      8762.1787      0             -9811.2344      0              0             -314.39755      184876.42      56.967502      56.967502      56.967502      0.97708715     2297.17        2396.7793      2603.4815    
    498700   997400         302.24457      1914.0799      16115.905      10954.481      7242.6057      3711.8749      2450.1095      2294.1334      8753.8154      0             -9786.1834      0              0             -314.35986      184898.59      56.969779      56.969779      56.969779      0.97697001     1692.7586      2531.5717      1517.9095    
    498800   997600         301.71108      2157.4391      16942.269      11127.587      7229.8217      3897.7649      2454.4673      2399.6875      8801.6997      0             -9758.0896      0              0             -314.52061      184804.09      56.960071      56.960071      56.960071      0.9774696      2662.7518      2486.3826      1323.1827    
    498900   997800         304.57225      1202.7782      14434.439      11189.027      7298.3832      3890.6435      2463.269       2438.3198      8755.1441      0             -9766.0895      0              0             -314.16101      185015.62      56.981796      56.981796      56.981796      0.97635204     1056.9804      1105.9589      1445.3954    
    499000   998000         299.07762      1913.06        16205.579      11030.084      7166.7169      3863.3671      2487.0953      2362.4055      8816.567       0             -9802.7007      0              0             -313.33815      185501.49      57.031633      57.031633      57.031633      0.97379473     1767.7915      1789.0456      2182.3428    
    499100   998200         298.3098       2074.5904      16683.987      11075.256      7148.3177      3926.9379      2479.9733      2446.9685      8737.4565      0             -9737.4605      0              0             -313.54817      185377.24      57.018896      57.018896      57.018896      0.97444744     1844.2799      2141.0806      2238.4107    
    499200   998400         305.10647      2588.9336      18246.083      11241.82       7311.1845      3930.6357      2484.6537      2398.7954      8818.0514      0             -9770.8648      0              0             -313.32501      185509.27      57.03243       57.03243       57.03243       0.97375391     2213.485       2110.1963      3443.1196    
    499300   998600         302.03481      1654.0081      15562.737      11090.45       7237.5792      3852.8705      2479.3629      2358.2997      8776.7825      0             -9761.5746      0              0             -313.50501      185402.76      57.021513      57.021513      57.021513      0.9743133      1476.2497      1900.098       1585.6766    
    499400   998800         299.24194      2497.1817      17801.159      11061.646      7170.6545      3890.9915      2497.7865      2374.2481      8783.8875      0             -9764.9306      0              0             -314.09295      185055.71      56.985911      56.985911      56.985911      0.97614051     2111.7895      2620.7943      2758.9613    
    499500   999000         299.70282      2442.9818      17688.563      11109.772      7181.6985      3928.0738      2444.4148      2442.0831      8782.9715      0             -9741.3957      0              0             -314.78261      184650.27      56.944264      56.944264      56.944264      0.97828385     2273.6091      2756.245       2299.0914    
    499600   999200         299.45734      1719.7038      15653.519      10998.153      7175.816       3822.3373      2473.0856      2340.001       8791.8624      0             -9782.6117      0              0             -313.1385       185619.76      57.04375       57.04375       57.04375       0.97317427     1709.5223      1894.958       1554.6313    
    499700   999400         299.84635      2172.9024      16975.639      11100.345      7185.1376      3915.2071      2472.6566      2416.3427      8748.1625      0             -9721.9548      0              0             -313.50695      185401.61      57.021395      57.021395      57.021395      0.97431934     1746.7493      2387.0803      2384.8775    
    499800   999600         299.62494      1575.8715      15470.656      11201.027      7179.8322      4021.1951      2511.9305      2424.2488      8835.4708      0             -9750.4549      0              0             -312.87242      185777.62      57.059917      57.059917      57.059917      0.97234734     1016.9633      1414.0524      2296.5986    
    499900   999800         299.27872      1850.8235      16091.111      11085.057      7171.5357      3913.521       2467.7114      2384.8156      8818.9678      0             -9757.9738      0              0             -313.40505      185461.89      57.027574      57.027574      57.027574      0.97400266     1932.3064      2178.3053      1441.8587    
    500000   1000000        297.42653      1964.6111      16310.371      11021.084      7127.1522      3893.932       2479.8695      2395.9053      8785.7138      0             -9767.5564      0              0             -314.85897      184605.49      56.93966       56.93966       56.93966       0.97852117     2244.0263      1279.3229      2370.484     
Loop time of 2517.48 on 8 procs for 500000 steps with 8040 atoms

Performance: 34.320 ns/day, 0.699 hours/ns, 198.612 timesteps/s, 1.597 Matom-step/s
98.4% CPU use with 8 MPI tasks x 1 OpenMP threads

MPI task timing breakdown:
Section |  min time  |  avg time  |  max time  |%varavg| %total
---------------------------------------------------------------
Pair    | 1864.1     | 1941.2     | 2045.6     | 131.6 | 77.11
Bond    | 76.147     | 76.661     | 78.145     |   6.9 |  3.05
Neigh   | 132.79     | 132.81     | 132.82     |   0.1 |  5.28
Comm    | 221.97     | 327.73     | 404.66     | 321.9 | 13.02
Output  | 1.7427     | 1.8672     | 2.1023     |   7.5 |  0.07
Modify  | 24.214     | 24.475     | 24.811     |   3.6 |  0.97
Other   |            | 12.74      |            |       |  0.51

Nlocal:           1005 ave        1014 max         992 min
Histogram: 1 0 2 0 1 0 0 0 1 3
Nghost:        8625.12 ave        8662 max        8608 min
Histogram: 3 1 2 0 0 0 0 1 0 1
Neighs:         371889 ave      382190 max      359185 min
Histogram: 1 1 0 0 1 2 0 0 1 2

Total # of neighbors = 2975110
Ave neighs/atom = 370.03856
Ave special neighs/atom = 5.9701493
Neighbor list builds = 13357
Dangerous builds = 0

# --- Cleanup ---
unfix npt_fix

undump dump_npt

# --- Write Output ---
write_dump all custom /home/arz2/PolyJarvis/data/cis-PBD4/lammps/mechanical/bm_series/bm_P2000/bm_P2000_last.dump id type mol x y z xu yu zu vx vy vz modify sort id
write_data /home/arz2/PolyJarvis/data/cis-PBD4/lammps/mechanical/bm_series/bm_P2000/bm_P2000_out.data
System init for write_data ...
Generated 3 of 3 mixed pair_coeff terms from arithmetic mixing rule

print "STAGE COMPLETE: NPT T=300.0->300.0K P=2000.0->2000.0atm steps=500000"
STAGE COMPLETE: NPT T=300.0->300.0K P=2000.0->2000.0atm steps=500000
quit
