units real
atom_style full
boundary p p p

# --- Force Field Styles ---
pair_style lj/class2/coul/long 9.5 9.5
kspace_style pppm 1e-6
dielectric 1.000000
bond_style class2
angle_style class2
dihedral_style class2
improper_style class2
special_bonds lj/coul 0 0 1
pair_modify mix sixthpower tail yes
neighbor 2.0 bin
neigh_modify delay 0 every 1 check yes
neigh_modify one 4000
# KOKKOS: package loaded via -pk kokkos on the command line

read_data /home/arz2/PolyJarvis/data/PMMA3/lammps/equil/npt_cool300/npt_cool300_out.data
Reading data file ...
  orthogonal box = (4.7965204 4.7965204 4.7965204) to (46.954478 46.954478 46.954478)
  1 by 1 by 1 MPI processor grid
  reading atoms ...
  7520 atoms
  reading velocities ...
  7520 velocities
  scanning bonds ...
  4 = max bonds/atom
  scanning angles ...
  17 = max angles/atom
  scanning dihedrals ...
  40 = max dihedrals/atom
  scanning impropers ...
  14 = max impropers/atom
  orthogonal box = (4.7965204 4.7965204 4.7965204) to (46.954478 46.954478 46.954478)
  1 by 1 by 1 MPI processor grid
  reading bonds ...
  7510 bonds
  reading angles ...
  14000 angles
  reading dihedrals ...
  18910 dihedrals
  reading impropers ...
  8500 impropers
Finding 1-2 1-3 1-4 neighbors ...
  special bond factors lj:    0        0        1       
  special bond factors coul:  0        0        1       
     4 = max # of 1-2 neighbors
    11 = max # of 1-3 neighbors
    15 = max # of special neighbors
  special bonds CPU = 0.006 seconds
  read_data CPU = 0.461 seconds
include /home/arz2/PolyJarvis/data/PMMA3/lammps/equil/emc_build.params
# LAMMPS parameters created by EMC v9.4.4, build Jul 31 2025 20:33:44

# Variables

variable	seed		index	555781
variable	ntotal		index	7520
variable	fshape		index	1
variable	output		index	emc_build
variable	field		index	pcff/pcff
variable	location1	index	/home/arz2/emc/field/
variable	nav		index	0.6022141179
variable	temperature	index	300
variable	radius		index	5
variable	nrelax		index	100
variable	weight_nonbond	index	0.0001
variable	weight_bond	index	0.0001
variable	weight_focus	index	1
variable	cutoff		index	9.5
variable	charge_cutoff	index	9.5
variable	kappa		index	4
variable	density1	index	0.6
variable	lprevious	index	0
variable	lphase		index	51.7509981335
variable	f_poly		index	10
variable	chem_repeat	index	*CC(C)(C(=O)OC)*
variable	chem_cap	index	*[H]
variable	lg_repeat	index	15
variable	lg_cap		index	1
variable	norm_poly	index	100
variable	l_poly		index	752
variable	mg_repeat	index	88.10716
variable	mg_cap		index	1.00797
variable	m_poly		index	4407.37394
variable	n_poly		index	10
variable	mtotal		index	50079.3144
variable	nphase1		index	7520
variable	mphase1		index	50079.3144
variable	vphase1		index	138597.753721
variable	lbox		index	51.7509981335
variable	lphase1		index	51.7509981335
variable	lxx		index	51.7509981335
variable	lyy		index	51.7509981335
variable	lzz		index	51.7509981335
variable	lzy		index	0
variable	lzx		index	0
variable	lyx		index	0
variable	vtotal		index	138597.753721
variable	nl_poly		index	10

# Types

variable	type_c		index	1
variable	type_c1		index	2
variable	type_c_1	index	3
variable	type_hc		index	4
variable	type_o_1	index	5
variable	type_o_2	index	6

variable	type_bond_c_c	index	1
variable	type_bond_c_c1	index	2
variable	type_bond_c_c_1	index	3
variable	type_bond_c_hc	index	4
variable	type_bond_c_o_2	index	5
variable	type_bond_c1_c_1 index	6
variable	type_bond_c1_hc	index	7
variable	type_bond_c_1_o_1 index	8
variable	type_bond_c_1_o_2 index	9

variable	type_angle_c_c_c index	1
variable	type_angle_c_c_c1 index	2
variable	type_angle_c_c_c_1 index	3
variable	type_angle_c_c_hc index	4
variable	type_angle_c_c1_c index	5
variable	type_angle_c_c1_c_1 index	6
variable	type_angle_c_c1_hc index	7
variable	type_angle_c_c_1_o_1 index	8
variable	type_angle_c_c_1_o_2 index	9
variable	type_angle_c_o_2_c_1 index	10
variable	type_angle_c1_c_hc index	11
variable	type_angle_c1_c_1_o_1 index	12
variable	type_angle_c1_c_1_o_2 index	13
variable	type_angle_c_1_c1_hc index	14
variable	type_angle_hc_c_hc index	15
variable	type_angle_hc_c_o_2 index	16
variable	type_angle_o_1_c_1_o_2 index	17

# Clusters

variable	n0_poly		index	1
variable	n1_poly		index	10
variable	nl_poly		index	10

# Flags

variable	flag_charged	index	1

# Masses

mass		1    12.01115  # c
mass		2    12.01115  # c1
mass		3    12.01115  # c_1
mass		4     1.00797  # hc
mass		5    15.99940  # o_1
mass		6    15.99940  # o_2

# Potentials

pair_modify	mix sixthpower tail yes
special_bonds	lj/coul 0 0 1

# Pair Coeffs

pair_coeff	 1  1    0.05400    4.01000  # c,c
pair_coeff	 2  2    0.05400    4.01000  # c1,c1
pair_coeff	 3  3    0.12000    3.81000  # c_1,c_1
pair_coeff	 4  4    0.02000    2.99500  # hc,hc
pair_coeff	 5  5    0.26700    3.30000  # o_1,o_1
pair_coeff	 6  6    0.24000    3.42000  # o_2,o_2

# Bond Coeffs

bond_coeff	1    1.53000  299.67000 -501.77000  679.81000  # c,c
bond_coeff	2    1.53000  299.67000 -501.77000  679.81000  # c,c1
bond_coeff	3    1.52020  253.70670 -423.03700  396.90000  # c,c_1
bond_coeff	4    1.10100  345.00000 -691.89000  844.60000  # c,hc
bond_coeff	5    1.43000  326.72730 -608.53060  689.03330  # c,o_2
bond_coeff	6    1.52020  253.70670 -423.03700  396.90000  # c1,c_1
bond_coeff	7    1.10100  345.00000 -691.89000  844.60000  # c1,hc
bond_coeff	8    1.20200  851.14030 -1918.48820 2160.76590  # c_1,o_1
bond_coeff	9    1.36830  367.14810 -794.79080 1055.23190  # c_1,o_2

# Angle Coeffs

angle_coeff	 1  112.67000   39.51600   -7.44300   -9.55830  # c,c,c
angle_coeff	 2  112.67000   39.51600   -7.44300   -9.55830  # c,c,c1
angle_coeff	 3  108.52950   51.97470   -9.48510  -10.99850  # c,c,c_1
angle_coeff	 4  110.77000   41.45300  -10.60400    5.12900  # c,c,hc
angle_coeff	 5  112.67000   39.51600   -7.44300   -9.55830  # c,c1,c
angle_coeff	 6  108.52950   51.97470   -9.48510  -10.99850  # c,c1,c_1
angle_coeff	 7  110.77000   41.45300  -10.60400    5.12900  # c,c1,hc
angle_coeff	 8  123.14510   55.54310  -17.21230    0.13480  # c,c_1,o_1
angle_coeff	 9  100.31820   38.86310   -3.83230   -7.98020  # c,c_1,o_2
angle_coeff	10  113.28800   61.28680  -28.97860    7.99290  # c,o_2,c_1
angle_coeff	11  110.77000   41.45300  -10.60400    5.12900  # c1,c,hc
angle_coeff	12  123.14510   55.54310  -17.21230    0.13480  # c1,c_1,o_1
angle_coeff	13  100.31820   38.86310   -3.83230   -7.98020  # c1,c_1,o_2
angle_coeff	14  107.73360   40.60990  -28.81210    0.00000  # c_1,c1,hc
angle_coeff	15  107.66000   39.64100  -12.92100   -2.43180  # hc,c,hc
angle_coeff	16  107.68800   65.48010  -10.34980    5.88660  # hc,c,o_2
angle_coeff	17  120.79700   95.34460  -32.28690    6.37780  # o_1,c_1,o_2

# BondBond Coeffs

angle_coeff	 1 bb    0.00000    1.53000    1.53000  # c,c,c
angle_coeff	 2 bb    0.00000    1.53000    1.53000  # c,c,c1
angle_coeff	 3 bb    5.41990    1.53000    1.52020  # c,c,c_1
angle_coeff	 4 bb    3.38720    1.53000    1.10100  # c,c,hc
angle_coeff	 5 bb    0.00000    1.53000    1.53000  # c,c1,c
angle_coeff	 6 bb    5.41990    1.53000    1.52020  # c,c1,c_1
angle_coeff	 7 bb    3.38720    1.53000    1.10100  # c,c1,hc
angle_coeff	 8 bb   46.06850    1.52020    1.20200  # c,c_1,o_1
angle_coeff	 9 bb   19.10690    1.52020    1.36830  # c,c_1,o_2
angle_coeff	10 bb   45.45030    1.43000    1.36830  # c,o_2,c_1
angle_coeff	11 bb    3.38720    1.53000    1.10100  # c1,c,hc
angle_coeff	12 bb   46.06850    1.52020    1.20200  # c1,c_1,o_1
angle_coeff	13 bb   19.10690    1.52020    1.36830  # c1,c_1,o_2
angle_coeff	14 bb    0.71150    1.52020    1.10100  # c_1,c1,hc
angle_coeff	15 bb    5.33160    1.10100    1.10100  # hc,c,hc
angle_coeff	16 bb    5.64540    1.10100    1.43000  # hc,c,o_2
angle_coeff	17 bb  121.48800    1.20200    1.36830  # o_1,c_1,o_2

# BondAngle Coeffs

angle_coeff	 1 ba    8.01600    8.01600    1.53000    1.53000  # c,c,c
angle_coeff	 2 ba    8.01600    8.01600    1.53000    1.53000  # c,c,c1
angle_coeff	 3 ba   18.16780   15.87580    1.53000    1.52020  # c,c,c_1
angle_coeff	 4 ba   20.75400   11.42100    1.53000    1.10100  # c,c,hc
angle_coeff	 5 ba    8.01600    8.01600    1.53000    1.53000  # c,c1,c
angle_coeff	 6 ba   18.16780   15.87580    1.53000    1.52020  # c,c1,c_1
angle_coeff	 7 ba   20.75400   11.42100    1.53000    1.10100  # c,c1,hc
angle_coeff	 8 ba   34.99820   37.12980    1.52020    1.20200  # c,c_1,o_1
angle_coeff	 9 ba    1.34350    4.69780    1.52020    1.36830  # c,c_1,o_2
angle_coeff	10 ba   41.91160   46.46080    1.43000    1.36830  # c,o_2,c_1
angle_coeff	11 ba   20.75400   11.42100    1.53000    1.10100  # c1,c,hc
angle_coeff	12 ba   34.99820   37.12980    1.52020    1.20200  # c1,c_1,o_1
angle_coeff	13 ba    1.34350    4.69780    1.52020    1.36830  # c1,c_1,o_2
angle_coeff	14 ba   12.46320    9.17650    1.52020    1.10100  # c_1,c1,hc
angle_coeff	15 ba   18.10300   18.10300    1.10100    1.10100  # hc,c,hc
angle_coeff	16 ba    8.68640   57.49750    1.10100    1.43000  # hc,c,o_2
angle_coeff	17 ba   76.26140   71.87610    1.20200    1.36830  # o_1,c_1,o_2

# Dihedral Coeffs

dihedral_coeff	 1    0.00000    0.00000    0.05140    0.00000   -0.14300    0.00000  # c,c,c,c
dihedral_coeff	 2    0.00000    0.00000    0.05140    0.00000   -0.14300    0.00000  # c,c,c,c1
dihedral_coeff	 3    0.09720    0.00000    0.07220    0.00000   -0.25810    0.00000  # c,c,c,c_1
dihedral_coeff	 4    0.00000    0.00000    0.03160    0.00000   -0.16810    0.00000  # c,c,c,hc
dihedral_coeff	 5    0.00000    0.00000    0.05140    0.00000   -0.14300    0.00000  # c,c,c1,c
dihedral_coeff	 6    0.09720    0.00000    0.07220    0.00000   -0.25810    0.00000  # c,c,c1,c_1
dihedral_coeff	 7    0.00000    0.00000    0.03160    0.00000   -0.16810    0.00000  # c,c,c1,hc
dihedral_coeff	 8    0.04420    0.00000    0.02920    0.00000    0.05620    0.00000  # c,c,c_1,o_1
dihedral_coeff	 9    1.83410    0.00000    2.06030    0.00000   -0.01950    0.00000  # c,c,c_1,o_2
dihedral_coeff	10    0.00000    0.00000    0.03160    0.00000   -0.16810    0.00000  # c,c1,c,hc
dihedral_coeff	11    0.04420    0.00000    0.02920    0.00000    0.05620    0.00000  # c,c1,c_1,o_1
dihedral_coeff	12    1.83410    0.00000    2.06030    0.00000   -0.01950    0.00000  # c,c1,c_1,o_2
dihedral_coeff	13   -2.55940    0.00000    2.20130    0.00000    0.03250    0.00000  # c,c_1,o_2,c
dihedral_coeff	14   -2.55940    0.00000    2.20130    0.00000    0.03250    0.00000  # c,o_2,c_1,c1
dihedral_coeff	15    0.00000    0.00000    2.20890    0.00000    0.00000    0.00000  # c,o_2,c_1,o_1
dihedral_coeff	16    0.09720    0.00000    0.07220    0.00000   -0.25810    0.00000  # c1,c,c,c_1
dihedral_coeff	17   -0.02280    0.00000    0.02800    0.00000   -0.18630    0.00000  # c_1,c,c,hc
dihedral_coeff	18   -0.02280    0.00000    0.02800    0.00000   -0.18630    0.00000  # c_1,c1,c,hc
dihedral_coeff	19    0.00000    0.00000    0.00000    0.00000   -0.19320    0.00000  # c_1,o_2,c,hc
dihedral_coeff	20   -0.14320    0.00000    0.06170    0.00000   -0.10830    0.00000  # hc,c,c1,hc
dihedral_coeff	21   -0.18040    0.00000    0.00120    0.00000    0.03710    0.00000  # hc,c1,c_1,o_1
dihedral_coeff	22   -0.63590    0.00000    1.48070    0.00000   -0.04380    0.00000  # hc,c1,c_1,o_2

# MiddleBondTorsion Coeffs

dihedral_coeff	 1 mbt  -17.78700   -7.18770    0.00000    1.53000  # c,c,c,c
dihedral_coeff	 2 mbt  -17.78700   -7.18770    0.00000    1.53000  # c,c,c,c1
dihedral_coeff	 3 mbt   -1.59450    0.22670   -0.69110    1.53000  # c,c,c,c_1
dihedral_coeff	 4 mbt  -14.87900   -3.65810   -0.31380    1.53000  # c,c,c,hc
dihedral_coeff	 5 mbt  -17.78700   -7.18770    0.00000    1.53000  # c,c,c1,c
dihedral_coeff	 6 mbt   -1.59450    0.22670   -0.69110    1.53000  # c,c,c1,c_1
dihedral_coeff	 7 mbt  -14.87900   -3.65810   -0.31380    1.53000  # c,c,c1,hc
dihedral_coeff	 8 mbt    0.33880   -0.10960    0.12190    1.52020  # c,c,c_1,o_1
dihedral_coeff	 9 mbt  -17.32800   -5.79000   -3.21140    1.52020  # c,c,c_1,o_2
dihedral_coeff	10 mbt  -14.87900   -3.65810   -0.31380    1.53000  # c,c1,c,hc
dihedral_coeff	11 mbt    0.33880   -0.10960    0.12190    1.52020  # c,c1,c_1,o_1
dihedral_coeff	12 mbt  -17.32800   -5.79000   -3.21140    1.52020  # c,c1,c_1,o_2
dihedral_coeff	13 mbt    1.34450    3.55150   -4.92020    1.36830  # c,c_1,o_2,c
dihedral_coeff	14 mbt    1.34450    3.55150   -4.92020    1.36830  # c,o_2,c_1,c1
dihedral_coeff	15 mbt    4.26000    0.00000    0.00000    1.36830  # c,o_2,c_1,o_1
dihedral_coeff	16 mbt   -1.59450    0.22670   -0.69110    1.53000  # c1,c,c,c_1
dihedral_coeff	17 mbt   -3.50390    1.24580   -0.76100    1.53000  # c_1,c,c,hc
dihedral_coeff	18 mbt   -3.50390    1.24580   -0.76100    1.53000  # c_1,c1,c,hc
dihedral_coeff	19 mbt    0.00000    0.00000    0.00000    1.43000  # c_1,o_2,c,hc
dihedral_coeff	20 mbt  -14.26100   -0.53220   -0.48640    1.53000  # hc,c,c1,hc
dihedral_coeff	21 mbt    0.23590    0.91390    0.95940    1.52020  # hc,c1,c_1,o_1
dihedral_coeff	22 mbt  -13.76860   -2.59590    1.19340    1.52020  # hc,c1,c_1,o_2

# EndBondTorsion Coeffs

dihedral_coeff	 1 ebt   -0.07320    0.00000    0.00000   -0.07320    0.00000    0.00000    1.53000    1.53000  # c,c,c,c
dihedral_coeff	 2 ebt   -0.07320    0.00000    0.00000   -0.07320    0.00000    0.00000    1.53000    1.53000  # c,c,c,c1
dihedral_coeff	 3 ebt    0.00620   -0.00020    0.00360    0.00550    0.00600   -0.00090    1.53000    1.52020  # c,c,c,c_1
dihedral_coeff	 4 ebt    0.24860    0.24220   -0.09250    0.08140    0.05910    0.22190    1.53000    1.10100  # c,c,c,hc
dihedral_coeff	 5 ebt   -0.07320    0.00000    0.00000   -0.07320    0.00000    0.00000    1.53000    1.53000  # c,c,c1,c
dihedral_coeff	 6 ebt    0.00620   -0.00020    0.00360    0.00550    0.00600   -0.00090    1.53000    1.52020  # c,c,c1,c_1
dihedral_coeff	 7 ebt    0.24860    0.24220   -0.09250    0.08140    0.05910    0.22190    1.53000    1.10100  # c,c,c1,hc
dihedral_coeff	 8 ebt    0.26540    0.05030    0.10460   -0.28100    0.08160   -0.15220    1.53000    1.20200  # c,c,c_1,o_1
dihedral_coeff	 9 ebt    0.00000    0.00000    0.00000    0.00000    0.00000    0.00000    1.53000    1.36830  # c,c,c_1,o_2
dihedral_coeff	10 ebt    0.24860    0.24220   -0.09250    0.08140    0.05910    0.22190    1.53000    1.10100  # c,c1,c,hc
dihedral_coeff	11 ebt    0.26540    0.05030    0.10460   -0.28100    0.08160   -0.15220    1.53000    1.20200  # c,c1,c_1,o_1
dihedral_coeff	12 ebt    0.00000    0.00000    0.00000    0.00000    0.00000    0.00000    1.53000    1.36830  # c,c1,c_1,o_2
dihedral_coeff	13 ebt    0.00000    0.00000    0.00000    0.00000    0.00000    0.00000    1.52020    1.43000  # c,c_1,o_2,c
dihedral_coeff	14 ebt    0.00000    0.00000    0.00000    0.00000    0.00000    0.00000    1.43000    1.52020  # c,o_2,c_1,c1
dihedral_coeff	15 ebt    0.00000    0.00000    0.00000    0.00000    0.00000    0.00000    1.43000    1.20200  # c,o_2,c_1,o_1
dihedral_coeff	16 ebt    0.00620   -0.00020    0.00360    0.00550    0.00600   -0.00090    1.53000    1.52020  # c1,c,c,c_1
dihedral_coeff	17 ebt   -0.02040    0.36280   -0.44260   -0.00970   -0.03150   -0.07550    1.52020    1.10100  # c_1,c,c,hc
dihedral_coeff	18 ebt   -0.02040    0.36280   -0.44260   -0.00970   -0.03150   -0.07550    1.52020    1.10100  # c_1,c1,c,hc
dihedral_coeff	19 ebt    0.00000    0.00000    0.00000    0.00000    0.00000    0.00000    1.36830    1.10100  # c_1,o_2,c,hc
dihedral_coeff	20 ebt    0.21300    0.31200    0.07770    0.21300    0.31200    0.07770    1.10100    1.10100  # hc,c,c1,hc
dihedral_coeff	21 ebt    1.21430    0.28310    0.39160   -0.22980    0.03540    0.38530    1.10100    1.20200  # hc,c1,c_1,o_1
dihedral_coeff	22 ebt    0.00000    0.00000    0.00000    0.00000    0.00000    0.00000    1.10100    1.36830  # hc,c1,c_1,o_2

# AngleTorsion Coeffs

dihedral_coeff	 1 at    0.38860   -0.31390    0.13890    0.38860   -0.31390    0.13890  112.67000  112.67000  # c,c,c,c
dihedral_coeff	 2 at    0.38860   -0.31390    0.13890    0.38860   -0.31390    0.13890  112.67000  112.67000  # c,c,c,c1
dihedral_coeff	 3 at   -0.26070    0.32030   -0.22830    0.05150   -0.06740   -0.04740  112.67000  108.52950  # c,c,c,c_1
dihedral_coeff	 4 at   -0.24540    0.00000   -0.11360    0.31130    0.45160   -0.19880  112.67000  110.77000  # c,c,c,hc
dihedral_coeff	 5 at    0.38860   -0.31390    0.13890    0.38860   -0.31390    0.13890  112.67000  112.67000  # c,c,c1,c
dihedral_coeff	 6 at   -0.26070    0.32030   -0.22830    0.05150   -0.06740   -0.04740  112.67000  108.52950  # c,c,c1,c_1
dihedral_coeff	 7 at   -0.24540    0.00000   -0.11360    0.31130    0.45160   -0.19880  112.67000  110.77000  # c,c,c1,hc
dihedral_coeff	 8 at    0.08850   -1.37030   -0.54520    0.67500    0.59650    0.67250  108.52950  123.14510  # c,c,c_1,o_1
dihedral_coeff	 9 at    0.00000    0.00000    0.00000    0.00000    0.00000    0.00000  108.52950  100.31820  # c,c,c_1,o_2
dihedral_coeff	10 at   -0.24540    0.00000   -0.11360    0.31130    0.45160   -0.19880  112.67000  110.77000  # c,c1,c,hc
dihedral_coeff	11 at    0.08850   -1.37030   -0.54520    0.67500    0.59650    0.67250  108.52950  123.14510  # c,c1,c_1,o_1
dihedral_coeff	12 at    0.00000    0.00000    0.00000    0.00000    0.00000    0.00000  108.52950  100.31820  # c,c1,c_1,o_2
dihedral_coeff	13 at    0.00000    0.00000    0.00000    0.00000    0.00000    0.00000  100.31820  113.28800  # c,c_1,o_2,c
dihedral_coeff	14 at    0.00000    0.00000    0.00000    0.00000    0.00000    0.00000  113.28800  100.31820  # c,o_2,c_1,c1
dihedral_coeff	15 at    0.00000    0.00000    0.00000    0.00000    0.00000    0.00000  113.28800  120.79700  # c,o_2,c_1,o_1
dihedral_coeff	16 at   -0.26070    0.32030   -0.22830    0.05150   -0.06740   -0.04740  112.67000  108.52950  # c1,c,c,c_1
dihedral_coeff	17 at   -0.74660   -0.94480   -0.63210    0.01620    1.42110   -1.40920  108.52950  110.77000  # c_1,c,c,hc
dihedral_coeff	18 at   -0.74660   -0.94480   -0.63210    0.01620    1.42110   -1.40920  108.52950  110.77000  # c_1,c1,c,hc
dihedral_coeff	19 at    0.00000    0.00000    0.00000    0.00000    0.00000    0.00000  113.28800  107.68800  # c_1,o_2,c,hc
dihedral_coeff	20 at   -0.80850    0.55690   -0.24660   -0.80850    0.55690   -0.24660  110.77000  110.77000  # hc,c,c1,hc
dihedral_coeff	21 at    9.12990   -0.48470    0.35820   -1.49460    0.73080   -0.20830  107.73360  123.14510  # hc,c1,c_1,o_1
dihedral_coeff	22 at    0.00000    0.00000    0.00000    0.00000    0.00000    0.00000  107.73360  100.31820  # hc,c1,c_1,o_2

# AngleAngleTorsion Coeffs

dihedral_coeff	 1 aat  -22.04500  112.67000  112.67000  # c,c,c,c
dihedral_coeff	 2 aat  -22.04500  112.67000  112.67000  # c,c,c,c1
dihedral_coeff	 3 aat   -0.38010  112.67000  108.52950  # c,c,c,c_1
dihedral_coeff	 4 aat  -16.16400  112.67000  110.77000  # c,c,c,hc
dihedral_coeff	 5 aat  -22.04500  112.67000  112.67000  # c,c,c1,c
dihedral_coeff	 6 aat   -0.38010  112.67000  108.52950  # c,c,c1,c_1
dihedral_coeff	 7 aat  -16.16400  112.67000  110.77000  # c,c,c1,hc
dihedral_coeff	 8 aat   -8.01900  108.52950  123.14510  # c,c,c_1,o_1
dihedral_coeff	 9 aat    0.00000  108.52950  100.31820  # c,c,c_1,o_2
dihedral_coeff	10 aat  -16.16400  112.67000  110.77000  # c,c1,c,hc
dihedral_coeff	11 aat   -8.01900  108.52950  123.14510  # c,c1,c_1,o_1
dihedral_coeff	12 aat    0.00000  108.52950  100.31820  # c,c1,c_1,o_2
dihedral_coeff	13 aat    0.00000  100.31820  113.28800  # c,c_1,o_2,c
dihedral_coeff	14 aat    0.00000  113.28800  100.31820  # c,o_2,c_1,c1
dihedral_coeff	15 aat    0.00000  113.28800  120.79700  # c,o_2,c_1,o_1
dihedral_coeff	16 aat   -0.38010  112.67000  108.52950  # c1,c,c,c_1
dihedral_coeff	17 aat   -5.36240  108.52950  110.77000  # c_1,c,c,hc
dihedral_coeff	18 aat   -5.36240  108.52950  110.77000  # c_1,c1,c,hc
dihedral_coeff	19 aat    0.00000  113.28800  107.68800  # c_1,o_2,c,hc
dihedral_coeff	20 aat  -12.56400  110.77000  110.77000  # hc,c,c1,hc
dihedral_coeff	21 aat  -15.34960  107.73360  123.14510  # hc,c1,c_1,o_1
dihedral_coeff	22 aat    0.00000  107.73360  100.31820  # hc,c1,c_1,o_2

# BondBond13 Coeffs

dihedral_coeff	 1 bb13    0.00000    1.53000    1.53000  # c,c,c,c
dihedral_coeff	 2 bb13    0.00000    1.53000    1.53000  # c,c,c,c1
dihedral_coeff	 3 bb13    0.00000    1.53000    1.52020  # c,c,c,c_1
dihedral_coeff	 4 bb13    0.00000    1.53000    1.10100  # c,c,c,hc
dihedral_coeff	 5 bb13    0.00000    1.53000    1.53000  # c,c,c1,c
dihedral_coeff	 6 bb13    0.00000    1.53000    1.52020  # c,c,c1,c_1
dihedral_coeff	 7 bb13    0.00000    1.53000    1.10100  # c,c,c1,hc
dihedral_coeff	 8 bb13    0.00000    1.53000    1.20200  # c,c,c_1,o_1
dihedral_coeff	 9 bb13    0.00000    1.53000    1.36830  # c,c,c_1,o_2
dihedral_coeff	10 bb13    0.00000    1.53000    1.10100  # c,c1,c,hc
dihedral_coeff	11 bb13    0.00000    1.53000    1.20200  # c,c1,c_1,o_1
dihedral_coeff	12 bb13    0.00000    1.53000    1.36830  # c,c1,c_1,o_2
dihedral_coeff	13 bb13    0.00000    1.52020    1.43000  # c,c_1,o_2,c
dihedral_coeff	14 bb13    0.00000    1.43000    1.52020  # c,o_2,c_1,c1
dihedral_coeff	15 bb13    0.00000    1.43000    1.20200  # c,o_2,c_1,o_1
dihedral_coeff	16 bb13    0.00000    1.53000    1.52020  # c1,c,c,c_1
dihedral_coeff	17 bb13    0.00000    1.52020    1.10100  # c_1,c,c,hc
dihedral_coeff	18 bb13    0.00000    1.52020    1.10100  # c_1,c1,c,hc
dihedral_coeff	19 bb13    0.00000    1.36830    1.10100  # c_1,o_2,c,hc
dihedral_coeff	20 bb13    0.00000    1.10100    1.10100  # hc,c,c1,hc
dihedral_coeff	21 bb13    0.00000    1.10100    1.20200  # hc,c1,c_1,o_1
dihedral_coeff	22 bb13    0.00000    1.10100    1.36830  # hc,c1,c_1,o_2

# Improper Coeffs

improper_coeff	 1    0.00000    0.00000  # c,c,c,c
improper_coeff	 2    0.00000    0.00000  # c,c,c,c_1
improper_coeff	 3    0.00000    0.00000  # c,c,c,hc
improper_coeff	 4    0.00000    0.00000  # c,c,c1,hc
improper_coeff	 5    0.00000    0.00000  # c,c,hc,hc
improper_coeff	 6    0.00000    0.00000  # c,c1,hc,hc
improper_coeff	 7    0.00000    0.00000  # c,hc,hc,hc
improper_coeff	 8    0.00000    0.00000  # c,hc,hc,o_2
improper_coeff	 9    0.00000    0.00000  # c1,c,c,c_1
improper_coeff	10    0.00000    0.00000  # c1,c,c,hc
improper_coeff	11    0.00000    0.00000  # c1,c,c_1,hc
improper_coeff	12    0.00000    0.00000  # c1,c,hc,c_1
improper_coeff	13   46.92640    0.00000  # c_1,c,o_2,o_1
improper_coeff	14   46.92640    0.00000  # c_1,c1,o_2,o_1

# AngleAngle Coeffs

improper_coeff	 1 aa   -0.17290   -0.17290   -0.17290  112.67000  112.67000  112.67000  # c,c,c,c
improper_coeff	 2 aa    0.00000    0.00000    0.00000  112.67000  108.52950  108.52950  # c,c,c,c_1
improper_coeff	 3 aa   -1.31990   -1.31990    0.11840  112.67000  110.77000  110.77000  # c,c,c,hc
improper_coeff	 4 aa   -1.31990   -1.31990    0.11840  112.67000  110.77000  110.77000  # c,c,c1,hc
improper_coeff	 5 aa    0.27380   -0.48250    0.27380  110.77000  110.77000  107.66000  # c,c,hc,hc
improper_coeff	 6 aa    0.27380   -0.48250    0.27380  110.77000  110.77000  107.66000  # c,c1,hc,hc
improper_coeff	 7 aa   -0.31570   -0.31570   -0.31570  107.66000  107.66000  107.66000  # c,hc,hc,hc
improper_coeff	 8 aa    0.00000    0.00000    0.00000  107.66000  107.68800  107.68800  # c,hc,hc,o_2
improper_coeff	 9 aa    0.00000    0.00000    0.00000  112.67000  108.52950  108.52950  # c1,c,c,c_1
improper_coeff	10 aa   -1.31990   -1.31990    0.11840  112.67000  110.77000  110.77000  # c1,c,c,hc
improper_coeff	11 aa    2.04030   -1.82020    1.08270  108.52950  110.77000  107.73360  # c1,c,c_1,hc
improper_coeff	12 aa    1.08270   -1.82020    2.04030  110.77000  108.52950  107.73360  # c1,c,hc,c_1
improper_coeff	13 aa    0.00000    0.00000    0.00000  100.31820  123.14510  120.79700  # c_1,c,o_2,o_1
improper_coeff	14 aa    0.00000    0.00000    0.00000  100.31820  123.14510  120.79700  # c_1,c1,o_2,o_1


# --- Thermo Output ---
thermo_style custom step time temp press enthalpy etotal ke pe ebond eangle edihed eimp evdwl ecoul elong etail vol lx ly lz density pxx pyy pzz
thermo_modify flush yes
thermo 1000

# --- Trajectory ---
dump dump_npt all custom 1000 npt_prod300.dump id type mol x y z ix iy iz vx vy vz

# --- Restart Checkpointing ---
# No restart checkpointing

# --- Initial Velocities (optional) ---
# Velocities read from data file

# --- SHAKE Constraints ---
# SHAKE disabled

# --- NPT Thermostat + Barostat (Nose-Hoover) ---
# T_damp = 100.0 fs  (heat bath coupling)
# P_damp = 1000.0 fs  (pressure bath coupling, ~10x T_damp typical)
# Ramp: T=300.0->300.0K  P=1.0->1.0atm
timestep 1.0
fix npt_fix all npt temp 300.0 300.0 100.0 iso 1.0 1.0 1000.0

run 2000000
PPPM Kokkos initialization ...
  using 12-bit tables for long-range coulomb
  G vector (1/distance) = 0.33270878
  grid = 45 45 45
  stencil order = 5
  estimated absolute RMS force accuracy = 0.0002925924
  estimated relative force accuracy = 8.8113332e-07
  using double precision cuFFT
  3d grid and FFT values/proc = 140608 91125
Generated 15 of 15 mixed pair_coeff terms from sixthpower/sixthpower mixing rule
Neighbor list info ...
  update: every = 1 steps, delay = 0 steps, check = yes
  max neighbors/atom: 4000, page size: 100000
  master list distance cutoff = 11.5
  ghost atom cutoff = 11.5
  binsize = 11.5, bins = 4 4 4
  1 neighbor lists, perpetual/occasional/extra = 1 0 0
  (1) pair lj/class2/coul/long/kk, perpetual
      attributes: full, newton off, kokkos_device
      pair build: full/bin/kk/device
      stencil: full/bin/3d
      bin: kk/device
Per MPI rank memory allocation (min/avg/max) = 62.52 | 62.52 | 62.52 Mbytes
   Step          Time           Temp          Press         Enthalpy        TotEng         KinEng         PotEng         E_bond        E_angle        E_dihed        E_impro         E_vdwl         E_coul         E_long         E_tail         Volume           Lx             Ly             Lz          Density          Pxx            Pyy            Pzz      
         0   0              302.69799     -573.05448      26727.936      27354.132      6784.2824      20569.85       3780.5238      6504.4643     -1878.5112      192.93589     -300.57716      43022.038     -30751.024     -523.83251      74927.058      42.157957      42.157957      42.157957      1.1098614     -1597.7061      367.56423     -489.02157    
      1000   1000           301.18822     -750.6336       26483.735      27301.36       6750.4446      20550.915      3836.3934      6547.7665     -1946.3589      198.06143     -340.46037      43005.233     -30749.72      -525.50991      74687.895      42.113054      42.113054      42.113054      1.1134154     -316.48666     -1148.0931     -787.32104    
      2000   2000           300.69948     -572.17159      26632.789      27252.681      6739.4904      20513.191      3736.1857      6596.5578     -1934.8031      187.17089     -329.81557      43015.361     -30757.466     -528.34474      74287.158      42.0376        42.0376        42.0376        1.1194216     -774.79681      368.20026     -1309.9182    
      3000   3000           299.47329     -322.67215      26784.229      27133.566      6712.0082      20421.558      3745.9752      6539.9041     -1927.0427      193.29885     -380.48179      42998.728     -30748.824     -528.71783      74234.737      42.02771       42.02771       42.02771       1.1202121     -611.20039      634.73755     -991.5536     
      4000   4000           300.4282      -49.874097      27173.557      27227.821      6733.4102      20494.411      3720.5004      6562.8562     -1950.5162      199.96476     -313.46598      43031.373     -30756.301     -526.09959      74604.181      42.097314      42.097314      42.097314      1.1146647      461.2162      -1384.9406      774.10215    
      5000   5000           296.13967      452.01338      27574.386      27084.723      6637.2928      20447.43       3709.5853      6543.7329     -1945.3671      185.48713     -282.8403       42989.981     -30753.148     -528.3978       74279.699      42.036193      42.036193      42.036193      1.119534       373.83257      1267.4738     -285.26618    
      6000   6000           299.2908       49.778039      27307.794      27253.779      6707.9181      20545.861      3767.3597      6584.0965     -1883.6158      214.11582     -390.06231      43011.014     -30757.047     -527.50706      74405.127      42.05984       42.05984       42.05984       1.1176468      880.30078     -40.030716     -690.93594    
      7000   7000           301.86689     -794.88614      26375.518      27238.267      6765.6552      20472.611      3742.6393      6465.104      -1892.0466      204.51174     -310.08538      43019.81      -30757.321     -527.3851       74422.332      42.063082      42.063082      42.063082      1.1173884      22.03625      -1711.8522     -694.84251    
      8000   8000           297.17631     -237.10533      26906.782      27163.972      6660.5267      20503.445      3755.7014      6558.9283     -1958.7758      191.50636     -307.80569      43008.999     -30745.108     -527.70912      74376.637      42.054471      42.054471      42.054471      1.1180749      44.647411     -209.87689     -546.0865     
      9000   9000           295.46077     -581.63848      26584.086      27215.401      6622.0768      20593.324      3874.7286      6574.9878     -1934.6681      194.15959     -392.10383      43027.652     -30751.432     -527.36875      74424.64       42.063517      42.063517      42.063517      1.1173538     -444.14587     -797.87928     -502.89028    
     10000   10000          298.94776      1322.625       28594.663      27155.78       6700.2296      20455.55       3690.796       6565.85       -1963.397       211.45113     -310.48285      43014.747     -30753.414     -526.16036      74595.564      42.095693      42.095693      42.095693      1.1147935     -43.580739      3084.71        926.74574    
     11000   11000          302.52803     -1453.9457      25597.609      27183.128      6780.4731      20402.655      3733.3956      6577.1499     -1964.964       191.40024     -436.94193      43052.939     -30750.324     -524.9087       74773.441      42.129127      42.129127      42.129127      1.1121416     -2201.0103     -1212.1762     -948.65063    
     12000   12000          301.06411     -209.52097      27053.145      27280.23       6747.6628      20532.567      3822.4774      6516.0603     -1918.618       213.27896     -357.50722      43015.06      -30758.185     -528.13692      74316.39       42.043113      42.043113      42.043113      1.1189813      944.73683     -904.00249     -669.29727    
     13000   13000          300.12279      1046.7322      28253.409      27121.461      6726.5653      20394.896      3715.5867      6553.0301     -1975.6995      205.66102     -362.96131      43013.082     -30753.804     -529.31759      74150.623      42.01183       42.01183       42.01183       1.1214828      975.43581      1954.0473      210.71364    
     14000   14000          299.99907      878.22161      28281.256      27332.339      6723.7923      20608.546      3834.7611      6570.2688     -1945.7515      201.81764     -325.71732      43021.683     -30748.516     -529.76422      74088.109      42.000021      42.000021      42.000021      1.1224291      938.12117      325.11737      1371.4263    
     15000   15000          295.91497     -1306.0028      25608.65       27027.977      6632.2567      20395.721      3740.4018      6513.4589     -1941.4126      203.99551     -373.97852      43005.622     -30752.366     -526.70623      74518.255      42.081146      42.081146      42.081146      1.1159501     -518.44807     -1884.6747     -1514.8857    
     16000   16000          303.70906     -35.77406       27218.576      27257.476      6806.9432      20450.533      3792.5194      6479.8556     -1958.6879      206.47855     -331.5723       43013.405     -30751.465     -526.41761      74559.112      42.088835      42.088835      42.088835      1.1153385     -1006.3137      670.77264      228.21886    
     17000   17000          300.19097      804.73812      28150.268      27278.159      6728.0935      20550.065      3800.9977      6558.0546     -1967.8088      218.47523     -335.95774      43025.592     -30749.288     -528.19075      74308.817      42.041685      42.041685      42.041685      1.1190953      1086.0698     -117.81613      1445.9607    
     18000   18000          302.26852      697.25529      27929.561      27166.183      6774.6569      20391.526      3635.1861      6531.8184     -1953.9676      205.87432     -306.86479      43030.816     -30751.336     -522.82872      75070.912      42.18492       42.18492       42.18492       1.1077346     -1325.3879      2740.9258      676.22796    
     19000   19000          298.45153     -128.06544      27114.658      27253.456      6689.1078      20564.348      3817.7708      6549.3203     -1924.365       202.46428     -320.15057      42992.039     -30752.73      -528.14964      74314.6        42.042776      42.042776      42.042776      1.1190082     -1308.4692     -476.07182      1400.3447    
     20000   20000          295.45768     -351.7082       26767.107      27148.022      6622.0074      20526.014      3793.9966      6590.1625     -1965.236       201.31967     -353.01824      43016.025     -30757.235     -528.52082      74262.409      42.032931      42.032931      42.032931      1.1197947     -1616.758       501.43018      60.203212    
     21000   21000          301.39512     -886.84966      26252.359      27213.639      6755.0817      20458.558      3799.1827      6580.782      -1936.2342      211.82671     -438.35634      43001.018     -30759.661     -528.08901      74323.132      42.044385      42.044385      42.044385      1.1188798     -1235.5545      153.34717     -1578.3417    
     22000   22000          300.81205      903.58994      28191.368      27212.724      6742.0134      20470.71       3663.1363      6568.2729     -1953.2068      213.86959     -276.96956      43010.054     -30754.446     -528.51038      74263.876      42.033208      42.033208      42.033208      1.1197726     -71.612418      80.243597      2702.1387    
     23000   23000          296.34221     -0.73680253     27256.274      27257.075      6641.8322      20615.243      3751.0557      6648.8965     -1964.1594      204.17877     -278.5664       43006.322     -30752.484     -526.12244      74600.941      42.096705      42.096705      42.096705      1.1147132     -750.71277      81.68165       666.82071    
     24000   24000          295.57552      169.21551      27380.154      27195.238      6624.6487      20570.59       3798.7193      6552.9436     -1928.4904      193.99767     -292.14744      43000.781     -30755.214     -523.809        74930.422      42.158588      42.158588      42.158588      1.1098116     -666.5463       289.23746      884.95537    
     25000   25000          300.99211     -188.60546      27058.768      27263.726      6746.0492      20517.677      3776.319       6442.9229     -1924.1528      199.95842     -262.31382      43033.029     -30748.085     -526.73968      74513.523      42.080255      42.080255      42.080255      1.1160209     -662.17538     -547.16561      643.52461    
     26000   26000          299.45312     -814.64222      26376.916      27262.515      6711.5562      20550.959      3793.8499      6588.2901     -1925.8963      214.32323     -377.28756      43011.806     -30754.126     -526.54647      74540.865      42.085402      42.085402      42.085402      1.1156116     -1062.4389      603.51852     -1985.0063    
     27000   27000          301.33417     -989.80006      26172.817      27250.841      6753.7155      20497.126      3777.4208      6530.3648     -1889.2648      199.10252     -386.95977      43021.354     -30754.892     -525.56417      74680.185      42.111605      42.111605      42.111605      1.1135303     -1326.4776     -579.10356     -1063.819     
     28000   28000          299.67362      299.03938      27488          27163.583      6716.4981      20447.084      3711.2252      6519.1525     -1920.0674      205.9114      -324.86018      43005.602     -30749.879     -527.63158      74387.567      42.056531      42.056531      42.056531      1.1179106     -520.61219     -117.06704      1534.7974    
     29000   29000          302.78226      66.288627      27403.858      27331.791      6786.1713      20545.619      3762.8277      6582.2746     -1936.7158      205.12906     -330.59646      43012.975     -30750.274     -526.507        74546.453      42.086453      42.086453      42.086453      1.1155279     -1081.1798      391.47529      888.57042    
     30000   30000          300.63364     -381.88851      26783.799      27197.968      6738.0149      20459.953      3796.0427      6467.7314     -1939.7062      200.11369     -359.33278      43036.904     -30741.799     -527.79629      74364.352      42.052156      42.052156      42.052156      1.1182596      113.7729      -196.7821      -1062.6563    
     31000   31000          302.22923     -368.91109      26966.866      27367.913      6773.7763      20594.137      3834.8619      6624.3797     -1942.8413      199.90301     -390.69174      43019.088     -30750.563     -526.54305      74541.35       42.085493      42.085493      42.085493      1.1156043     -1481.7477      1395.7851     -1020.7706    
     32000   32000          297.37606     -545.84609      26658.063      27248.214      6665.0037      20583.21       3778.4588      6587.8729     -1879.0898      203.34494     -337.70547      42989.853     -30759.525     -529.43685      74133.921      42.008676      42.008676      42.008676      1.1217355     -180.38433      1263.9653     -2721.1192    
     33000   33000          303.39117      1491.3182      28901.477      27288.54       6799.8186      20488.721      3743.5765      6514.9024     -1909.7169      205.90026     -304.2021       43002.545     -30764.284     -529.24886      74160.252      42.013649      42.013649      42.013649      1.1213372      515.91712      381.04831      3576.9891    
     34000   34000          299.97034      285.08767      27562.216      27253.349      6723.1485      20530.201      3776.286       6517.8584     -1944.5343      211.23952     -307.64068      43033.526     -30756.534     -528.34146      74287.62       42.037687      42.037687      42.037687      1.1194147     -17.430918      1390.1432     -517.44932    
     35000   35000          294.94351      147.92381      27307.564      27146.883      6610.4835      20536.4        3760.7432      6630.148      -1957.7012      228.14776     -387.52959      43023.279     -30760.688     -526.96486      74481.683      42.074261      42.074261      42.074261      1.116498       1237.2386     -306.7395      -486.72765    
     36000   36000          298.71705      637.9739       27860.673      27169.721      6695.0588      20474.662      3762.7384      6461.447      -1902.2173      203.31123     -308.21028      43022.128     -30764.535     -528.52064      74262.434      42.032936      42.032936      42.032936      1.1197943      716.49135     -1064.259       2261.6894    
     37000   37000          298.22832     -644.43512      26437.051      27136.1        6684.105       20451.994      3752.8632      6575.9054     -1956.6485      197.13224     -372.89024      43006.632     -30750.999     -527.68977      74379.364      42.054985      42.054985      42.054985      1.1180339     -1665.8107      654.17144     -921.66613    
     38000   38000          297.49525     -1703.5676      25429.661      27286.307      6667.675       20618.632      3869.0211      6563.0849     -1924.2119      205.30745     -349.22272      43005.055     -30750.402     -525.21532      74729.788      42.120927      42.120927      42.120927      1.1127912     -728.92109     -1127.535      -3254.2466    
     39000   39000          304.76809      710.28675      28035.775      27264.895      6830.6791      20434.216      3669.1689      6584.2884     -1955.9023      193.9451      -300.42337      43002.127     -30758.988     -527.41671      74417.872      42.062242      42.062242      42.062242      1.1174554     -1042.5228      1792.2155      1381.1676    
     40000   40000          299.96878     -724.34353      26507.476      27297.127      6723.1135      20574.014      3850.8523      6561.4396     -1886.3504      199.0476      -387.24344      42997.327     -30761.059     -525.06905      74750.605      42.124837      42.124837      42.124837      1.1124813     -1121.7825      170.36184     -1221.6099    
     41000   41000          300.46903     -953.80885      26285.16       27318.992      6734.3254      20584.666      3875.8166      6575.2034     -1957.5013      205.58329     -368.30128      43010.819     -30756.953     -528.10289      74321.178      42.044016      42.044016      42.044016      1.1189092     -2323.2899     -1208.2951      670.1584     
     42000   42000          293.35829     -170.45341      26988.194      27173.335      6574.9545      20598.381      3769.5525      6661.6572     -1961.8063      203.91849     -322.50176      43007.28      -30759.72      -526.99972      74476.755      42.073333      42.073333      42.073333      1.1165719     -383.99199     -632.12292      504.75468    
     43000   43000          300.95811     -450.76232      26851.012      27339.74       6745.287       20594.453      3855.3957      6637.2663     -1948.4129      202.66322     -403.47882      43007.556     -30756.536     -527.9428       74343.715      42.048266      42.048266      42.048266      1.11857       -1173.265      -310.78474      131.76282    
     44000   44000          299.64278     -981.15399      26079.486      27149.806      6715.8069      20433.999      3744.0953      6471.9109     -1938.0309      199.48997     -319.90066      43032.785     -30756.351     -524.72388      74799.776      42.134072      42.134072      42.134072      1.11175       -1727.0389     -460.27466     -756.14837    
     45000   45000          301.45023     -352.41755      26914.29       27298.069      6756.3168      20541.753      3716.7388      6612.5448     -1909.8907      203.66394     -322.85956      42999.757     -30758.202     -525.63339      74670.35       42.109756      42.109756      42.109756      1.113677      -395.23849      267.13625     -929.15042    
     46000   46000          298.41583     -786.37214      26246.37       27102.307      6688.3076      20413.999      3703.8902      6597.4232     -1966.1696      196.88593     -385.41332      43028.378     -30760.995     -525.88829      74634.157      42.102952      42.102952      42.102952      1.1142171     -2004.9638      1095.2977     -1449.4503    
     47000   47000          298.37212      598.58486      27848.889      27197.413      6687.328       20510.085      3719.1268      6547.2708     -1876.5235      193.75667     -310.48541      42989.845     -30752.906     -525.93738      74627.191      42.101642      42.101642      42.101642      1.1143211     -661.05349      2210.4008      246.40728    
     48000   48000          303.62675      509.24147      27797.281      27247.851      6805.0984      20442.752      3804.576       6515.5924     -1926.2299      192.37892     -382.41995      42993.339     -30754.484     -530.54004      73979.769      41.979538      41.979538      41.979538      1.1240729      707.44895      494.21713      326.05834    
     49000   49000          295.45601     -531.16229      26486.559      27062.44       6621.97        20440.47       3756.5212      6627.6749     -1916.259       194.11915     -473.87704      43003.493     -30751.202     -527.96072      74341.193      42.04779       42.04779       42.04779       1.118608      -766.16632     -491.44707     -335.87347    
     50000   50000          295.63234     -512.62017      26651.417      27210.397      6625.922       20584.475      3754.0856      6582.6601     -1936.5502      199.98605     -273.15443      43011.257     -30753.809     -524.93608      74769.54       42.128394      42.128394      42.128394      1.1121996      606.90458     -1291.0029     -853.76222    
     51000   51000          303.94487      240.67616      27589.722      27329.273      6812.2284      20517.044      3740.5562      6556.3932     -1885.6749      197.51802     -341.63245      43011.023     -30761.139     -528.95174      74201.91       42.021514      42.021514      42.021514      1.1207077     -647.32415     -498.7762       1868.1288    
     52000   52000          298.219        638.9483       27884.214      27192.907      6683.8962      20509.011      3657.2951      6622.1156     -1908.0485      205.84806     -324.01171      43016.64      -30760.828     -529.05623      74187.255      42.018747      42.018747      42.018747      1.1209291      1490.8151      296.2254       129.80443    
     53000   53000          296.96737     -69.897354      27059.17       27135.099      6655.8439      20479.255      3826.1191      6467.1093     -1901.6732      222.09646     -391.08743      43015.722     -30759.031     -526.93887      74485.356      42.074952      42.074952      42.074952      1.116443      -1239.0911      889.59912      139.79997    
     54000   54000          298.85165     -215.92706      26934.688      27168.663      6698.0756      20470.587      3761.5795      6597.6866     -1931.0579      194.98568     -401.60991      43006.231     -30757.227     -528.25598      74299.64       42.039954      42.039954      42.039954      1.1192336      485.44931     -585.39003     -547.84047    
     55000   55000          306.08272     -842.88639      26363.445      27277.374      6860.1434      20417.23       3728.7104      6507.5368     -1896.0437      199.72195     -348.46175      42987.818     -30762.051     -527.91483      74347.655      42.049008      42.049008      42.049008      1.1185107     -3589.86        60.49213       1000.7087    
     56000   56000          300.38515     -569.92248      26602.98       27218.057      6732.4455      20485.612      3744.4624      6526.8822     -1939.3048      212.16879     -315.9869       43008.595     -30751.205     -530.38711      74001.099      41.983572      41.983572      41.983572      1.1237489     -464.23966     -414.01155     -831.51624    
     57000   57000          292.33637      36.062519      27115.362      27076.203      6552.0506      20524.152      3826.2063      6504.5464     -1979.1203      190.12147     -293.70839      43024.036     -30747.929     -527.14439      74456.316      42.069484      42.069484      42.069484      1.1168784      284.21736     -1037.6128      861.58304    
     58000   58000          299.55373     -1199.918       25901.219      27207.15       6713.8112      20493.339      3760.0603      6548.0815     -1903.1079      205.30483     -341.47096      42983.321     -30758.85      -525.94277      74626.426      42.101498      42.101498      42.101498      1.1143325     -1988.9455     -1881.9409      271.13255    
     59000   59000          299.14753      953.34547      28202.924      27173.171      6704.7072      20468.463      3692.3451      6550.3748     -1899.0701      204.62781     -340.9258       43020.109     -30758.997     -529.93662      74064.006      41.995466      41.995466      41.995466      1.1227944      1130.2089      544.31603      1185.5115    
     60000   60000          302.56354     -17.49198       27371.94       27390.862      6781.2692      20609.592      3806.5318      6625.513      -1938.6539      193.5513      -355.81028      43034.549     -30756.089     -529.15866      74172.894      42.016036      42.016036      42.016036      1.1211461      1335.6653     -900.19489     -487.94638    
     61000   61000          301.02028     -581.19422      26613.322      27245.692      6746.6805      20499.012      3636.5035      6721.3084     -1940.7553      200.8383      -383.40961      43020.744     -30756.217     -526.08602      74606.105      42.097676      42.097676      42.097676      1.114636      -1609.9022     -55.328796     -78.35171     
     62000   62000          298.4156      -909.89981      26174.704      27165.015      6688.3026      20476.713      3770.282       6488.3796     -1891.6926      194.74615     -333.1396       43001.118     -30752.981     -525.93103      74628.092      42.101811      42.101811      42.101811      1.1143076     -1816.4557      162.32375     -1075.5675    
     63000   63000          297.98844     -292.9784       26902.83       27222.301      6678.7287      20543.573      3734.3959      6610.6614     -1919.8204      212.26513     -353.2521       43014.843     -30755.52      -524.9414       74768.783      42.128252      42.128252      42.128252      1.1122108     -1152.408      -435.94277      709.41553    
     64000   64000          300.38527      557.9247       27806.574      27199.812      6732.4483      20467.363      3763.1353      6551.2977     -1945.3642      179.53903     -355.98638      43026.458     -30751.716     -526.33673      74570.569      42.090991      42.090991      42.090991      1.1151672     -54.160974      236.05389      1491.8812    
     65000   65000          298.34937      33.272159      27340.228      27304.284      6686.8181      20617.466      3757.8297      6604.8223     -1932.246       209.69209     -263.14541      42996.951     -30756.438     -529.85951      74074.785      41.997503      41.997503      41.997503      1.122631       336.48468     -603.21217      366.54396    
     66000   66000          296.88183      1143.8564      28405.53       27164.706      6653.9267      20510.779      3748.1654      6567.0413     -1958.0639      190.99822     -306.79656      43016.396     -30746.961     -527.67722      74381.133      42.055319      42.055319      42.055319      1.1180073      1257.0739      1004.1732      1170.3221    
     67000   67000          302.92943     -149.57279      27151.791      27313.909      6789.4697      20524.44       3769.9913      6581.9628     -1944.8332      200.96713     -349.61935      43014.698     -30748.727     -528.11352      74319.682      42.043734      42.043734      42.043734      1.1189317     -599.09344     -31.348592      181.72367    
     68000   68000          303.23969     -138.0522       27210.136      27359.806      6796.4234      20563.382      3702.7607      6500.7551     -1865.306       206.85354     -270.63643      43045.417     -30756.462     -527.97941      74338.561      42.047294      42.047294      42.047294      1.1186476      376.07833     -55.44001      -734.79493    
     69000   69000          299.07432      62.396782      27103.492      27035.468      6703.0663      20332.402      3644.0812      6527.3882     -1915.6096      194.05589     -374.28947      43009.167     -30752.391     -525.06134      74751.703      42.125044      42.125044      42.125044      1.112465       79.08819      -356.14383      464.24599    
     70000   70000          299.23746     -776.43508      26413.887      27258.867      6706.7226      20552.144      3839.8995      6604.0592     -1920.3163      222.56299     -451.46916      43007.924     -30750.516     -525.97588      74621.728      42.100614      42.100614      42.100614      1.1144026     -1549.519       453.07709     -1232.8633    
     71000   71000          304.54697      138.83597      27513.286      27361.832      6825.7232      20536.109      3771.5851      6561.072      -1944.6704      202.23239     -286.04578      42995.303     -30763.368     -524.72231      74800          42.134114      42.134114      42.134114      1.1117467     -954.68206      1006.3055      364.88444    
     72000   72000          302.25748      540.94993      27920.516      27329.666      6774.4094      20555.256      3777.812       6596.1112     -1958.7226      204.50701     -322.73699      43018.316     -30760.03      -524.06675      74893.568      42.151675      42.151675      42.151675      1.1103577      277.69593      432.27939      912.87448    
     73000   73000          296.58815      525.28541      27684.081      27113.641      6647.3445      20466.297      3740.397       6563.7306     -1970.516       206.6537      -318.79277      43002.414     -30757.59      -527.09957      74462.647      42.070676      42.070676      42.070676      1.1167834      33.112817      710.62208      832.12133    
     74000   74000          299.04334     -118.53756      27126.686      27255.661      6702.3719      20553.289      3758.1542      6578.0781     -1908.9175      199.15027     -315.49823      42997.956     -30755.634     -526.08742      74605.908      42.097639      42.097639      42.097639      1.114639      -1005.4127      231.75696      418.04311    
     75000   75000          298.33732     -47.390613      27182.945      27234.416      6686.548       20547.868      3844.0066      6546.9641     -1911.9025      204.56708     -400.0367       43018.245     -30753.975     -527.03176      74472.228      42.07248       42.07248       42.07248       1.1166398      225.27709      923.37373     -1290.8227    
     76000   76000          298.85898     -708.87398      26347.68       27117.17       6698.24        20418.93       3775.8694      6510.0061     -1927.8371      198.39965     -386.80964      43006.705     -30757.404     -527.3185       74431.732      42.064853      42.064853      42.064853      1.1172473     -1485.2876     -298.74275     -342.59157    
     77000   77000          297.53         2123.9283      29530.215      27224.326      6668.4539      20555.872      3659.0208      6680.2729     -1954.6478      198.59385     -295.06517      43023.15      -30755.453     -527.23999      74442.815      42.066941      42.066941      42.066941      1.117081       2240.9971      2984.233       1146.5548    
     78000   78000          303.01051      247.67265      27684.567      27416.357      6791.2869      20625.07       3800.9604      6667.0664     -1952.9748      197.82725     -313.04723      42987.262     -30762.024     -528.58014      74254.074      42.031359      42.031359      42.031359      1.1199204     -184.16643     -118.51165      1045.696     
     79000   79000          296.81129     -0.75748453     27239.243      27240.07       6652.3457      20587.724      3769.693       6579.0497     -1925.3304      208.7282      -307.43763      43021.379     -30758.358     -524.74864      74796.247      42.133409      42.133409      42.133409      1.1118024     -715.79714      1148.8625     -435.33777    
     80000   80000          299.87943     -830.55246      26285.402      27190.341      6721.1109      20469.23       3718.8803      6623.2063     -1917.1978      195.66137     -408.76287      43015.752     -30758.309     -525.35709      74709.621      42.117137      42.117137      42.117137      1.1130916     -1428.3407     -233.54335     -829.77334    
     81000   81000          299.23342     -214.56542      26975.4        27207.986      6706.6322      20501.354      3767.3367      6501.9074     -1911.7233      207.86894     -309.79393      43002.16      -30756.402     -528.05978      74327.246      42.04516       42.04516       42.04516       1.1188179     -1211.627       578.40322     -10.472496    
     82000   82000          299.70804     -295.97193      26969.113      27290.557      6717.2697      20573.288      3764.1206      6612.0215     -1945.6173      201.89853     -308.84991      43007.55      -30757.835     -527.04888      74469.809      42.072025      42.072025      42.072025      1.116676      -2476.8503      1039.8237      549.11083    
     83000   83000          298.92661     -94.587654      27147.048      27249.84       6699.7557      20550.084      3755.3819      6575.7039     -1906.0304      214.69278     -348.78835      43015.774     -30756.65      -526.72464      74515.651      42.080656      42.080656      42.080656      1.1159891     -342.94743      926.65326     -867.46879    
     84000   84000          301.84413     -90.084995      27130.326      27227.79       6765.1452      20462.645      3712.5312      6563.0109     -1951.2521      205.23423     -342.2207       43030.006     -30754.664     -529.07165      74185.093      42.018339      42.018339      42.018339      1.1209617     -1807.7915      1091.3423      446.19426    
     85000   85000          301.16574     -250.65147      27021.567      27294.316      6749.9407      20544.375      3843.4469      6506.0298     -1924.593       194.64107     -333.5441       43017.073     -30758.679     -526.03439      74613.429      42.099054      42.099054      42.099054      1.1145266     -1071.8405      232.05268      87.833376    
     86000   86000          299.88424     -866.18938      26287.933      27229.009      6721.2187      20507.79       3741.7745      6580.6038     -1903.079       176.74023     -351.92072      43018.543     -30754.871     -526.85962      74496.56       42.077062      42.077062      42.077062      1.116275      -982.68703     -845.07146     -770.80963    
     87000   87000          295.2855       1408.4347      28658.572      27137.996      6618.1484      20519.848      3697.865       6628.1615     -1972.2414      208.65627     -294.05665      43011.691     -30760.228     -530.1951       74027.898      41.98864       41.98864       41.98864       1.123342       1850.1697      1753.3809      621.75365    
     88000   88000          298.48922      708.62076      27941.942      27172.71       6689.9525      20482.757      3786.7615      6500.0797     -1902.1161      192.42913     -340.43837      43000.746     -30754.704     -527.30677      74433.387      42.065165      42.065165      42.065165      1.1172224      1019.4685      940.38905      166.00472    
     89000   89000          298.25746      178.49751      27461.589      27267.745      6684.7581      20582.987      3760.94        6589.6561     -1921.5116      203.34228     -321.42925      43027.575     -30755.586     -527.09168      74463.762      42.070886      42.070886      42.070886      1.1167667     -576.48202      869.60649      242.36807    
     90000   90000          301.43227     -111.31429      27099.762      27220.28       6755.9144      20464.366      3818.7913      6495.6005     -1892.9818      195.55716     -382.40569      42987.374     -30757.57      -528.69709      74237.649      42.028259      42.028259      42.028259      1.1201682     -3046.2217      2343.7688      368.5101     
     91000   91000          300.60392     -212.7194       26977.695      27208.27       6737.3488      20470.921      3742.0877      6549.87       -1922.4622      200.50851     -327.24459      42988.845     -30760.684     -528.08226      74324.082      42.044564      42.044564      42.044564      1.1188655     -331.45872     -359.81929      53.119826    
     92000   92000          305.96374      1362.9625      28942.821      27459.239      6857.4768      20601.762      3759.9851      6623.1863     -1915.831       202.95076     -326.37759      43010.703     -30752.854     -525.87122      74636.58       42.103407      42.103407      42.103407      1.1141809      2824.4427      373.23976      891.20491    
     93000   93000          296.73453     -494.56662      26622.252      27162.018      6650.6252      20511.393      3753.8429      6529.9547     -1901.0593      204.13979     -343.18792      43024.944     -30757.242     -524.47708      74834.975      42.14068       42.14068       42.14068       1.1112271     -183.64312     -752.93104     -547.1257     
     94000   94000          300.47639      319.33722      27664.148      27314.764      6734.4904      20580.274      3743.868       6686.5129     -1930.0014      207.06382     -359.95811      42993.922     -30761.133     -523.18242      75020.161      42.175412      42.175412      42.175412      1.108484       200.7264      -451.60399      1208.8892    
     95000   95000          302.63786     -551.56406      26830.588      27429.952      6782.9349      20647.017      3818.2551      6684.7863     -1976.7303      204.12864     -320.35441      43003.944     -30767.012     -526.75939      74510.735      42.079731      42.079731      42.079731      1.1160627     -2019.8745      361.96653      3.2157574    
     96000   96000          297.03064     -873.53816      26229.473      27179.439      6657.2618      20522.177      3700.1473      6609.3223     -1894.7653      212.63351     -331.66697      42990.17      -30763.664     -526.35747      74567.63       42.090438      42.090438      42.090438      1.1152111     -1234.4716     -560.98393     -825.15896    
     97000   97000          300.00428      341.49727      27750.024      27377.976      6723.9092      20654.066      3826.5058      6649.669      -1943.6158      207.16148     -336.94616      43010.68      -30759.388     -525.40636      74702.615      42.115821      42.115821      42.115821      1.113196       1270.3678      435.65197     -681.52801    
     98000   98000          298.11718     -241.22685      26913.243      27177.306      6681.6142      20495.691      3731.5039      6552.8783     -1927.9965      185.37289     -299.85886      43010.743     -30756.951     -522.90918      75059.362      42.182757      42.182757      42.182757      1.1079051     -1221.8101      1329.2508     -831.12126    
     99000   99000          296.03443     -243.25954      26896.338      27161.852      6634.9341      20526.918      3731.8809      6561.0731     -1933.5541      212.10565     -323.37436      43036.545     -30757.759     -524.43225      74841.373      42.141881      42.141881      42.141881      1.1111321     -808.95417     -406.98511      486.16067    
    100000   100000         297.49828     -495.03668      26623.198      27159.905      6667.743       20492.162      3850.4207      6501.4145     -1950.1846      201.76175     -364.47938      43011.531     -30758.302     -527.96725      74340.272      42.047616      42.047616      42.047616      1.1186218      135.68149     -483.49792     -1137.2936    
    101000   101000         299.33307      505.23159      27801.688      27253.862      6708.8656      20544.996      3754.0956      6610.5582     -1928.3954      203.44587     -375.27032      43036.105     -30755.543     -527.90348      74349.253      42.04931       42.04931       42.04931       1.1184867     -258.56759      692.28709      1081.9753    
    102000   102000         295.04864      237.28975      27397.573      27139.381      6612.8399      20526.541      3712.8011      6654.5252     -1952.0403      206.12746     -333.34213      42995.572     -30757.103     -526.06975      74608.413      42.09811       42.09811       42.09811       1.1146015     -175.86721      2009.4449     -1121.7085    
    103000   103000         303.56043      496.96617      27812.079      27271.968      6803.6121      20468.356      3760.5537      6599.3372     -1993.6912      196.24574     -332.61648      42999.4       -30760.874     -526.68468      74521.304      42.08172       42.08172       42.08172       1.1159044      66.252257      820.68836      603.95789    
    104000   104000         295.59901     -50.665762      27035.834      27091.092      6625.175       20465.917      3800.1862      6501.1575     -1957.03        203.95971     -334.21615      43007.668     -30755.808     -524.83219      74784.341      42.131174      42.131174      42.131174      1.1119795     -347.32539     -749.17439      944.5025     
    105000   105000         300.41585     -554.98886      26579.984      27181.687      6733.1336      20448.553      3729.112       6521.1689     -1912.1908      197.48418     -339.84019      43013.324     -30760.505     -527.96975      74339.921      42.04755       42.04755       42.04755       1.1186271     -2326.4876      165.64935      495.87165    
    106000   106000         301.63321     -1278.7523      25960.731      27352.869      6760.4178      20592.451      3777.0617      6647.2474     -1917.2569      209.04957     -395.16448      43027.017     -30755.504     -525.78885      74648.272      42.105606      42.105606      42.105606      1.1140064     -1712.8266     -1298.9299     -824.50051    
    107000   107000         297.07273     -1256.6378      25862.282      27223.846      6658.2051      20565.641      3728.3005      6598.2872     -1887.1481      209.27757     -303.92621      42984.229     -30763.379     -528.29811      74293.715      42.038837      42.038837      42.038837      1.1193228     -2863.0283     -2085.023       1178.1379    
    108000   108000         297.36275     -359.56707      26654.342      27043.543      6664.7052      20378.838      3603.2685      6646.774      -1951.6631      201.15589     -363.00751      43004.646     -30762.336     -528.82604      74219.547      42.024843      42.024843      42.024843      1.1204414     -1271.5464     -394.48216      587.3274     
    109000   109000         297.47774     -285.84094      26968.293      27277.588      6667.2825      20610.306      3688.5063      6625.3741     -1920.3834      197.63143     -236.86899      43012.512     -30756.465     -529.00319      74194.693      42.020152      42.020152      42.020152      1.1208167      1848.3763      429.07085     -3134.97      
    110000   110000         295.39019     -447.37762      26553.772      27037.517      6620.495       20417.022      3734.2258      6565.3226     -1910.0853      196.63472     -428.33116      43015.587     -30756.332     -529.37651      74142.37       42.010271      42.010271      42.010271      1.1216077      1171.7808     -862.18693     -1651.7267    
    111000   111000         297.16677      893.52687      28157.721      27191.195      6660.3129      20530.882      3712.0598      6598.9251     -1942.4127      196.89689     -273.69122      43002.597     -30763.493     -529.177        74170.324      42.01555       42.01555       42.01555       1.121185       1326.8236      1446.8119     -93.054872    
    112000   112000         298.10987      1131.6555      28304.344      27076.494      6681.4502      20395.043      3641.7823      6520.1754     -1932.1627      206.80254     -310.01465      43019.881     -30751.421     -527.56476      74396.988      42.058307      42.058307      42.058307      1.117769      -247.14731      2840.2352      801.87865    
    113000   113000         301.04654      541.42353      27863.836      27280.147      6747.2691      20532.878      3648.4592      6688.4153     -1982.4207      199.07782     -279.27676      43017.228     -30758.605     -530.9614       73921.06       41.968431      41.968431      41.968431      1.1249656      582.4359       1832.1387     -790.30399    
    114000   114000         301.24991     -915.06127      26305.316      27303.45       6751.8271      20551.623      3779.8987      6682.75       -1951.0619      200.51345     -412.78958      43003.483     -30751.171     -524.76906      74793.337      42.132863      42.132863      42.132863      1.1118457     -1061.0887     -680.07969     -1004.0154    
    115000   115000         303.04448      612.56766      27940.061      27273.761      6792.0483      20481.712      3713.419       6496.2633     -1919.414       217.19052     -306.82106      43038.171     -30757.097     -526.24904      74582.994      42.093329      42.093329      42.093329      1.1149814      1241.3539      272.78696      323.5621     
    116000   116000         303.67904     -548.80977      26715.749      27312.197      6806.2706      20505.926      3792.4869      6519.8576     -1949.0611      203.037       -321.17567      43022.547     -30761.765     -526.69172      74520.308      42.081533      42.081533      42.081533      1.1159193     -880.99502      50.285803     -815.72009    
    117000   117000         303.1011       436.87968      27648.217      27172.793      6793.3172      20379.476      3715.7468      6489.3031     -1935.4406      210.35636     -353.67033      43007.957     -30754.776     -526.00261      74617.936      42.099901      42.099901      42.099901      1.1144593     -1190.9968      2024.6565      476.9793     
    118000   118000         306.44148      671.41344      28044.579      27318.173      6868.1842      20449.988      3737.4429      6522.1574     -1923.506       208.31642     -350.33391      43016.247     -30760.335     -529.07517      74184.599      42.018246      42.018246      42.018246      1.1209692      623.48253      1338.5702      52.187548    
    119000   119000         298.42406      1022.0086      28164.258      27056.192      6688.4922      20367.699      3618.6607      6586.0174     -1918.1184      190.19088     -364.31827      43020.563     -30765.296     -527.95377      74342.17       42.047974      42.047974      42.047974      1.1185933     -362.44055      3201.3127      227.15382    
    120000   120000         301.2283       960.30393      28351.787      27304.122      6751.3427      20552.78       3757.5587      6541.0616     -1916.7243      224.82721     -311.35229      43015.313     -30757.904     -524.67859      74806.234      42.135284      42.135284      42.135284      1.111654       1326.8531      1338.4699      215.58885    
    121000   121000         296.03732     -1387.3955      25557.903      27062.969      6634.9988      20427.97       3651.1064      6590.6414     -1945.222       202.53539     -308.67305      43001.355     -30763.773     -527.65719      74383.956      42.055851      42.055851      42.055851      1.1179649     -2137.1197     -1307.2337     -717.83314    
    122000   122000         297.43114      175.92846      27343.92       27152.585      6666.2382      20486.346      3689.0021      6539.9787     -1920.2134      196.31855     -256.76782      42998.309     -30760.281     -526.31766      74573.27       42.091499      42.091499      42.091499      1.1151268     -31.673668      1050.172      -490.71294    
    123000   123000         306.7721       841.0116       28313.452      27398.968      6875.5944      20523.374      3752.3642      6564.3911     -1920.4445      207.58352     -327.95388      43013.983     -30766.55      -526.4206       74558.688      42.088756      42.088756      42.088756      1.1153449      1112.1523      1668.0398     -257.15725    
    124000   124000         298.06334      355.40829      27584.419      27197.972      6680.4075      20517.565      3689.0968      6657.7256     -1985.7628      191.80277     -309.00596      43029.328     -30755.62      -526.43515      74556.627      42.088368      42.088368      42.088368      1.1153757      473.07734     -420.05146      1013.199     
    125000   125000         297.1542       1563.213       28828.449      27123.314      6660.0311      20463.283      3684.3139      6569.001      -1937.37        210.1622      -334.05137      43031.321     -30760.094     -524.76676      74793.665      42.132924      42.132924      42.132924      1.1118408      650.55079      1814.1372      2224.951     
    126000   126000         300.05104     -664.27106      26555.419      27281.766      6724.9571      20556.809      3714.9792      6555.648      -1902.5613      197.27223     -290.22363      43035.118     -30753.423     -523.48959      74976.141      42.167161      42.167161      42.167161      1.1091348     -621.73285     -1269.4089     -101.67138    
    127000   127000         300.75459     -184.85333      26999.426      27200.946      6740.7257      20460.22       3721.1964      6510.0669     -1896.1453      208.09325     -341.87215      43022.097     -30763.216     -525.06932      74750.566      42.12483       42.12483       42.12483       1.1124819     -1157.7105      349.0067       254.14379    
    128000   128000         299.05867      155.87081      27350.707      27181.78       6702.7155      20479.064      3700.2473      6547.774      -1939.9253      218.61598     -329.48012      43036.965     -30755.132     -528.16729      74312.117      42.042307      42.042307      42.042307      1.1190456     -559.04329      1323.1277     -296.47194    
    129000   129000         300.2592       444.45057      27737.933      27256.395      6729.6225      20526.773      3794.0373      6513.9588     -1923.5713      205.49204     -316.53528      43009.466     -30756.075     -528.32314      74290.195      42.038173      42.038173      42.038173      1.1193759      707.00178      857.31978     -230.96986    
    130000   130000         297.66141      122.97933      27247.796      27114.383      6671.3992      20442.984      3623.823       6559.8914     -1893.6638      202.19343     -291.21612      43006.898     -30764.942     -527.64435      74385.767      42.056192      42.056192      42.056192      1.1179377      751.28249     -853.29188      470.94738    
    131000   131000         303.2329       642.48296      27930.674      27230.623      6796.2714      20434.351      3664.5944      6634.2321     -1990.7825      187.18976     -338.22732      43035.12      -30757.775     -525.33781      74712.363      42.117652      42.117652      42.117652      1.1130507      208.88865     -226.4721       1945.0323    
    132000   132000         302.65707     -467.34888      26743.311      27253.796      6783.3653      20470.431      3777.1763      6566.6233     -1929.5186      198.4577      -383.96917      43006.794     -30765.132     -524.04074      74897.286      42.152373      42.152373      42.152373      1.1103026     -846.47304     -1362.3271      806.75344    
    133000   133000         300.14855     -7.9375365      27229.416      27238.105      6727.1427      20510.962      3681.0635      6621.9685     -1941.4625      205.90716     -295.53725      43003.307     -30764.285     -522.92248      75057.452      42.182399      42.182399      42.182399      1.1079333      706.80195     -1766.9582      1036.3436    
    134000   134000         297.90874     -17.209422      27100.183      27118.881      6676.9425      20441.939      3762.8686      6509.6668     -1907.9484      213.46231     -368.56392      42991.983     -30759.529     -526.83742      74499.7        42.077653      42.077653      42.077653      1.116228       66.467724      100.38462     -218.48061    
    135000   135000         301.52652     -18.948027      27226.582      27247.223      6758.0266      20489.197      3756.621       6516.2579     -1907.168       205.2661      -338.36009      43008.248     -30751.668     -525.45116      74696.247      42.114624      42.114624      42.114624      1.1132909     -914.92778     -182.24307      1040.3268    
    136000   136000         300.78982      672.55751      28107.828      27377.035      6741.5151      20635.52       3707.1251      6701.0593     -1947.4685      210.93711     -285.5587       43008.863     -30759.438     -526.79555      74505.62       42.078767      42.078767      42.078767      1.1161393     -67.11831      -24.992312      2109.7832    
    137000   137000         300.76818     -871.73756      26289.297      27240.321      6741.0303      20499.291      3817.5937      6554.6389     -1968.4489      210.46235     -368.69451      43007.712     -30753.973     -524.68821      74804.862      42.135027      42.135027      42.135027      1.1116744      167.15528     -1683.4856     -1098.8823    
    138000   138000         299.45509      394.85058      27622.327      27191.783      6711.6002      20480.183      3694.5113      6662.1689     -1964.8659      201.07488     -383.23397      43033.68      -30763.153     -524.95512      74766.828      42.127885      42.127885      42.127885      1.1122399     -565.30938      753.7205       996.14061    
    139000   139000         299.17756      1120.1083      28363.394      27148.625      6705.3801      20443.245      3677.8463      6609.4695     -1964.1664      189.68126     -318.48666      43007.088     -30758.187     -527.80489      74363.14       42.051928      42.051928      42.051928      1.1182778      1338.6171      2360.8619     -339.15395    
    140000   140000         302.84189     -214.0476       27117.626      27350.582      6787.5077      20563.074      3723.15        6644.2051     -1926.4758      209.83478     -350.03875      43025.213     -30762.814     -525.94981      74625.427      42.10131       42.10131       42.10131       1.1143474     -686.10398     -34.765445      78.726608    
    141000   141000         300.34859     -128.97859      27140.213      27280.213      6731.6261      20548.587      3739.9725      6583.3393     -1907.4632      218.78633     -349.72667      43018.827     -30755.148     -527.3477       74427.61       42.064076      42.064076      42.064076      1.1173092     -1602.7062      1270.5415     -54.771031    
    142000   142000         299.46038      27.8146        27196.59       27166.405      6711.719       20454.686      3607.7045      6574.0686     -1909.7462      212.39741     -288.46157      43017.359     -30758.636     -527.46508      74411.048      42.060956      42.060956      42.060956      1.1175579     -845.93622     -607.42724      1536.8073    
    143000   143000         300.35769      692.8716       27993.622      27242.354      6731.83        20510.524      3724.6145      6471.8985     -1908.8125      205.47374     -245.54013      43019.334     -30756.444     -527.91607      74347.479      42.048975      42.048975      42.048975      1.1185134      583.57026      2131.7327     -636.68815    
    144000   144000         299.0949       1235.0322      28529.446      27199.093      6703.5274      20495.565      3707.579       6603.5406     -1934.5895      200.74136     -329.49655      43008.348     -30760.557     -531.39605      73860.596      41.956985      41.956985      41.956985      1.1258865      1683.1273      1469.1587      552.81047    
    145000   145000         299.41912      57.342309      27377.144      27314.832      6710.794       20604.038      3825.1697      6563.3877     -1912.9812      200.72932     -304.13639      42997.696     -30765.827     -526.76223      74510.333      42.079655      42.079655      42.079655      1.1160687      248.62052      304.31528     -380.90887    
    146000   146000         299.56721     -271.47508      26846.349      27139.497      6714.1133      20425.384      3751.5432      6572.8939     -1938.867       197.41156     -397.16131      42995.106     -30755.542     -530.09002      74042.574      41.991414      41.991414      41.991414      1.1231194     -2883.9511      1818.2914      251.23442    
    147000   147000         306.21794     -659.52122      26646.031      27358.084      6863.1741      20494.91       3823.4382      6563.204      -1956.8418      214.6289      -399.42662      43008.192     -30758.285     -530.18071      74029.909      41.98902       41.98902       41.98902       1.1233115     -1829.889      -419.52746      270.85277    
    148000   148000         298.21064     -803.67284      26337.694      27208.401      6683.7089      20524.693      3727.1966      6622.5913     -1899.374       197.67949     -374.14381      43013.585     -30762.842     -528.34087      74287.703      42.037703      42.037703      42.037703      1.1194134     -1563.5152      272.933       -1120.4363    
    149000   149000         297.03807     -429.84061      26717.851      27183.953      6657.4283      20526.524      3797.4397      6542.7009     -1936.5965      203.2808      -335.54783      43017.081     -30761.834     -527.87829      74352.8        42.049978      42.049978      42.049978      1.1184333     -1365.4122     -109.26156      185.15192    
    150000   150000         297.33574      1243.0986      28418.951      27071.916      6664.1         20407.816      3680.4885      6611.3323     -1902.0714      193.92414     -404.85655      42990.882     -30761.883     -528.243        74301.466      42.040299      42.040299      42.040299      1.119206       370.59539      1570.7201      1787.9802    
[...]
   1955000   1955000        307.8448       350.04584      27852.645      27471.579      6899.6365      20571.943      3775.8118      6633.7711     -1930.9844      209.12274     -378.54157      43021.613     -30758.85      -525.81384      74644.724      42.104939      42.104939      42.104939      1.1140593      690.41804     -530.40189      890.12137    
   1956000   1956000        302.123        168.27024      27341.141      27158.522      6771.3953      20387.127      3682.0818      6583.8737     -1913.3933      199.01612     -395.51617      42998.992     -30767.928     -527.43451      74415.361      42.061769      42.061769      42.061769      1.1174931     -81.720129     -179.29735      765.82819    
   1957000   1957000        303.11188      270.52231      27648.055      27356.172      6793.559       20562.613      3794.8314      6616.6012     -1932.9675      211.89337     -366.14535      43004.716     -30766.316     -530.51964      73982.613      41.980076      41.980076      41.980076      1.1240297      1311.6318     -230.74776     -269.31713    
   1958000   1958000        300.29657      972.03514      28252.6        27201.819      6730.4602      20471.359      3705.1448      6559.0249     -1943.1543      205.61747     -298.83305      43010.627     -30767.068     -529.51309      74123.246      42.006659      42.006659      42.006659      1.121897       434.39063      1617.8864      863.82843    
   1959000   1959000        298.50119      506.10256      27764.404      27217.186      6690.2209      20526.965      3776.3872      6540.7767     -1921.386       205.10166     -314.4544       43005.905     -30765.365     -529.40164      74138.851      42.009607      42.009607      42.009607      1.1216609     -1564.9244      920.36672      2162.8653    
   1960000   1960000        302.24224     -421.68517      26941.269      27398.126      6774.068       20624.058      3823.595       6630.3676     -1925.9812      195.599       -335.01927      43001.811     -30766.314     -528.34183      74287.567      42.037677      42.037677      42.037677      1.1194155      973.50103     -731.26061     -1507.2959    
   1961000   1961000        296.75781      225.04252      27393.667      27149.731      6651.147       20498.584      3771.4042      6584.6922     -1927.1585      202.42728     -357.059        42992.964     -30768.687     -528.07475      74325.139      42.044763      42.044763      42.044763      1.1188496     -258.72585      512.43493      421.41846    
   1962000   1962000        299.78132     -42.025442      27074.204      27119.98       6718.9119      20401.068      3803.5874      6599.7133     -2012.6399      205.82283     -434.79432      43002.454     -30763.075     -525.50931      74687.981      42.11307       42.11307       42.11307       1.1134141      514.95041     -286.12945     -354.89728    
   1963000   1963000        299.53394      211.61788      27537.049      27305.781      6713.3675      20592.413      3838.8174      6600.7233     -1989.0968      195.93097     -293.95281      43005.446     -30765.454     -523.77439      74935.374      42.159517      42.159517      42.159517      1.1097383      580.76499     -505.8934       559.98205    
   1964000   1964000        300.2909      -1163.4491      25874.652      27134.936      6730.3332      20404.602      3848.437       6498.621      -1908.4179      188.85885     -440.89656      42982.764     -30764.764     -528.42845      74275.391      42.03538       42.03538       42.03538       1.119599      -724.28972     -1847.7652     -918.29242    
   1965000   1965000        301.33838      547.38883      27852.91       27258.698      6753.81        20504.888      3681.3631      6620.4672     -1934.4215      189.79491     -308.8462       43022.156     -30765.626     -527.30409      74433.766      42.065236      42.065236      42.065236      1.1172168     -273.28429      915.5595       999.89128    
   1966000   1966000        300.65562     -1173.6836      25936.968      27217.294      6738.5075      20478.786      3758.7528      6555.7484     -1927.5813      208.07786     -373.54952      43015.24      -30757.902     -524.73228      74798.579      42.133847      42.133847      42.133847      1.1117678     -2223.4196      322.06267     -1619.694     
   1967000   1967000        294.18247     -136.70417      26873.612      27021.784      6593.4266      20428.358      3704.1639      6611.8555     -1904.7781      190.67929     -401.0926       42993.671     -30766.141     -528.10688      74320.617      42.04391       42.04391       42.04391       1.1189177     -1764.7625      117.73002      1236.92      
   1968000   1968000        300.48939     -252.93465      26961.003      27236.381      6734.7818      20501.599      3797.0276      6583.7494     -1941.6501      204.45326     -366.56483      42986.865     -30762.281     -525.75738      74652.741      42.106446      42.106446      42.106446      1.1139397      394.25661      159.12941     -1312.19      
   1969000   1969000        299.43531      1517.9754      28871.578      27220.579      6711.1569      20509.422      3662.7152      6652.1168     -1917.7774      192.40562     -334.49262      43019.386     -30764.932     -526.28979      74577.219      42.092242      42.092242      42.092242      1.1150677      1520.0549      939.32205      2094.5492    
   1970000   1970000        298.37198     -674.07301      26411.517      27144.128      6687.3248      20456.803      3765.8614      6541.8432     -1917.622       202.03733     -363.22736      42994.954     -30767.043     -526.67256      74523.019      42.082043      42.082043      42.082043      1.1158787     -644.89368     -624.5171      -752.80825    
   1971000   1971000        299.56913     -1541.8746      25564.119      27231.987      6714.1563      20517.831      3771.2142      6553.4138     -1920.9914      204.00071     -327.1936       43001.148     -30763.761     -529.16876      74171.479      42.015769      42.015769      42.015769      1.1211675     -1802.0418     -414.21367     -2409.3682    
   1972000   1972000        292.27031     -250.95659      26703.384      26975.685      6550.57        20425.115      3705.4169      6588.7017     -1914.9157      184.57947     -401.73286      43026.505     -30763.439     -527.53994      74400.489      42.058966      42.058966      42.058966      1.1177165     -518.1872      -639.18219      404.49962    
   1973000   1973000        300.54944     -954.2924       26187.589      27225.503      6736.1276      20489.375      3703.9083      6581.8075     -1928.4923      196.46576     -304.3562       43002.409     -30762.367     -526.29224      74576.872      42.092177      42.092177      42.092177      1.1150729     -1701.4891     -45.52034      -1115.8678    
   1974000   1974000        300.34871     -228.60957      27082.784      27330.248      6731.6287      20598.619      3871.9744      6522.5572     -1933.8189      210.96771     -309.41156      43005.476     -30769.126     -528.79814      74223.463      42.025582      42.025582      42.025582      1.1203823      366.28375     -1850.8267      798.71422    
   1975000   1975000        300.22396      1582.9703      28953.412      27241.509      6728.8328      20512.677      3727.4511      6529.7516     -1908.8756      193.43812     -269.216        43005.409     -30765.281     -529.29869      74153.271      42.01233       42.01233       42.01233       1.1214428      3631.431       1834.005      -716.5251     
   1976000   1976000        301.4065       217.05495      27479.854      27244.073      6755.3367      20488.736      3742.1619      6496.7795     -1923.2882      215.17369     -293.95894      43015.846     -30763.978     -526.94834      74484.017      42.0747        42.0747        42.0747        1.116463      -1120.9949      1288.7538      483.40592    
   1977000   1977000        300.76642     -730.19941      26451.292      27246.777      6740.9908      20505.786      3736.4666      6548.745      -1871.2324      205.17382     -356.96296      43003.447     -30759.851     -525.432        74698.97       42.115136      42.115136      42.115136      1.1132503     -799.82639     -1554.9289      164.15706    
   1978000   1978000        299.83208     -306.42139      26900.01       27232.333      6720.0496      20512.283      3812.5227      6541.1542     -1897.3299      200.52691     -397.0898       43016.452     -30763.953     -527.79665      74364.301      42.052146      42.052146      42.052146      1.1182604     -110.22974      123.19251     -932.22695    
   1979000   1979000        298.00192      1276.0247      28487.363      27104.757      6679.0308      20425.726      3712.1088      6572.6783     -1984.1736      201.13693     -331.06054      43022.68      -30767.644     -528.28409      74295.686      42.039209      42.039209      42.039209      1.1192931      892.18929      2770.9272      164.95771    
   1980000   1980000        302.07597      499.73004      27809.198      27268.923      6770.3414      20498.581      3795.2478      6537.3452     -1916.4176      194.05753     -343.23687      42994.816     -30763.231     -529.45274      74131.695      42.008255      42.008255      42.008255      1.1217692      1222.4057      752.45346     -475.66901    
   1981000   1981000        294.83832      213.08155      27268.173      27036.401      6608.1261      20428.275      3713.367       6519.2108     -1912.7467      200.39357     -368.32014      43044.35      -30767.979     -526.25085      74582.737      42.09328       42.09328       42.09328       1.1149852     -1961.757       2911.6333     -310.63169    
   1982000   1982000        301.42347      705.43419      27935.639      27171.776      6755.7171      20416.059      3676.3307      6530.3231     -1976.4034      190.16223     -266.44125      43031.746     -30769.658     -528.62602      74247.63       42.030143      42.030143      42.030143      1.1200176      2241.746      -58.651468     -66.792013    
   1983000   1983000        302.0597      -1488.6719      25583.224      27198.671      6769.9766      20428.695      3820.726       6547.2107     -1932.7603      204.35834     -451.42448      43004.989     -30764.405     -527.4887       74407.715      42.060328      42.060328      42.060328      1.1176079     -533.77151     -2383.0519     -1549.1922    
   1984000   1984000        297.6051      -838.99799      26162.133      27078.98       6670.137       20408.843      3650.9946      6665.8634     -1976.8795      213.65167     -381.452        43002.933     -30766.268     -523.80655      74930.772      42.158654      42.158654      42.158654      1.1098064     -636.65996     -812.01234     -1068.3217    
   1985000   1985000        301.03616     -190.64645      26949.381      27156.37       6747.0364      20409.333      3775.5198      6521.5521     -1945.5142      205.1237      -373.307        42992.188     -30766.229     -527.21678      74446.092      42.067558      42.067558      42.067558      1.1170318     -1957.8654      772.64116      613.28491    
   1986000   1986000        299.36952     -1545.3832      25467.965      27145.636      6709.6824      20435.953      3817.0834      6460.1247     -1910.7246      206.31971     -376.70785      43009.416     -30769.558     -527.27406      74438.005      42.066035      42.066035      42.066035      1.1171531     -1614.5465     -3118.3372      96.734161    
   1987000   1987000        303.89619      1114.7173      28590.472      27382.718      6811.1375      20571.58       3686.6952      6618.9601     -1891.1432      207.66929     -299.95855      43011.046     -30761.689     -528.31528      74291.301      42.038382      42.038382      42.038382      1.1193592      625.53857      1217.7184      1500.8951    
   1988000   1988000        299.11557     -802.17178      26279.537      27148.694      6703.9907      20444.703      3719.079       6530.9039     -1928.1973      210.91813     -338.02164      43014.524     -30764.503     -528.29473      74294.191      42.038927      42.038927      42.038927      1.1193157     -1499.0929      412.25368     -1319.6761    
   1989000   1989000        300.95643     -4.4272116      27371.232      27376.046      6745.2493      20630.797      3805.5048      6664.9064     -1922.8918      213.62168     -367.62761      43004.367     -30767.084     -526.46523      74552.367      42.087566      42.087566      42.087566      1.1154394      686.05984     -414.07958     -285.26189    
   1990000   1990000        299.60953      412.83955      27686.436      27238.231      6715.0618      20523.169      3755.5447      6566.9002     -1992.287       215.04248     -266.12095      43007.908     -30763.818     -527.24405      74442.242      42.066833      42.066833      42.066833      1.1170895     -1183.1726      766.35983      1655.3314    
   1991000   1991000        297.14409     -916.28671      26196.241      27189.138      6659.8046      20529.333      3816.4702      6585.0399     -1981.9623      214.49884     -356.05836      43012.085     -30760.74      -528.24367      74301.372      42.040281      42.040281      42.040281      1.1192075     -776.07353     -677.31187     -1295.4747    
   1992000   1992000        302.84937     -415.62857      26864.435      27317.004      6787.6754      20529.328      3764.1333      6606.7807     -2001.9306      207.84495     -310.15037      43028.96      -30766.31      -525.68776      74662.627      42.108305      42.108305      42.108305      1.1137922     -1178.3708      102.96239     -171.47732    
   1993000   1993000        302.2582       206.57109      27403.005      27178.86       6774.4256      20404.434      3755.7907      6498.474      -1945.7624      210.21388     -344.0214       42994.34      -30764.6       -527.52923      74401.998      42.059251      42.059251      42.059251      1.1176938      824.6233       1046.3621     -1251.2721    
   1994000   1994000        300.85859      1665.1817      29009.82       27209.315      6743.0565      20466.258      3749.495       6495.4916     -1925.6634      211.10647     -308.82312      43005.817     -30761.165     -529.38814      74140.742      42.009964      42.009964      42.009964      1.1216323      2201.9841      1772.4805      1021.0804    
   1995000   1995000        301.38248      624.99234      27886.927      27208.266      6754.7984      20453.467      3781.8361      6439.7865     -1892.2367      190.78533     -309.68183      43009.644     -30766.666     -527.14308      74456.502      42.069519      42.069519      42.069519      1.1168756      2658.8192     -438.79194     -345.05027    
   1996000   1996000        300.41054      1050.7804      28373.189      27236.419      6733.0146      20503.404      3693.0152      6596.778      -1916.2125      203.02378     -319.59748      42998.769     -30752.372     -529.11015      74179.695      42.01732       42.01732       42.01732       1.1210433      983.43927      222.90059      1946.0012    
   1997000   1997000        300.90046     -726.00274      26406.893      27197.994      6743.9949      20453.999      3799.6816      6510.7176     -1929.0544      211.45443     -360.71327      42985.772     -30763.859     -525.30749      74716.676      42.118463      42.118463      42.118463      1.1129865     -131.47308     -1393.4736     -653.06155    
   1998000   1998000        299.5516       635.66288      27896.386      27210.659      6713.7634      20496.895      3724.5564      6565.573      -1947.864       220.05119     -315.20653      43008.142     -30758.357     -530.61839      73968.844      41.977472      41.977472      41.977472      1.1242389      1308.9677     -367.54643      965.56735    
   1999000   1999000        302.81142      1189.4762      28584.391      27290.82       6786.8247      20503.996      3725.3242      6574.9495     -1954.3466      217.74393     -307.87642      43017.649     -30769.448     -526.34773      74569.011      42.090698      42.090698      42.090698      1.1151905     -3.0559429      1568.756       2002.7285    
   2000000   2000000        301.88515      979.74667      28232.392      27171.195      6766.0646      20405.13       3680.7951      6548.515      -1932.2638      190.78451     -313.60555      42991.352     -30760.447     -528.47546      74268.783      42.034134      42.034134      42.034134      1.1196986      109.32844      2012.8952      817.01632    
Loop time of 22372.5 on 1 procs for 2000000 steps with 7520 atoms

Performance: 7.724 ns/day, 3.107 hours/ns, 89.395 timesteps/s, 672.253 katom-step/s
99.9% CPU use with 1 MPI tasks x 1 OpenMP threads

MPI task timing breakdown:
Section |  min time  |  avg time  |  max time  |%varavg| %total
---------------------------------------------------------------
Pair    | 4958.4     | 4958.4     | 4958.4     |   0.0 | 22.16
Bond    | 3188.8     | 3188.8     | 3188.8     |   0.0 | 14.25
Kspace  | 10305      | 10305      | 10305      |   0.0 | 46.06
Neigh   | 1217.2     | 1217.2     | 1217.2     |   0.0 |  5.44
Comm    | 148.45     | 148.45     | 148.45     |   0.0 |  0.66
Output  | 35.713     | 35.713     | 35.713     |   0.0 |  0.16
Modify  | 1958.8     | 1958.8     | 1958.8     |   0.0 |  8.76
Other   |            | 559.7      |            |       |  2.50

Nlocal:           7520 ave        7520 max        7520 min
Histogram: 1 0 0 0 0 0 0 0 0 0
Nghost:          20325 ave       20325 max       20325 min
Histogram: 1 0 0 0 0 0 0 0 0 0
Neighs:              0 ave           0 max           0 min
Histogram: 1 0 0 0 0 0 0 0 0 0
FullNghs:   4.8449e+06 ave  4.8449e+06 max  4.8449e+06 min
Histogram: 1 0 0 0 0 0 0 0 0 0

Total # of neighbors = 4844904
Ave neighs/atom = 644.26915
Ave special neighs/atom = 5.7207447
Neighbor list builds = 71221
Dangerous builds = 0

# --- Cleanup ---
unfix npt_fix

undump dump_npt

# --- Write Output ---
write_dump all custom npt_prod300_last.dump id type mol x y z xu yu zu vx vy vz modify sort id
write_data /home/arz2/PolyJarvis/data/PMMA3/lammps/equil/npt_prod300/npt_prod300_out.data
System init for write_data ...
PPPM Kokkos initialization ...
  using 12-bit tables for long-range coulomb
  G vector (1/distance) = 0.33292532
  grid = 45 45 45
  stencil order = 5
  estimated absolute RMS force accuracy = 0.00029006286
  estimated relative force accuracy = 8.735157e-07
  using double precision cuFFT
  3d grid and FFT values/proc = 140608 91125
Generated 15 of 15 mixed pair_coeff terms from sixthpower/sixthpower mixing rule

print "STAGE COMPLETE: NPT T=300.0->300.0K P=1.0->1.0atm steps=2000000"
STAGE COMPLETE: NPT T=300.0->300.0K P=1.0->1.0atm steps=2000000
quit
      |  2.50

Nlocal:           7520 ave        7520 max        7520 min
Histogram: 1 0 0 0 0 0 0 0 0 0
Nghost:          20325 ave       20325 max       20325 min
Histogram: 1 0 0 0 0 0 0 0 0 0
Neighs:              0 ave           0 max           0 min
Histogram: 1 0 0 0 0 0 0 0 0 0
FullNghs:   4.8449e+06 ave  4.8449e+06 max  4.8449e+06 min
Histogram: 1 0 0 0 0 0 0 0 0 0

Total # of neighbors = 4844904
Ave neighs/atom = 644.26915
Ave special neighs/atom = 5.7207447
Neighbor list builds = 71221
Dangerous builds = 0
System init for write_data ...
PPPM Kokkos initialization ...
  using 12-bit tables for long-range coulomb
  G vector (1/distance) = 0.33292532
  grid = 45 45 45
  stencil order = 5
  estimated absolute RMS force accuracy = 0.00029006286
  estimated relative force accuracy = 8.735157e-07
  using double precision cuFFT
  3d grid and FFT values/proc = 140608 91125
Generated 15 of 15 mixed pair_coeff terms from sixthpower/sixthpower mixing rule
STAGE COMPLETE: NPT T=300.0->300.0K P=1.0->1.0atm steps=2000000
