LAMMPS data file via write_data, version 22 Jul 2025, timestep = 2000000, units = real

7520 atoms
6 atom types
7510 bonds
9 bond types
14000 angles
17 angle types
18910 dihedrals
22 dihedral types
8500 impropers
14 improper types

4.858432135228799 46.89256599477713 xlo xhi
4.858432135228799 46.89256599477713 ylo yhi
4.858432135228799 46.89256599477713 zlo zhi

Masses

1 12.01115
2 12.01115
3 12.01115
4 1.00797
5 15.9994
6 15.9994

Pair Coeffs # lj/class2/coul/long/kk

1 0.054 4.01
2 0.054 4.01
3 0.12 3.81
4 0.02 2.995
5 0.267 3.3
6 0.24 3.42

Bond Coeffs # class2/kk

1 1.53 299.67 -501.77 679.81
2 1.53 299.67 -501.77 679.81
3 1.5202 253.707 -423.037 396.9
4 1.101 345 -691.89 844.6
5 1.43 326.727 -608.531 689.033
6 1.5202 253.707 -423.037 396.9
7 1.101 345 -691.89 844.6
8 1.202 851.14 -1918.49 2160.77
9 1.3683 367.148 -794.791 1055.23

Angle Coeffs # class2/kk

1 112.67 39.516 -7.443 -9.5583
2 112.67 39.516 -7.443 -9.5583
3 108.53 51.9747 -9.4851 -10.9985
4 110.77 41.453 -10.604 5.129
5 112.67 39.516 -7.443 -9.5583
6 108.53 51.9747 -9.4851 -10.9985
7 110.77 41.453 -10.604 5.129
8 123.145 55.5431 -17.2123 0.1348
9 100.318 38.8631 -3.8323 -7.9802
10 113.288 61.2868 -28.9786 7.9929
11 110.77 41.453 -10.604 5.129
12 123.145 55.5431 -17.2123 0.1348
13 100.318 38.8631 -3.8323 -7.9802
14 107.734 40.6099 -28.8121 0
15 107.66 39.641 -12.921 -2.4318
16 107.688 65.4801 -10.3498 5.8866
17 120.797 95.3446 -32.2869 6.3778

BondBond Coeffs

1 0 1.53 1.53
2 0 1.53 1.53
3 5.4199 1.53 1.5202
4 3.3872 1.53 1.101
5 0 1.53 1.53
6 5.4199 1.53 1.5202
7 3.3872 1.53 1.101
8 46.0685 1.5202 1.202
9 19.1069 1.5202 1.3683
10 45.4503 1.43 1.3683
11 3.3872 1.53 1.101
12 46.0685 1.5202 1.202
13 19.1069 1.5202 1.3683
14 0.7115 1.5202 1.101
15 5.3316 1.101 1.101
16 5.6454 1.101 1.43
17 121.488 1.202 1.3683

BondAngle Coeffs

1 8.016 8.016 1.53 1.53
2 8.016 8.016 1.53 1.53
3 18.1678 15.8758 1.53 1.5202
4 20.754 11.421 1.53 1.101
5 8.016 8.016 1.53 1.53
6 18.1678 15.8758 1.53 1.5202
7 20.754 11.421 1.53 1.101
8 34.9982 37.1298 1.5202 1.202
9 1.3435 4.6978 1.5202 1.3683
10 41.9116 46.4608 1.43 1.3683
11 20.754 11.421 1.53 1.101
12 34.9982 37.1298 1.5202 1.202
13 1.3435 4.6978 1.5202 1.3683
14 12.4632 9.1765 1.5202 1.101
15 18.103 18.103 1.101 1.101
16 8.6864 57.4975 1.101 1.43
17 76.2614 71.8761 1.202 1.3683

Dihedral Coeffs # class2/kk

1 0 0 0.0514 0 -0.143 0
2 0 0 0.0514 0 -0.143 0
3 0.0972 0 0.0722 0 -0.2581 0
4 0 0 0.0316 0 -0.1681 0
5 0 0 0.0514 0 -0.143 0
6 0.0972 0 0.0722 0 -0.2581 0
7 0 0 0.0316 0 -0.1681 0
8 0.0442 0 0.0292 0 0.0562 0
9 1.8341 0 2.0603 0 -0.0195 0
10 0 0 0.0316 0 -0.1681 0
11 0.0442 0 0.0292 0 0.0562 0
12 1.8341 0 2.0603 0 -0.0195 0
13 -2.5594 0 2.2013 0 0.0325 0
14 -2.5594 0 2.2013 0 0.0325 0
15 0 0 2.2089 0 0 0
16 0.0972 0 0.0722 0 -0.2581 0
17 -0.0228 0 0.028 0 -0.1863 0
18 -0.0228 0 0.028 0 -0.1863 0
19 0 0 0 0 -0.1932 0
20 -0.1432 0 0.0617 0 -0.1083 0
21 -0.1804 0 0.0012 0 0.0371 0
22 -0.6359 0 1.4807 0 -0.0438 0

AngleAngleTorsion Coeffs

1 -22.045 112.67 112.67
2 -22.045 112.67 112.67
3 -0.3801 112.67 108.53
4 -16.164 112.67 110.77
5 -22.045 112.67 112.67
6 -0.3801 112.67 108.53
7 -16.164 112.67 110.77
8 -8.019 108.53 123.145
9 0 108.53 100.318
10 -16.164 112.67 110.77
11 -8.019 108.53 123.145
12 0 108.53 100.318
13 0 100.318 113.288
14 0 113.288 100.318
15 0 113.288 120.797
16 -0.3801 112.67 108.53
17 -5.3624 108.53 110.77
18 -5.3624 108.53 110.77
19 0 113.288 107.688
20 -12.564 110.77 110.77
21 -15.3496 107.734 123.145
22 0 107.734 100.318

EndBondTorsion Coeffs

1 -0.0732 0 0 -0.0732 0 0 1.53 1.53
2 -0.0732 0 0 -0.0732 0 0 1.53 1.53
3 0.0062 -0.0002 0.0036 0.0055 0.006 -0.0009 1.53 1.5202
4 0.2486 0.2422 -0.0925 0.0814 0.0591 0.2219 1.53 1.101
5 -0.0732 0 0 -0.0732 0 0 1.53 1.53
6 0.0062 -0.0002 0.0036 0.0055 0.006 -0.0009 1.53 1.5202
7 0.2486 0.2422 -0.0925 0.0814 0.0591 0.2219 1.53 1.101
8 0.2654 0.0503 0.1046 -0.281 0.0816 -0.1522 1.53 1.202
9 0 0 0 0 0 0 1.53 1.3683
10 0.2486 0.2422 -0.0925 0.0814 0.0591 0.2219 1.53 1.101
11 0.2654 0.0503 0.1046 -0.281 0.0816 -0.1522 1.53 1.202
12 0 0 0 0 0 0 1.53 1.3683
13 0 0 0 0 0 0 1.5202 1.43
14 0 0 0 0 0 0 1.43 1.5202
15 0 0 0 0 0 0 1.43 1.202
16 0.0062 -0.0002 0.0036 0.0055 0.006 -0.0009 1.53 1.5202
17 -0.0204 0.3628 -0.4426 -0.0097 -0.0315 -0.0755 1.5202 1.101
18 -0.0204 0.3628 -0.4426 -0.0097 -0.0315 -0.0755 1.5202 1.101
19 0 0 0 0 0 0 1.3683 1.101
20 0.213 0.312 0.0777 0.213 0.312 0.0777 1.101 1.101
21 1.2143 0.2831 0.3916 -0.2298 0.0354 0.3853 1.101 1.202
22 0 0 0 0 0 0 1.101 1.3683

MiddleBondTorsion Coeffs

1 -17.787 -7.1877 0 1.53
2 -17.787 -7.1877 0 1.53
3 -1.5945 0.2267 -0.6911 1.53
4 -14.879 -3.6581 -0.3138 1.53
5 -17.787 -7.1877 0 1.53
6 -1.5945 0.2267 -0.6911 1.53
7 -14.879 -3.6581 -0.3138 1.53
8 0.3388 -0.1096 0.1219 1.5202
9 -17.328 -5.79 -3.2114 1.5202
10 -14.879 -3.6581 -0.3138 1.53
11 0.3388 -0.1096 0.1219 1.5202
12 -17.328 -5.79 -3.2114 1.5202
13 1.3445 3.5515 -4.9202 1.3683
14 1.3445 3.5515 -4.9202 1.3683
15 4.26 0 0 1.3683
16 -1.5945 0.2267 -0.6911 1.53
17 -3.5039 1.2458 -0.761 1.53
18 -3.5039 1.2458 -0.761 1.53
19 0 0 0 1.43
20 -14.261 -0.5322 -0.4864 1.53
21 0.2359 0.9139 0.9594 1.5202
22 -13.7686 -2.5959 1.1934 1.5202

BondBond13 Coeffs

1 0 1.53 1.53
2 0 1.53 1.53
3 0 1.53 1.5202
4 0 1.53 1.101
5 0 1.53 1.53
6 0 1.53 1.5202
7 0 1.53 1.101
8 0 1.53 1.202
9 0 1.53 1.3683
10 0 1.53 1.101
11 0 1.53 1.202
12 0 1.53 1.3683
13 0 1.5202 1.43
14 0 1.43 1.5202
15 0 1.43 1.202
16 0 1.53 1.5202
17 0 1.5202 1.101
18 0 1.5202 1.101
19 0 1.3683 1.101
20 0 1.101 1.101
21 0 1.101 1.202
22 0 1.101 1.3683

AngleTorsion Coeffs

1 0.3886 -0.3139 0.1389 0.3886 -0.3139 0.1389 112.67 112.67
2 0.3886 -0.3139 0.1389 0.3886 -0.3139 0.1389 112.67 112.67
3 -0.2607 0.3203 -0.2283 0.0515 -0.0674 -0.0474 112.67 108.53
4 -0.2454 0 -0.1136 0.3113 0.4516 -0.1988 112.67 110.77
5 0.3886 -0.3139 0.1389 0.3886 -0.3139 0.1389 112.67 112.67
6 -0.2607 0.3203 -0.2283 0.0515 -0.0674 -0.0474 112.67 108.53
7 -0.2454 0 -0.1136 0.3113 0.4516 -0.1988 112.67 110.77
8 0.0885 -1.3703 -0.5452 0.675 0.5965 0.6725 108.53 123.145
9 0 0 0 0 0 0 108.53 100.318
10 -0.2454 0 -0.1136 0.3113 0.4516 -0.1988 112.67 110.77
11 0.0885 -1.3703 -0.5452 0.675 0.5965 0.6725 108.53 123.145
12 0 0 0 0 0 0 108.53 100.318
13 0 0 0 0 0 0 100.318 113.288
14 0 0 0 0 0 0 113.288 100.318
15 0 0 0 0 0 0 113.288 120.797
16 -0.2607 0.3203 -0.2283 0.0515 -0.0674 -0.0474 112.67 108.53
17 -0.7466 -0.9448 -0.6321 0.0162 1.4211 -1.4092 108.53 110.77
18 -0.7466 -0.9448 -0.6321 0.0162 1.4211 -1.4092 108.53 110.77
19 0 0 0 0 0 0 113.288 107.688
20 -0.8085 0.5569 -0.2466 -0.8085 0.5569 -0.2466 110.77 110.77
21 9.1299 -0.4847 0.3582 -1.4946 0.7308 -0.2083 107.734 123.145
22 0 0 0 0 0 0 107.734 100.318

Improper Coeffs # class2/kk

1 0 0
2 0 0
3 0 0
4 0 0
5 0 0
6 0 0
7 0 0
8 0 0
9 0 0
10 0 0
11 0 0
12 0 0
13 46.9264 0
14 46.9264 0

AngleAngle Coeffs

1 -0.1729 -0.1729 -0.1729 112.67 112.67 112.67
2 0 0 0 112.67 108.53 108.53
3 -1.3199 -1.3199 0.1184 112.67 110.77 110.77
4 -1.3199 -1.3199 0.1184 112.67 110.77 110.77
5 0.2738 -0.4825 0.2738 110.77 110.77 107.66
6 0.2738 -0.4825 0.2738 110.77 110.77 107.66
7 -0.3157 -0.3157 -0.3157 107.66 107.66 107.66
8 0 0 0 107.66 107.688 107.688
9 0 0 0 112.67 108.53 108.53
10 -1.3199 -1.3199 0.1184 112.67 110.77 110.77
11 2.0403 -1.8202 1.0827 108.53 110.77 107.734
12 1.0827 -1.8202 2.0403 110.77 108.53 107.734
13 0 0 0 100.318 123.145 120.797
14 0 0 0 100.318 123.145 120.797

Atoms # full/kk

4177 6 1 0.066 7.443528305473809 5.410588068317394 5.939760613339595 0 1 0
4180 6 4 0.053 8.124394354794804 6.200654549381992 6.415551189380319 0 1 0
2778 4 1 0.066 5.782400027941372 8.088303833065766 9.187698024671336 0 0 0
2780 4 4 0.053 6.689487826886405 7.776007513550405 9.733900800486232 0 0 0
2764 4 4 0.053 8.535024395452647 9.884137008655731 8.532454160327932 0 0 0
2779 4 4 0.053 5.960160595023753 8.269137407698496 8.159573239910333 0 0 0
2781 4 4 0.053 5.060180494824722 7.327668407022479 9.359875067818185 0 0 0
4420 6 4 0.053 10.35523894953071 8.459240835322646 9.021790896710023 0 1 0
2777 4 6 -0.396 5.400792751964436 9.336407313417993 9.826977630490136 0 0 0
6961 10 4 0.053 5.437765670713508 10.142229159454343 5.687571209479326 1 0 1
2763 4 1 0.066 8.196349506318327 10.89772760704551 8.140065388741256 0 0 0
4419 6 4 0.053 10.379646879417816 6.790380302172337 9.716878743981052 0 1 0
5412 8 4 0.053 10.36103082968553 8.208698432697359 5.692651306368479 0 0 0
5409 8 5 -0.531 8.938968252056068 10.408578004655688 5.061232339688981 0 0 0
2765 4 4 0.053 7.639423021207698 10.680206580216588 7.245440083795518 0 0 0
5414 8 4 0.053 11.26419700343158 9.563330486320421 6.4403776659438 0 0 0
4418 6 4 0.053 11.143223907354837 7.091899598471217 8.202611116058485 0 1 0
5411 8 1 0.066 11.193988413078838 8.936587379877336 5.572554254128524 0 0 0
4417 6 1 0.066 10.97741169620949 7.538656451206392 9.207659389392077 0 1 0
5413 8 4 0.053 12.12046363169718 8.387460482331074 5.517569409537273 0 0 0
4395 6 1 -0.159 15.589281903585018 9.1380726084486 7.091195529290338 0 1 0
4201 6 4 0.053 12.826703543878299 5.859100153992993 6.607365598771804 0 1 0
4408 6 4 0.053 15.756926215250354 10.766434477480782 10.246186854011391 0 1 0
4397 6 4 0.053 15.08049693987063 8.219680127757877 7.410060255798036 0 1 0
4411 6 4 0.053 15.437918839112768 7.274861635981288 9.8025173098265 0 1 0
4200 6 1 -0.159 13.476531350112127 5.592713930382679 5.723228549745809 0 1 0
4398 6 4 0.053 14.906326852296694 9.867818693744338 6.662343427914541 0 1 0
4414 6 3 0.702 13.031688662450485 8.667418648870505 9.156335415341731 0 1 0
4409 6 1 0 14.224677847187179 9.140864798074098 10.04746124417923 0 1 0
4410 6 1 -0.159 14.958205721625104 7.857731998822458 10.572442752181011 0 1 0
4202 6 4 0.053 14.455332283749389 6.1455093976347825 5.968059400963838 0 1 0
4406 6 1 -0.106 15.20063564331741 10.156859398170688 9.45968296757564 0 1 0
4416 6 6 -0.396 12.249139895804273 7.743650124129747 9.792246748369807 0 1 0
4415 6 5 -0.531 12.78023526883265 9.006186086515722 8.041807333801398 0 1 0
4407 6 4 0.053 14.526200715385338 10.940317443929699 9.009484174700816 0 1 0
4394 6 1 0 16.280046631160538 9.787571660689894 8.334166871450055 0 1 0
4203 6 4 0.053 12.982424366028049 5.98165352891068 46.77130919554002 0 1 -1
4427 6 4 0.053 11.107858175399205 10.727795600523844 9.970275783780403 0 1 0
4396 6 4 0.053 16.48703534671659 8.89119411990912 6.334037201834347 0 1 0
4399 6 3 0.702 17.385570751976346 8.930038505921605 9.050635388055442 0 1 0
4400 6 5 -0.531 17.88003245107035 7.912177310286765 8.628870151720816 0 1 0
4383 6 4 0.053 18.860202435568716 9.170274977231504 6.745170307151798 0 1 0
3945 6 1 -0.159 21.662737504927293 6.568300219273036 8.494194774170547 0 1 0
4381 6 4 0.053 19.580481877948117 10.172824743780573 8.117652108223462 0 1 0
3948 6 4 0.053 21.36889726433362 7.304850929336007 9.284875924779914 0 1 0
3947 6 4 0.053 20.678988644246267 6.310589362172156 7.9569810406346795 0 1 0
4401 6 6 -0.396 17.81706114453857 9.4629721378667 10.200038472344975 0 1 0
4377 6 4 0.053 17.028111265306766 10.514838170043266 5.210293222877395 0 1 0
4380 6 1 -0.159 19.23015812865908 10.214835153175038 7.082454624068603 0 1 0
4382 6 4 0.053 20.11459468929857 10.361543979026337 6.4184618678983565 0 1 0
4391 6 1 -0.106 16.913262535501147 11.178840163979551 7.925697883430116 0 1 0
3944 6 1 0 22.199724022624228 5.373980674910763 9.208350250202479 0 1 0
3951 6 6 -0.396 19.9961298519504 5.511969972290946 10.223675958356917 0 1 0
3953 6 4 0.053 17.96235324865718 5.34011865647208 10.081333467361707 0 1 0
3961 6 4 0.053 21.44329455085205 5.572268092874531 5.952328267356369 0 1 0
4240 6 4 0.053 17.858994996909303 6.991205429655622 46.80352255866686 0 1 -1
3946 6 4 0.053 22.457633454109004 7.035859150167694 7.820131686669983 0 1 0
3933 6 4 0.053 21.581476506560676 7.412546655183016 11.343690522004827 0 1 0
3546 5 4 0.053 21.412371781220898 10.363764248082195 10.557962222513037 0 0 0
3930 6 1 -0.159 22.613564492658384 7.745827508409047 11.488587184414826 0 1 0
3932 6 4 0.053 22.983193720959832 8.558372052908776 10.824782736468208 0 1 0
4615 7 4 0.053 25.11822109639207 7.614421931594832 7.521639245696865 0 0 1
4614 7 1 0.066 25.081492321681885 8.671999007997595 7.424138420105216 0 0 1
4613 7 6 -0.396 26.035727779773403 9.2025369923081 6.470967216915721 0 0 1
4616 7 4 0.053 25.36956550657071 9.127070166748346 8.364111647071926 0 0 1
4617 7 4 0.053 24.027610249050422 9.027591717589301 7.202917034377345 0 0 1
3942 6 4 0.053 24.053124229875582 6.218013158841876 9.339262725731519 0 1 0
3941 6 1 -0.106 23.43669383483201 5.707556308399226 10.11051321775444 0 1 0
4611 7 3 0.702 25.64271233145947 9.53921486853166 5.223020274648659 0 0 1
4610 7 4 0.053 28.2623029305507 10.562870595645293 5.924386361461375 0 0 1
4612 7 5 -0.531 24.526376508026576 9.342995477915546 4.883686417601716 0 0 1
4609 7 4 0.053 28.499407026724807 8.99330328105561 5.288588033879037 0 0 1
6856 10 4 0.053 30.144904845534214 7.731376928120054 7.007440771039418 0 0 1
3927 6 4 0.053 25.203621169944615 7.475642378176435 10.592017587663987 0 1 0
6451 9 4 0.053 26.60318614269069 46.38855957768597 6.984180951052767 0 0 1
4623 7 4 0.053 27.557514666231864 7.233731660127443 4.932163257130482 0 0 1
4607 7 1 -0.159 28.221087764875776 9.991235205987905 4.969726826184187 0 0 1
6858 10 4 0.053 31.37292244947351 6.469060271957104 7.179699325469765 0 0 1
6861 10 4 0.053 34.421314604247755 7.108944536460367 10.667291014319323 0 0 1
6857 10 4 0.053 29.87385538650111 6.448121887269493 8.197992938738837 0 0 1
6847 10 1 0 32.82746726440238 8.292480000897482 10.329087763339508 0 0 1
6854 10 6 -0.396 31.158893938425123 7.772448537358846 8.841711599351552 0 0 1
6855 10 1 0.066 30.57984629344767 7.082077956829021 7.751411803167584 0 0 1
6837 10 3 0.702 33.60681950894953 9.077674691531703 6.961168672020612 0 0 1
6838 10 5 -0.531 32.74399652843128 8.868597821991742 6.146444851136913 0 0 1
6844 10 1 -0.106 33.75692019916051 9.275068223096369 9.562697242248152 0 0 1
6832 10 1 0 33.424203243881024 10.027015692155729 8.180576641123565 0 0 1
6852 10 3 0.702 32.32580097062734 7.247545301640235 9.394276209094238 0 0 1
6853 10 5 -0.531 32.741871560573486 6.1591806475029145 9.163035725967713 0 0 1
6846 10 4 0.053 34.76590480313703 8.822997863748586 9.470819270569127 0 0 1
6850 10 4 0.053 31.01265570424702 9.624077897088517 10.31116197361634 0 0 1
6839 10 6 -0.396 34.86986104116126 8.509798484241859 6.773216413696706 0 0 1
6840 10 1 0.066 35.112467621743505 7.621639705762295 5.638038174698297 0 0 1
6842 10 4 0.053 36.24710740409681 7.495052875807411 5.6124602471903104 0 0 1
6841 10 4 0.053 34.500144441436476 6.720151644819898 5.709013263719073 0 0 1
4631 7 4 0.053 31.545112616309833 6.807996970971882 44.45497145102513 0 0 0
6479 9 4 0.053 36.749150775398434 46.19267468234625 7.664699637013517 0 0 1
6920 10 4 0.053 38.55887765667008 5.378866683962037 9.675583782022654 0 0 1
6969 10 4 0.053 41.020302581523595 7.287971829962997 46.656380616433225 0 0 0
6843 10 4 0.053 34.874305277564105 8.044356015964542 46.71167552002887 0 0 0
6922 10 1 0 40.395730553863714 5.2339128736604845 8.657513692637295 0 0 1
6928 10 5 -0.531 39.24053495802136 5.743689453621286 6.5671138808322915 0 0 1
6919 10 1 -0.106 39.61983298901632 5.393953180594541 10.06092770446732 0 0 1
6929 10 6 -0.396 39.943131885806466 7.449240402707689 7.944016737216699 0 0 1
6930 10 1 0.066 39.1797548654375 8.511238862882868 7.3063597971342045 0 0 1
6932 10 4 0.053 39.837563916646644 9.333787265090322 7.273835223821589 0 0 1
2795 4 4 0.053 40.83753406039156 9.323112107072713 9.604372181743637 -1 0 0
6927 10 3 0.702 39.77196213687647 6.129439859945569 7.561013585407099 0 0 1
6931 10 4 0.053 38.95497254617716 8.15630334405569 6.337285264510442 0 0 1
6933 10 4 0.053 38.26374215885028 8.607909293940658 7.842896489238213 0 0 1
6921 10 4 0.053 39.79681153623842 6.43148055079064 10.380630950315371 0 0 1
6887 10 4 0.053 37.17425777942975 9.937597874389787 10.706473491077729 0 0 1
6821 10 4 0.053 35.72608243395803 10.320783186601986 5.640232596227123 0 0 1
6831 10 4 0.053 35.62635844331356 10.467193091306708 8.330990573041053 0 0 1
6962 10 4 0.053 45.788420009924806 10.590303115823108 6.047241380150443 0 0 1
6949 10 1 -0.106 43.01375425314865 6.372757319912756 6.668901821179534 0 0 1
6938 10 1 -0.159 44.33316786828247 6.077625690431585 8.89063327112283 0 0 1
6959 10 6 -0.396 46.026618711408716 8.598070389940307 5.831863403807771 0 0 1
6939 10 4 0.053 45.406595892065496 5.774598653542705 8.562279670132257 0 0 1
2793 4 1 0.066 41.78049751196117 9.52650418373668 9.122984114009144 -1 0 0
2796 4 4 0.053 42.054162824197405 8.797523485647977 8.441426071188758 -1 0 0
6951 10 4 0.053 42.453743754334255 7.264655422115428 6.973937037493458 0 0 1
6937 10 1 0 43.18697914676321 5.541841912783969 8.000812323140071 0 0 1
6941 10 4 0.053 44.34970428629336 5.542809284045297 9.875249044195346 0 0 1
6958 10 5 -0.531 44.096828806308096 9.064731284863988 6.863659223521818 0 0 1
6953 10 1 -0.159 45.537656363764015 5.902957338863883 5.613347116813443 0 0 1
6952 10 1 0 44.26879237591356 6.810159847811719 5.760864621026556 0 0 1
6950 10 4 0.053 42.26964555847469 5.868494836249645 6.046261408455098 0 0 1
6936 10 4 0.053 42.175653781101175 4.92306583652983 9.795978911274005 0 0 1
6935 10 4 0.053 41.92754270700816 6.5519639699612915 9.297725553083177 0 0 1
6970 10 4 0.053 41.88148428759581 8.746669098437504 5.228926889983712 0 0 1
6957 10 3 0.702 44.74206189300811 8.253242941836904 6.209018391858346 0 0 1
6960 10 1 0.066 46.56302899815644 9.898775080083883 6.258216682933716 0 0 1
6955 10 4 0.053 45.265982530464925 4.980162916017584 5.133257701513705 0 0 1
6954 10 4 0.053 45.92691336237303 5.588384586967868 6.579237750119197 0 0 1
2792 4 6 -0.396 42.78663147014748 9.570762925245209 10.119685340348614 -1 0 0
2784 4 4 0.053 45.19479903004735 10.446675574753309 10.45753339801964 -1 0 0
6940 10 4 0.053 44.25942444707745 7.1212657228765766 8.960637115980308 0 0 1
6956 10 4 0.053 46.37119762555943 6.448465063022214 5.119516132138529 0 0 1
6963 10 4 0.053 46.68517015003948 9.76748472966559 7.340107957761343 0 0 1
6934 10 1 -0.106 41.91504193885946 5.505485100532906 8.941574759375749 0 0 1
2769 4 4 0.053 4.860307000808354 12.233592302414811 10.352546324992305 0 0 0
2738 4 4 0.053 6.011739392423501 16.103986394170356 9.720991734301792 0 0 0
2766 4 4 0.053 9.087134329040712 11.54064169899181 7.89920198435009 0 0 0
2760 4 3 0.702 7.618835578213015 11.342842558965923 10.39853745021291 0 0 0
2762 4 6 -0.396 7.346753369947122 11.450787592578264 9.080798993847164 0 0 0
2727 4 4 0.053 8.621106057807733 16.00794726212444 6.901956427234758 0 0 0
2743 4 4 0.053 8.493524865024005 13.766742502398479 8.54782712484229 0 0 0
2737 4 1 -0.106 6.951232883566904 15.924459491498569 9.144845578744679 0 0 0
2724 4 4 0.053 5.765647388124846 16.85507323846124 7.132715366665817 0 0 0
2741 4 1 -0.159 8.855518174593238 14.268913930560933 9.38600138698575 0 0 0
2740 4 1 0 7.702590847741547 14.921085627449939 10.104698047272297 0 0 0
2739 4 4 0.053 6.5711106169253455 15.273652966453328 8.303371433935505 0 0 0
2754 4 4 0.053 6.016091470646088 13.55844014376263 9.520847257151981 0 0 0
2752 4 1 -0.106 6.636128460492229 13.82989052475321 10.450988658395904 0 0 0
2742 4 4 0.053 9.75300481053621 14.876496396764635 9.139828168165403 0 0 0
5391 8 4 0.053 9.86450731799138 12.781306800862321 5.792840987367481 0 0 0
2744 4 4 0.053 9.253407520922682 13.452867419367774 10.038215887293468 0 0 0
5389 8 1 -0.159 10.860828098578581 13.191786683910873 5.8099769164741994 0 0 0
5390 8 4 0.053 10.654040051449092 14.014736716831768 6.586952462531003 0 0 0
2753 4 4 0.053 5.8699438685291545 14.31600659199867 11.095769305515496 0 0 0
5246 7 4 0.053 5.4315721402677335 14.640689257888372 5.33616712611738 0 0 1
4425 6 1 -0.159 11.817832820874484 11.465995787494752 10.145164167074725 0 1 0
4428 6 4 0.053 12.31192958641985 11.765974083597081 9.228298815330263 0 1 0
5392 8 4 0.053 11.604251333374192 12.463530922784528 6.24122946285317 0 0 0
4426 6 4 0.053 11.200081622613485 12.296646519709698 10.35932362989946 0 1 0
5383 8 4 0.053 13.980439412484257 13.999236782228305 8.988922608932869 0 0 0
5381 8 1 0.066 13.509632087812472 14.857324965735131 8.498392027955868 0 0 0
5380 8 6 -0.396 13.68555134955882 14.634199150213767 7.063086461658677 0 0 0
5379 8 5 -0.531 12.213341695177613 16.309271440740353 6.65642589770816 0 0 0
5378 8 3 0.702 13.0155704262921 15.52189268446753 6.24735578773298 0 0 0
5382 8 4 0.053 12.431427407637386 14.922236324906294 8.69844959542247 0 0 0
5384 8 4 0.053 14.099906407264431 15.687639868268363 8.927129727102773 0 0 0
4392 6 4 0.053 16.095230025965925 11.764377083823398 7.511502996828821 0 1 0
5376 8 4 0.053 15.568581369369532 15.495621161545623 5.268543176669971 0 0 0
5375 8 4 0.053 14.907947171317259 13.84716101080157 5.1119318413705415 0 0 0
5373 8 1 0 13.374847141071475 15.38534660634909 46.81497872814296 0 0 -1
5374 8 1 -0.159 14.869034668410164 14.904816346033158 46.63940142998316 0 0 -1
5386 8 4 0.053 13.144819498007099 13.312176714715049 46.36512195855072 0 0 -1
4378 6 4 0.053 16.616658479573125 12.171896923508182 5.469660983114757 0 1 0
4393 6 4 0.053 17.114172197421908 11.640220635111241 8.935613989075206 0 1 0
4379 6 1 0 18.162023622083126 11.386079629367664 6.906816475238593 0 1 0
4376 6 1 -0.106 17.53253485774772 11.50797136546501 5.439387655353797 0 1 0
3539 5 4 0.053 18.30889865310171 12.306846499364081 10.596029283339972 0 0 0
4385 6 5 -0.531 18.242363896894744 13.850227371307753 7.469433739906976 0 1 0
4384 6 3 0.702 18.881168689156382 12.843388319954471 7.282203952795441 0 1 0
4387 6 1 0.066 20.860793612411086 13.979232402733622 7.886489580072839 0 1 0
4389 6 4 0.053 21.94286288190445 13.790481477615218 7.952363470281256 0 1 0
4375 6 4 0.053 22.78491532824456 11.323920141976862 45.97233520395624 0 1 -1
4386 6 6 -0.396 20.242616075029183 12.770902261982975 7.438221372619174 0 1 0
4388 6 4 0.053 20.446521149622168 14.21307866275981 8.87917336921202 0 1 0
3486 5 4 0.053 17.948291849825466 16.450885939212142 8.059188098370944 0 0 0
4390 6 4 0.053 20.69374301847639 14.83074354686304 7.119557137218301 0 1 0
4366 6 4 0.053 19.597388594042435 13.234441800466733 4.924981179832454 0 1 0
3488 5 4 0.053 17.067857549914876 16.809297227386836 9.63182308168159 0 0 0
3487 5 4 0.053 18.852660198817752 16.189458779122056 9.578495867316327 0 0 0
3485 5 1 0.066 18.056287074230216 16.784178320822402 9.143377345986927 0 0 0
3521 5 4 0.053 21.284519564768182 15.933266084347405 10.977880692542282 0 0 0
4572 7 4 0.053 21.132171473974466 14.895997318234379 46.448893459876274 0 0 0
4585 7 4 0.053 22.638946559405444 16.81022601091219 6.7848790296257615 0 0 1
4591 7 1 0 26.203842684134614 12.80155551536075 46.791493347403176 0 0 0
4577 7 1 -0.159 26.940085470543117 16.262683144954956 46.806933992216806 0 0 0
3547 5 4 0.053 22.216170320150844 11.807979206192034 9.783133352515138 0 0 0
3514 5 6 -0.396 23.730352969017364 16.300270118700034 10.71658118485376 0 0 0
7353 10 4 0.053 28.775523607379043 10.56299775549676 10.417558788567627 0 0 0
4584 7 1 0.066 23.614891818331845 17.147868715638815 7.050622640823564 0 0 1
4582 7 5 -0.531 23.67836625806105 14.889252492856706 5.590576226978795 0 0 1
4594 7 4 0.053 25.25647286232438 13.4592419228957 6.577648260049242 0 0 1
4593 7 4 0.053 24.405769746402793 12.144148555347929 5.7604460691230095 0 0 1
4592 7 1 -0.159 25.356218662837044 12.55924225294774 5.995240187470256 0 0 1
4596 7 3 0.702 27.796398708371136 13.061059769497719 5.113327648414348 0 0 1
4595 7 4 0.053 25.77613686013132 11.889990324760934 6.718622008169476 0 0 1
4581 7 3 0.702 24.502397633020443 15.693397831744651 5.324249837778092 0 0 1
4598 7 6 -0.396 27.862493394867084 13.337348268080795 6.453337900595763 0 0 1
4578 7 4 0.053 27.166687333824406 15.983189359290135 5.834982279744601 0 0 1
3516 5 4 0.053 24.608827080173366 14.88294147410299 9.565269485581226 0 0 0
4583 7 6 -0.396 24.570047437595857 16.856759594706002 6.06841960637735 0 0 1
3518 5 4 0.053 25.804546828054352 15.850833979004978 10.473135131575718 0 0 0
4587 7 4 0.053 23.902169296067775 16.629376538114496 7.975253867460651 0 0 1
6836 10 4 0.053 31.147494298670978 10.167809186859898 8.393208518789123 0 0 1
6845 10 4 0.053 33.95565857316925 10.11333707809667 10.260342385758245 0 0 1
7335 10 1 0.066 34.456698924164286 16.66272605570244 10.736414609458697 0 0 0
6819 10 4 0.053 34.291968098338515 11.200270570707138 5.182608922973696 0 0 1
6829 10 1 -0.106 34.75745177089097 11.063873723066406 8.121956276333487 0 0 1
6833 10 1 -0.159 32.046664015318605 10.751545315582817 8.167080110371284 0 0 1
6834 10 4 0.053 31.841239875379976 11.207972174235517 7.165948295754874 0 0 1
4600 7 4 0.053 29.595354115841303 14.2668799086937 6.507656341624622 0 0 1
6817 10 1 0 35.09307364998688 12.131651825070717 6.983259947391056 0 0 1
4599 7 1 0.066 29.07761858885987 13.487912493662678 7.065062582712505 0 0 1
4602 7 4 0.053 28.835538379140452 13.644528019358715 8.175753916305084 0 0 1
4601 7 4 0.053 29.56178489819473 12.579140880937853 6.946438766325558 0 0 1
6835 10 4 0.053 32.041359544973176 11.546338036273982 8.913325187723483 0 0 1
6800 10 4 0.053 33.20951087374232 15.786743207582319 6.84387823024138 0 0 1
7343 10 1 -0.159 30.744917934843034 14.787153491926333 10.258665284600097 0 0 0
6786 10 4 0.053 30.205012585972213 15.920401712673195 5.746598956903586 0 0 1
6799 10 1 -0.106 32.820850079132256 15.320813627494577 5.912566754304616 0 0 1
6802 10 1 0 33.91227009145726 14.290559594066353 5.5707714886577175 0 0 1
6801 10 4 0.053 31.93321684610885 14.682846663565208 6.269180195492251 0 0 1
6814 10 1 -0.106 34.003537966734555 13.260090840060856 6.872183959352577 0 0 1
7344 10 4 0.053 29.9650498196259 14.819533664668304 9.485836645945469 0 0 0
6815 10 4 0.053 33.019447765779475 12.802415683001628 6.951215597060238 0 0 1
7346 10 4 0.053 31.351484449531327 13.915295664019181 9.93786265763786 0 0 0
6830 10 4 0.053 34.60527399638425 11.702919783288017 8.975006201119799 0 0 1
6816 10 4 0.053 33.940746625716585 13.88685944770083 7.777449022174883 0 0 1
7345 10 4 0.053 31.389523070004017 15.669101607312601 10.109345996763894 0 0 0
7338 10 4 0.053 34.489954470856404 16.218382560742704 9.699889828725421 0 0 0
6818 10 1 -0.159 35.303473810340606 11.336103013193098 5.663956126593265 0 0 1
6770 10 4 0.053 31.718869765581363 16.32943630977435 8.190074347822716 0 0 1
5230 7 4 0.053 38.82125358349727 14.843031045774497 5.612416667630863 -1 0 1
6828 10 4 0.053 36.75897714006216 15.688828239053398 9.145436989243978 0 0 1
6803 10 1 -0.159 35.30883730201286 15.00353791558118 5.196268392566567 0 0 1
6827 10 4 0.053 37.65072786705855 14.234024182412819 9.66886844989949 0 0 1
6825 10 1 0.066 37.22436202583684 14.75124884227405 8.809708670611338 0 0 1
6804 10 4 0.053 35.79940604172435 15.478196559505417 6.105853715551942 0 0 1
6824 10 6 -0.396 36.15956096223378 14.009385171584668 8.183211371685731 0 0 1
5255 7 4 0.053 39.83114362631527 13.407868379112134 7.9921920356409215 -1 0 1
6823 10 5 -0.531 37.49204026106783 12.283420223346305 7.493644796914834 0 0 1
6822 10 3 0.702 36.41972522838268 12.830804987799173 7.5786167851188315 0 0 1
5667 8 4 0.053 39.33752246227243 12.33510300924435 5.236193880662503 -1 0 0
5253 7 4 0.053 41.10726804017972 12.239487830268807 7.3935836672025586 -1 0 1
6826 10 4 0.053 37.9102683557886 15.00305487033338 8.004420043331336 0 0 1
5250 7 4 0.053 41.2025903425976 15.545033264213158 7.5462311639169535 -1 0 1
5241 7 3 0.702 44.397551187733 14.37840507866049 6.5579587076135475 -1 0 1
5243 7 6 -0.396 45.61574668449816 14.937330722431078 6.218278793557328 -1 0 1
5264 7 4 0.053 42.86520887722337 13.290948768700387 8.731787455350473 -1 0 1
5236 7 1 0 43.45906642791037 15.495080640571985 7.093055079806189 -1 0 1
5237 7 1 -0.159 44.16720796481134 16.21624143993423 8.2705053281624 -1 0 1
5242 7 5 -0.531 44.19056804824717 13.201296014235309 6.546134555257362 -1 0 1
5248 7 1 -0.106 42.0071741290984 14.799565237268604 7.397881370566285 -1 0 1
5249 7 4 0.053 41.73748159665993 14.26177002915307 6.486673773525255 -1 0 1
5251 7 2 -0.053 41.93943316200098 13.859789150129558 8.637372582530135 -1 0 1
5239 7 4 0.053 44.55202961306297 15.555316426303161 9.051382071344205 -1 0 1
5256 7 3 0.702 41.8762541131743 14.643233506451347 9.997791161066399 -1 0 1
5244 7 1 0.066 46.62125063269265 14.07921088743454 5.752475178459359 -1 0 1
2794 4 4 0.053 41.754190794699824 10.503775929606842 8.698647276334174 -1 0 0
5245 7 4 0.053 46.89042953451889 13.369871177391275 6.540500411453547 -1 0 1
5252 7 1 -0.159 40.77718150049381 12.872123670160741 8.25688056901278 -1 0 1
5254 7 4 0.053 40.50737139505246 12.244596383788517 9.127158551626778 -1 0 1
5258 7 6 -0.396 40.564103002855745 14.918371775092545 10.271878527522421 -1 0 1
2729 4 4 0.053 9.029606757436461 17.734848600656566 6.93230138453362 0 0 0
2697 4 4 0.053 5.210874292573037 20.29900901130441 8.99575086486585 0 0 0
2722 4 1 -0.106 6.243893055867391 17.68416671656007 7.619239350181561 0 0 0
2723 4 4 0.053 5.487771710026327 17.87773003881862 8.413065327985738 0 0 0
2701 4 5 -0.531 5.029352625721518 21.99054434143477 5.499705178885257 0 0 0
2700 4 3 0.702 46.77224308265227 21.802218933036055 6.640542593610081 -1 0 0
2716 4 5 -0.531 7.561557201571567 20.67548701736344 7.680211922808896 0 0 0
2725 4 1 0 7.528103051465668 17.226185085620614 8.431620913790299 0 0 0
2715 4 3 0.702 7.442862688740885 19.867867698493306 6.7226986748266535 0 0 0
2710 4 1 0 6.293604213370507 18.79588907542219 6.503507488117677 0 0 0
2717 4 6 -0.396 8.424100004978156 19.870623273633 5.765648898478351 0 0 0
2730 4 3 0.702 8.01095648754493 18.197191532456905 9.621038419544698 0 0 0
2726 4 1 -0.159 8.73548014810799 16.936429261968893 7.545837433570564 0 0 0
2728 4 4 0.053 9.561067320473448 16.728631619334898 8.23400470062102 0 0 0
2731 4 5 -0.531 9.173494188598298 18.37334780297641 9.95658247298966 0 0 0
2732 4 6 -0.396 6.907215364204286 18.752300711298204 10.146666315504957 0 0 0