units real
atom_style full
boundary p p p

# --- Force Field Styles ---
pair_style lj/class2/coul/long 9.5 9.5
kspace_style pppm 1e-6
dielectric 1.000000
bond_style class2
angle_style class2
dihedral_style class2
improper_style class2
special_bonds lj/coul 0 0 1
pair_modify mix sixthpower tail yes
neighbor 2.0 bin
neigh_modify delay 0 every 1 check yes
neigh_modify one 4000
# KOKKOS: package loaded via -pk kokkos on the command line

read_data /home/arz2/PolyJarvis/data/PMMA2/lammps/equil/npt_prod300/npt_prod300_out.data
Reading data file ...
  orthogonal box = (4.8657774 4.8657774 4.8657774) to (46.885221 46.885221 46.885221)
  1 by 1 by 1 MPI processor grid
  reading atoms ...
  7520 atoms
  reading velocities ...
  7520 velocities
  scanning bonds ...
  4 = max bonds/atom
  scanning angles ...
  17 = max angles/atom
  scanning dihedrals ...
  40 = max dihedrals/atom
  scanning impropers ...
  14 = max impropers/atom
  orthogonal box = (4.8657774 4.8657774 4.8657774) to (46.885221 46.885221 46.885221)
  1 by 1 by 1 MPI processor grid
  reading bonds ...
  7510 bonds
  reading angles ...
  14000 angles
  reading dihedrals ...
  18910 dihedrals
  reading impropers ...
  8500 impropers
Finding 1-2 1-3 1-4 neighbors ...
  special bond factors lj:    0        0        1       
  special bond factors coul:  0        0        1       
     4 = max # of 1-2 neighbors
    11 = max # of 1-3 neighbors
    15 = max # of special neighbors
  special bonds CPU = 0.005 seconds
  read_data CPU = 0.681 seconds
include /home/arz2/PolyJarvis/data/PMMA2/lammps/equil/emc_build.params
# LAMMPS parameters created by EMC v9.4.4, build Jul 31 2025 20:33:44

# Variables

variable	seed		index	734812
variable	ntotal		index	7520
variable	fshape		index	1
variable	output		index	emc_build
variable	field		index	pcff/pcff
variable	location1	index	/home/arz2/emc/field/
variable	nav		index	0.6022141179
variable	temperature	index	300
variable	radius		index	5
variable	nrelax		index	100
variable	weight_nonbond	index	0.0001
variable	weight_bond	index	0.0001
variable	weight_focus	index	1
variable	cutoff		index	9.5
variable	charge_cutoff	index	9.5
variable	kappa		index	4
variable	density1	index	0.6
variable	lprevious	index	0
variable	lphase		index	51.7509981335
variable	f_poly		index	10
variable	chem_repeat	index	*CC(C)(C(=O)OC)*
variable	chem_cap	index	*[H]
variable	lg_repeat	index	15
variable	lg_cap		index	1
variable	norm_poly	index	100
variable	l_poly		index	752
variable	mg_repeat	index	88.10716
variable	mg_cap		index	1.00797
variable	m_poly		index	4407.37394
variable	n_poly		index	10
variable	mtotal		index	50079.3144
variable	nphase1		index	7520
variable	mphase1		index	50079.3144
variable	vphase1		index	138597.753721
variable	lbox		index	51.7509981335
variable	lphase1		index	51.7509981335
variable	lxx		index	51.7509981335
variable	lyy		index	51.7509981335
variable	lzz		index	51.7509981335
variable	lzy		index	0
variable	lzx		index	0
variable	lyx		index	0
variable	vtotal		index	138597.753721
variable	nl_poly		index	10

# Types

variable	type_c		index	1
variable	type_c1		index	2
variable	type_c_1	index	3
variable	type_hc		index	4
variable	type_o_1	index	5
variable	type_o_2	index	6

variable	type_bond_c_c	index	1
variable	type_bond_c_c1	index	2
variable	type_bond_c_c_1	index	3
variable	type_bond_c_hc	index	4
variable	type_bond_c_o_2	index	5
variable	type_bond_c1_c_1 index	6
variable	type_bond_c1_hc	index	7
variable	type_bond_c_1_o_1 index	8
variable	type_bond_c_1_o_2 index	9

variable	type_angle_c_c_c index	1
variable	type_angle_c_c_c1 index	2
variable	type_angle_c_c_c_1 index	3
variable	type_angle_c_c_hc index	4
variable	type_angle_c_c1_c index	5
variable	type_angle_c_c1_c_1 index	6
variable	type_angle_c_c1_hc index	7
variable	type_angle_c_c_1_o_1 index	8
variable	type_angle_c_c_1_o_2 index	9
variable	type_angle_c_o_2_c_1 index	10
variable	type_angle_c1_c_hc index	11
variable	type_angle_c1_c_1_o_1 index	12
variable	type_angle_c1_c_1_o_2 index	13
variable	type_angle_c_1_c1_hc index	14
variable	type_angle_hc_c_hc index	15
variable	type_angle_hc_c_o_2 index	16
variable	type_angle_o_1_c_1_o_2 index	17

# Clusters

variable	n0_poly		index	1
variable	n1_poly		index	10
variable	nl_poly		index	10

# Flags

variable	flag_charged	index	1

# Masses

mass		1    12.01115  # c
mass		2    12.01115  # c1
mass		3    12.01115  # c_1
mass		4     1.00797  # hc
mass		5    15.99940  # o_1
mass		6    15.99940  # o_2

# Potentials

pair_modify	mix sixthpower tail yes
special_bonds	lj/coul 0 0 1

# Pair Coeffs

pair_coeff	 1  1    0.05400    4.01000  # c,c
pair_coeff	 2  2    0.05400    4.01000  # c1,c1
pair_coeff	 3  3    0.12000    3.81000  # c_1,c_1
pair_coeff	 4  4    0.02000    2.99500  # hc,hc
pair_coeff	 5  5    0.26700    3.30000  # o_1,o_1
pair_coeff	 6  6    0.24000    3.42000  # o_2,o_2

# Bond Coeffs

bond_coeff	1    1.53000  299.67000 -501.77000  679.81000  # c,c
bond_coeff	2    1.53000  299.67000 -501.77000  679.81000  # c,c1
bond_coeff	3    1.52020  253.70670 -423.03700  396.90000  # c,c_1
bond_coeff	4    1.10100  345.00000 -691.89000  844.60000  # c,hc
bond_coeff	5    1.43000  326.72730 -608.53060  689.03330  # c,o_2
bond_coeff	6    1.52020  253.70670 -423.03700  396.90000  # c1,c_1
bond_coeff	7    1.10100  345.00000 -691.89000  844.60000  # c1,hc
bond_coeff	8    1.20200  851.14030 -1918.48820 2160.76590  # c_1,o_1
bond_coeff	9    1.36830  367.14810 -794.79080 1055.23190  # c_1,o_2

# Angle Coeffs

angle_coeff	 1  112.67000   39.51600   -7.44300   -9.55830  # c,c,c
angle_coeff	 2  112.67000   39.51600   -7.44300   -9.55830  # c,c,c1
angle_coeff	 3  108.52950   51.97470   -9.48510  -10.99850  # c,c,c_1
angle_coeff	 4  110.77000   41.45300  -10.60400    5.12900  # c,c,hc
angle_coeff	 5  112.67000   39.51600   -7.44300   -9.55830  # c,c1,c
angle_coeff	 6  108.52950   51.97470   -9.48510  -10.99850  # c,c1,c_1
angle_coeff	 7  110.77000   41.45300  -10.60400    5.12900  # c,c1,hc
angle_coeff	 8  123.14510   55.54310  -17.21230    0.13480  # c,c_1,o_1
angle_coeff	 9  100.31820   38.86310   -3.83230   -7.98020  # c,c_1,o_2
angle_coeff	10  113.28800   61.28680  -28.97860    7.99290  # c,o_2,c_1
angle_coeff	11  110.77000   41.45300  -10.60400    5.12900  # c1,c,hc
angle_coeff	12  123.14510   55.54310  -17.21230    0.13480  # c1,c_1,o_1
angle_coeff	13  100.31820   38.86310   -3.83230   -7.98020  # c1,c_1,o_2
angle_coeff	14  107.73360   40.60990  -28.81210    0.00000  # c_1,c1,hc
angle_coeff	15  107.66000   39.64100  -12.92100   -2.43180  # hc,c,hc
angle_coeff	16  107.68800   65.48010  -10.34980    5.88660  # hc,c,o_2
angle_coeff	17  120.79700   95.34460  -32.28690    6.37780  # o_1,c_1,o_2

# BondBond Coeffs

angle_coeff	 1 bb    0.00000    1.53000    1.53000  # c,c,c
angle_coeff	 2 bb    0.00000    1.53000    1.53000  # c,c,c1
angle_coeff	 3 bb    5.41990    1.53000    1.52020  # c,c,c_1
angle_coeff	 4 bb    3.38720    1.53000    1.10100  # c,c,hc
angle_coeff	 5 bb    0.00000    1.53000    1.53000  # c,c1,c
angle_coeff	 6 bb    5.41990    1.53000    1.52020  # c,c1,c_1
angle_coeff	 7 bb    3.38720    1.53000    1.10100  # c,c1,hc
angle_coeff	 8 bb   46.06850    1.52020    1.20200  # c,c_1,o_1
angle_coeff	 9 bb   19.10690    1.52020    1.36830  # c,c_1,o_2
angle_coeff	10 bb   45.45030    1.43000    1.36830  # c,o_2,c_1
angle_coeff	11 bb    3.38720    1.53000    1.10100  # c1,c,hc
angle_coeff	12 bb   46.06850    1.52020    1.20200  # c1,c_1,o_1
angle_coeff	13 bb   19.10690    1.52020    1.36830  # c1,c_1,o_2
angle_coeff	14 bb    0.71150    1.52020    1.10100  # c_1,c1,hc
angle_coeff	15 bb    5.33160    1.10100    1.10100  # hc,c,hc
angle_coeff	16 bb    5.64540    1.10100    1.43000  # hc,c,o_2
angle_coeff	17 bb  121.48800    1.20200    1.36830  # o_1,c_1,o_2

# BondAngle Coeffs

angle_coeff	 1 ba    8.01600    8.01600    1.53000    1.53000  # c,c,c
angle_coeff	 2 ba    8.01600    8.01600    1.53000    1.53000  # c,c,c1
angle_coeff	 3 ba   18.16780   15.87580    1.53000    1.52020  # c,c,c_1
angle_coeff	 4 ba   20.75400   11.42100    1.53000    1.10100  # c,c,hc
angle_coeff	 5 ba    8.01600    8.01600    1.53000    1.53000  # c,c1,c
angle_coeff	 6 ba   18.16780   15.87580    1.53000    1.52020  # c,c1,c_1
angle_coeff	 7 ba   20.75400   11.42100    1.53000    1.10100  # c,c1,hc
angle_coeff	 8 ba   34.99820   37.12980    1.52020    1.20200  # c,c_1,o_1
angle_coeff	 9 ba    1.34350    4.69780    1.52020    1.36830  # c,c_1,o_2
angle_coeff	10 ba   41.91160   46.46080    1.43000    1.36830  # c,o_2,c_1
angle_coeff	11 ba   20.75400   11.42100    1.53000    1.10100  # c1,c,hc
angle_coeff	12 ba   34.99820   37.12980    1.52020    1.20200  # c1,c_1,o_1
angle_coeff	13 ba    1.34350    4.69780    1.52020    1.36830  # c1,c_1,o_2
angle_coeff	14 ba   12.46320    9.17650    1.52020    1.10100  # c_1,c1,hc
angle_coeff	15 ba   18.10300   18.10300    1.10100    1.10100  # hc,c,hc
angle_coeff	16 ba    8.68640   57.49750    1.10100    1.43000  # hc,c,o_2
angle_coeff	17 ba   76.26140   71.87610    1.20200    1.36830  # o_1,c_1,o_2

# Dihedral Coeffs

dihedral_coeff	 1    0.00000    0.00000    0.05140    0.00000   -0.14300    0.00000  # c,c,c,c
dihedral_coeff	 2    0.00000    0.00000    0.05140    0.00000   -0.14300    0.00000  # c,c,c,c1
dihedral_coeff	 3    0.09720    0.00000    0.07220    0.00000   -0.25810    0.00000  # c,c,c,c_1
dihedral_coeff	 4    0.00000    0.00000    0.03160    0.00000   -0.16810    0.00000  # c,c,c,hc
dihedral_coeff	 5    0.00000    0.00000    0.05140    0.00000   -0.14300    0.00000  # c,c,c1,c
dihedral_coeff	 6    0.09720    0.00000    0.07220    0.00000   -0.25810    0.00000  # c,c,c1,c_1
dihedral_coeff	 7    0.00000    0.00000    0.03160    0.00000   -0.16810    0.00000  # c,c,c1,hc
dihedral_coeff	 8    0.04420    0.00000    0.02920    0.00000    0.05620    0.00000  # c,c,c_1,o_1
dihedral_coeff	 9    1.83410    0.00000    2.06030    0.00000   -0.01950    0.00000  # c,c,c_1,o_2
dihedral_coeff	10    0.00000    0.00000    0.03160    0.00000   -0.16810    0.00000  # c,c1,c,hc
dihedral_coeff	11    0.04420    0.00000    0.02920    0.00000    0.05620    0.00000  # c,c1,c_1,o_1
dihedral_coeff	12    1.83410    0.00000    2.06030    0.00000   -0.01950    0.00000  # c,c1,c_1,o_2
dihedral_coeff	13   -2.55940    0.00000    2.20130    0.00000    0.03250    0.00000  # c,c_1,o_2,c
dihedral_coeff	14   -2.55940    0.00000    2.20130    0.00000    0.03250    0.00000  # c,o_2,c_1,c1
dihedral_coeff	15    0.00000    0.00000    2.20890    0.00000    0.00000    0.00000  # c,o_2,c_1,o_1
dihedral_coeff	16    0.09720    0.00000    0.07220    0.00000   -0.25810    0.00000  # c1,c,c,c_1
dihedral_coeff	17   -0.02280    0.00000    0.02800    0.00000   -0.18630    0.00000  # c_1,c,c,hc
dihedral_coeff	18   -0.02280    0.00000    0.02800    0.00000   -0.18630    0.00000  # c_1,c1,c,hc
dihedral_coeff	19    0.00000    0.00000    0.00000    0.00000   -0.19320    0.00000  # c_1,o_2,c,hc
dihedral_coeff	20   -0.14320    0.00000    0.06170    0.00000   -0.10830    0.00000  # hc,c,c1,hc
dihedral_coeff	21   -0.18040    0.00000    0.00120    0.00000    0.03710    0.00000  # hc,c1,c_1,o_1
dihedral_coeff	22   -0.63590    0.00000    1.48070    0.00000   -0.04380    0.00000  # hc,c1,c_1,o_2

# MiddleBondTorsion Coeffs

dihedral_coeff	 1 mbt  -17.78700   -7.18770    0.00000    1.53000  # c,c,c,c
dihedral_coeff	 2 mbt  -17.78700   -7.18770    0.00000    1.53000  # c,c,c,c1
dihedral_coeff	 3 mbt   -1.59450    0.22670   -0.69110    1.53000  # c,c,c,c_1
dihedral_coeff	 4 mbt  -14.87900   -3.65810   -0.31380    1.53000  # c,c,c,hc
dihedral_coeff	 5 mbt  -17.78700   -7.18770    0.00000    1.53000  # c,c,c1,c
dihedral_coeff	 6 mbt   -1.59450    0.22670   -0.69110    1.53000  # c,c,c1,c_1
dihedral_coeff	 7 mbt  -14.87900   -3.65810   -0.31380    1.53000  # c,c,c1,hc
dihedral_coeff	 8 mbt    0.33880   -0.10960    0.12190    1.52020  # c,c,c_1,o_1
dihedral_coeff	 9 mbt  -17.32800   -5.79000   -3.21140    1.52020  # c,c,c_1,o_2
dihedral_coeff	10 mbt  -14.87900   -3.65810   -0.31380    1.53000  # c,c1,c,hc
dihedral_coeff	11 mbt    0.33880   -0.10960    0.12190    1.52020  # c,c1,c_1,o_1
dihedral_coeff	12 mbt  -17.32800   -5.79000   -3.21140    1.52020  # c,c1,c_1,o_2
dihedral_coeff	13 mbt    1.34450    3.55150   -4.92020    1.36830  # c,c_1,o_2,c
dihedral_coeff	14 mbt    1.34450    3.55150   -4.92020    1.36830  # c,o_2,c_1,c1
dihedral_coeff	15 mbt    4.26000    0.00000    0.00000    1.36830  # c,o_2,c_1,o_1
dihedral_coeff	16 mbt   -1.59450    0.22670   -0.69110    1.53000  # c1,c,c,c_1
dihedral_coeff	17 mbt   -3.50390    1.24580   -0.76100    1.53000  # c_1,c,c,hc
dihedral_coeff	18 mbt   -3.50390    1.24580   -0.76100    1.53000  # c_1,c1,c,hc
dihedral_coeff	19 mbt    0.00000    0.00000    0.00000    1.43000  # c_1,o_2,c,hc
dihedral_coeff	20 mbt  -14.26100   -0.53220   -0.48640    1.53000  # hc,c,c1,hc
dihedral_coeff	21 mbt    0.23590    0.91390    0.95940    1.52020  # hc,c1,c_1,o_1
dihedral_coeff	22 mbt  -13.76860   -2.59590    1.19340    1.52020  # hc,c1,c_1,o_2

# EndBondTorsion Coeffs

dihedral_coeff	 1 ebt   -0.07320    0.00000    0.00000   -0.07320    0.00000    0.00000    1.53000    1.53000  # c,c,c,c
dihedral_coeff	 2 ebt   -0.07320    0.00000    0.00000   -0.07320    0.00000    0.00000    1.53000    1.53000  # c,c,c,c1
dihedral_coeff	 3 ebt    0.00620   -0.00020    0.00360    0.00550    0.00600   -0.00090    1.53000    1.52020  # c,c,c,c_1
dihedral_coeff	 4 ebt    0.24860    0.24220   -0.09250    0.08140    0.05910    0.22190    1.53000    1.10100  # c,c,c,hc
dihedral_coeff	 5 ebt   -0.07320    0.00000    0.00000   -0.07320    0.00000    0.00000    1.53000    1.53000  # c,c,c1,c
dihedral_coeff	 6 ebt    0.00620   -0.00020    0.00360    0.00550    0.00600   -0.00090    1.53000    1.52020  # c,c,c1,c_1
dihedral_coeff	 7 ebt    0.24860    0.24220   -0.09250    0.08140    0.05910    0.22190    1.53000    1.10100  # c,c,c1,hc
dihedral_coeff	 8 ebt    0.26540    0.05030    0.10460   -0.28100    0.08160   -0.15220    1.53000    1.20200  # c,c,c_1,o_1
dihedral_coeff	 9 ebt    0.00000    0.00000    0.00000    0.00000    0.00000    0.00000    1.53000    1.36830  # c,c,c_1,o_2
dihedral_coeff	10 ebt    0.24860    0.24220   -0.09250    0.08140    0.05910    0.22190    1.53000    1.10100  # c,c1,c,hc
dihedral_coeff	11 ebt    0.26540    0.05030    0.10460   -0.28100    0.08160   -0.15220    1.53000    1.20200  # c,c1,c_1,o_1
dihedral_coeff	12 ebt    0.00000    0.00000    0.00000    0.00000    0.00000    0.00000    1.53000    1.36830  # c,c1,c_1,o_2
dihedral_coeff	13 ebt    0.00000    0.00000    0.00000    0.00000    0.00000    0.00000    1.52020    1.43000  # c,c_1,o_2,c
dihedral_coeff	14 ebt    0.00000    0.00000    0.00000    0.00000    0.00000    0.00000    1.43000    1.52020  # c,o_2,c_1,c1
dihedral_coeff	15 ebt    0.00000    0.00000    0.00000    0.00000    0.00000    0.00000    1.43000    1.20200  # c,o_2,c_1,o_1
dihedral_coeff	16 ebt    0.00620   -0.00020    0.00360    0.00550    0.00600   -0.00090    1.53000    1.52020  # c1,c,c,c_1
dihedral_coeff	17 ebt   -0.02040    0.36280   -0.44260   -0.00970   -0.03150   -0.07550    1.52020    1.10100  # c_1,c,c,hc
dihedral_coeff	18 ebt   -0.02040    0.36280   -0.44260   -0.00970   -0.03150   -0.07550    1.52020    1.10100  # c_1,c1,c,hc
dihedral_coeff	19 ebt    0.00000    0.00000    0.00000    0.00000    0.00000    0.00000    1.36830    1.10100  # c_1,o_2,c,hc
dihedral_coeff	20 ebt    0.21300    0.31200    0.07770    0.21300    0.31200    0.07770    1.10100    1.10100  # hc,c,c1,hc
dihedral_coeff	21 ebt    1.21430    0.28310    0.39160   -0.22980    0.03540    0.38530    1.10100    1.20200  # hc,c1,c_1,o_1
dihedral_coeff	22 ebt    0.00000    0.00000    0.00000    0.00000    0.00000    0.00000    1.10100    1.36830  # hc,c1,c_1,o_2

# AngleTorsion Coeffs

dihedral_coeff	 1 at    0.38860   -0.31390    0.13890    0.38860   -0.31390    0.13890  112.67000  112.67000  # c,c,c,c
dihedral_coeff	 2 at    0.38860   -0.31390    0.13890    0.38860   -0.31390    0.13890  112.67000  112.67000  # c,c,c,c1
dihedral_coeff	 3 at   -0.26070    0.32030   -0.22830    0.05150   -0.06740   -0.04740  112.67000  108.52950  # c,c,c,c_1
dihedral_coeff	 4 at   -0.24540    0.00000   -0.11360    0.31130    0.45160   -0.19880  112.67000  110.77000  # c,c,c,hc
dihedral_coeff	 5 at    0.38860   -0.31390    0.13890    0.38860   -0.31390    0.13890  112.67000  112.67000  # c,c,c1,c
dihedral_coeff	 6 at   -0.26070    0.32030   -0.22830    0.05150   -0.06740   -0.04740  112.67000  108.52950  # c,c,c1,c_1
dihedral_coeff	 7 at   -0.24540    0.00000   -0.11360    0.31130    0.45160   -0.19880  112.67000  110.77000  # c,c,c1,hc
dihedral_coeff	 8 at    0.08850   -1.37030   -0.54520    0.67500    0.59650    0.67250  108.52950  123.14510  # c,c,c_1,o_1
dihedral_coeff	 9 at    0.00000    0.00000    0.00000    0.00000    0.00000    0.00000  108.52950  100.31820  # c,c,c_1,o_2
dihedral_coeff	10 at   -0.24540    0.00000   -0.11360    0.31130    0.45160   -0.19880  112.67000  110.77000  # c,c1,c,hc
dihedral_coeff	11 at    0.08850   -1.37030   -0.54520    0.67500    0.59650    0.67250  108.52950  123.14510  # c,c1,c_1,o_1
dihedral_coeff	12 at    0.00000    0.00000    0.00000    0.00000    0.00000    0.00000  108.52950  100.31820  # c,c1,c_1,o_2
dihedral_coeff	13 at    0.00000    0.00000    0.00000    0.00000    0.00000    0.00000  100.31820  113.28800  # c,c_1,o_2,c
dihedral_coeff	14 at    0.00000    0.00000    0.00000    0.00000    0.00000    0.00000  113.28800  100.31820  # c,o_2,c_1,c1
dihedral_coeff	15 at    0.00000    0.00000    0.00000    0.00000    0.00000    0.00000  113.28800  120.79700  # c,o_2,c_1,o_1
dihedral_coeff	16 at   -0.26070    0.32030   -0.22830    0.05150   -0.06740   -0.04740  112.67000  108.52950  # c1,c,c,c_1
dihedral_coeff	17 at   -0.74660   -0.94480   -0.63210    0.01620    1.42110   -1.40920  108.52950  110.77000  # c_1,c,c,hc
dihedral_coeff	18 at   -0.74660   -0.94480   -0.63210    0.01620    1.42110   -1.40920  108.52950  110.77000  # c_1,c1,c,hc
dihedral_coeff	19 at    0.00000    0.00000    0.00000    0.00000    0.00000    0.00000  113.28800  107.68800  # c_1,o_2,c,hc
dihedral_coeff	20 at   -0.80850    0.55690   -0.24660   -0.80850    0.55690   -0.24660  110.77000  110.77000  # hc,c,c1,hc
dihedral_coeff	21 at    9.12990   -0.48470    0.35820   -1.49460    0.73080   -0.20830  107.73360  123.14510  # hc,c1,c_1,o_1
dihedral_coeff	22 at    0.00000    0.00000    0.00000    0.00000    0.00000    0.00000  107.73360  100.31820  # hc,c1,c_1,o_2

# AngleAngleTorsion Coeffs

dihedral_coeff	 1 aat  -22.04500  112.67000  112.67000  # c,c,c,c
dihedral_coeff	 2 aat  -22.04500  112.67000  112.67000  # c,c,c,c1
dihedral_coeff	 3 aat   -0.38010  112.67000  108.52950  # c,c,c,c_1
dihedral_coeff	 4 aat  -16.16400  112.67000  110.77000  # c,c,c,hc
dihedral_coeff	 5 aat  -22.04500  112.67000  112.67000  # c,c,c1,c
dihedral_coeff	 6 aat   -0.38010  112.67000  108.52950  # c,c,c1,c_1
dihedral_coeff	 7 aat  -16.16400  112.67000  110.77000  # c,c,c1,hc
dihedral_coeff	 8 aat   -8.01900  108.52950  123.14510  # c,c,c_1,o_1
dihedral_coeff	 9 aat    0.00000  108.52950  100.31820  # c,c,c_1,o_2
dihedral_coeff	10 aat  -16.16400  112.67000  110.77000  # c,c1,c,hc
dihedral_coeff	11 aat   -8.01900  108.52950  123.14510  # c,c1,c_1,o_1
dihedral_coeff	12 aat    0.00000  108.52950  100.31820  # c,c1,c_1,o_2
dihedral_coeff	13 aat    0.00000  100.31820  113.28800  # c,c_1,o_2,c
dihedral_coeff	14 aat    0.00000  113.28800  100.31820  # c,o_2,c_1,c1
dihedral_coeff	15 aat    0.00000  113.28800  120.79700  # c,o_2,c_1,o_1
dihedral_coeff	16 aat   -0.38010  112.67000  108.52950  # c1,c,c,c_1
dihedral_coeff	17 aat   -5.36240  108.52950  110.77000  # c_1,c,c,hc
dihedral_coeff	18 aat   -5.36240  108.52950  110.77000  # c_1,c1,c,hc
dihedral_coeff	19 aat    0.00000  113.28800  107.68800  # c_1,o_2,c,hc
dihedral_coeff	20 aat  -12.56400  110.77000  110.77000  # hc,c,c1,hc
dihedral_coeff	21 aat  -15.34960  107.73360  123.14510  # hc,c1,c_1,o_1
dihedral_coeff	22 aat    0.00000  107.73360  100.31820  # hc,c1,c_1,o_2

# BondBond13 Coeffs

dihedral_coeff	 1 bb13    0.00000    1.53000    1.53000  # c,c,c,c
dihedral_coeff	 2 bb13    0.00000    1.53000    1.53000  # c,c,c,c1
dihedral_coeff	 3 bb13    0.00000    1.53000    1.52020  # c,c,c,c_1
dihedral_coeff	 4 bb13    0.00000    1.53000    1.10100  # c,c,c,hc
dihedral_coeff	 5 bb13    0.00000    1.53000    1.53000  # c,c,c1,c
dihedral_coeff	 6 bb13    0.00000    1.53000    1.52020  # c,c,c1,c_1
dihedral_coeff	 7 bb13    0.00000    1.53000    1.10100  # c,c,c1,hc
dihedral_coeff	 8 bb13    0.00000    1.53000    1.20200  # c,c,c_1,o_1
dihedral_coeff	 9 bb13    0.00000    1.53000    1.36830  # c,c,c_1,o_2
dihedral_coeff	10 bb13    0.00000    1.53000    1.10100  # c,c1,c,hc
dihedral_coeff	11 bb13    0.00000    1.53000    1.20200  # c,c1,c_1,o_1
dihedral_coeff	12 bb13    0.00000    1.53000    1.36830  # c,c1,c_1,o_2
dihedral_coeff	13 bb13    0.00000    1.52020    1.43000  # c,c_1,o_2,c
dihedral_coeff	14 bb13    0.00000    1.43000    1.52020  # c,o_2,c_1,c1
dihedral_coeff	15 bb13    0.00000    1.43000    1.20200  # c,o_2,c_1,o_1
dihedral_coeff	16 bb13    0.00000    1.53000    1.52020  # c1,c,c,c_1
dihedral_coeff	17 bb13    0.00000    1.52020    1.10100  # c_1,c,c,hc
dihedral_coeff	18 bb13    0.00000    1.52020    1.10100  # c_1,c1,c,hc
dihedral_coeff	19 bb13    0.00000    1.36830    1.10100  # c_1,o_2,c,hc
dihedral_coeff	20 bb13    0.00000    1.10100    1.10100  # hc,c,c1,hc
dihedral_coeff	21 bb13    0.00000    1.10100    1.20200  # hc,c1,c_1,o_1
dihedral_coeff	22 bb13    0.00000    1.10100    1.36830  # hc,c1,c_1,o_2

# Improper Coeffs

improper_coeff	 1    0.00000    0.00000  # c,c,c,c
improper_coeff	 2    0.00000    0.00000  # c,c,c,c_1
improper_coeff	 3    0.00000    0.00000  # c,c,c,hc
improper_coeff	 4    0.00000    0.00000  # c,c,c1,hc
improper_coeff	 5    0.00000    0.00000  # c,c,hc,hc
improper_coeff	 6    0.00000    0.00000  # c,c1,hc,hc
improper_coeff	 7    0.00000    0.00000  # c,hc,hc,hc
improper_coeff	 8    0.00000    0.00000  # c,hc,hc,o_2
improper_coeff	 9    0.00000    0.00000  # c1,c,c,c_1
improper_coeff	10    0.00000    0.00000  # c1,c,c,hc
improper_coeff	11    0.00000    0.00000  # c1,c,c_1,hc
improper_coeff	12    0.00000    0.00000  # c1,c,hc,c_1
improper_coeff	13   46.92640    0.00000  # c_1,c,o_2,o_1
improper_coeff	14   46.92640    0.00000  # c_1,c1,o_2,o_1

# AngleAngle Coeffs

improper_coeff	 1 aa   -0.17290   -0.17290   -0.17290  112.67000  112.67000  112.67000  # c,c,c,c
improper_coeff	 2 aa    0.00000    0.00000    0.00000  112.67000  108.52950  108.52950  # c,c,c,c_1
improper_coeff	 3 aa   -1.31990   -1.31990    0.11840  112.67000  110.77000  110.77000  # c,c,c,hc
improper_coeff	 4 aa   -1.31990   -1.31990    0.11840  112.67000  110.77000  110.77000  # c,c,c1,hc
improper_coeff	 5 aa    0.27380   -0.48250    0.27380  110.77000  110.77000  107.66000  # c,c,hc,hc
improper_coeff	 6 aa    0.27380   -0.48250    0.27380  110.77000  110.77000  107.66000  # c,c1,hc,hc
improper_coeff	 7 aa   -0.31570   -0.31570   -0.31570  107.66000  107.66000  107.66000  # c,hc,hc,hc
improper_coeff	 8 aa    0.00000    0.00000    0.00000  107.66000  107.68800  107.68800  # c,hc,hc,o_2
improper_coeff	 9 aa    0.00000    0.00000    0.00000  112.67000  108.52950  108.52950  # c1,c,c,c_1
improper_coeff	10 aa   -1.31990   -1.31990    0.11840  112.67000  110.77000  110.77000  # c1,c,c,hc
improper_coeff	11 aa    2.04030   -1.82020    1.08270  108.52950  110.77000  107.73360  # c1,c,c_1,hc
improper_coeff	12 aa    1.08270   -1.82020    2.04030  110.77000  108.52950  107.73360  # c1,c,hc,c_1
improper_coeff	13 aa    0.00000    0.00000    0.00000  100.31820  123.14510  120.79700  # c_1,c,o_2,o_1
improper_coeff	14 aa    0.00000    0.00000    0.00000  100.31820  123.14510  120.79700  # c_1,c1,o_2,o_1


# --- Thermo Output ---
thermo_style custom step time temp press enthalpy etotal ke pe ebond eangle edihed eimp evdwl ecoul elong etail vol lx ly lz density pxx pyy pzz
thermo_modify flush yes
thermo 500

# --- Velocity initialization at T_START (once only — Rule A) ---
velocity all create 600.0 299661 mom yes rot yes dist gaussian

# --- Temperature staircase (inherits momenta across steps — Rule A) ---
variable temps index 600 580 560 540 520 500 480 460 440 420 400 380 360 340 320 300 280 260 240 220 200 180 160 150
label TEMP_LOOP
  timestep 1
  fix npt_tg all npt temp ${temps} ${temps} 100 iso 1.0 1.0 1000.0
  fix npt_tg all npt temp 600 ${temps} 100 iso 1.0 1.0 1000.0
  fix npt_tg all npt temp 600 600 100 iso 1.0 1.0 1000.0
  run 125000
PPPM Kokkos initialization ...
  using 12-bit tables for long-range coulomb
  G vector (1/distance) = 0.33295103
  grid = 45 45 45
  stencil order = 5
  estimated absolute RMS force accuracy = 0.0002897638
  estimated relative force accuracy = 8.7261508e-07
  using double precision cuFFT
  3d grid and FFT values/proc = 140608 91125
Generated 15 of 15 mixed pair_coeff terms from sixthpower/sixthpower mixing rule
Neighbor list info ...
  update: every = 1 steps, delay = 0 steps, check = yes
  max neighbors/atom: 4000, page size: 100000
  master list distance cutoff = 11.5
  ghost atom cutoff = 11.5
  binsize = 11.5, bins = 4 4 4
  1 neighbor lists, perpetual/occasional/extra = 1 0 0
  (1) pair lj/class2/coul/long/kk, perpetual
      attributes: full, newton off, kokkos_device
      pair build: full/bin/kk/device
      stencil: full/bin/3d
      bin: kk/device
Per MPI rank memory allocation (min/avg/max) = 62.52 | 62.52 | 62.52 Mbytes
   Step          Time           Temp          Press         Enthalpy        TotEng         KinEng         PotEng         E_bond        E_angle        E_dihed        E_impro         E_vdwl         E_coul         E_long         E_tail         Volume           Lx             Ly             Lz          Density          Pxx            Pyy            Pzz      
         0   0              600            4870.4607      39251.425      33981.592      13447.626      20533.966      3744.2103      6612.6337     -1909.1589      210.00597     -384.13004      43036.374     -30775.969     -529.02993      74190.942      42.019443      42.019443      42.019443      1.1208734      3940.9261      5224.0146      5446.4414    
       500   500            572.24205      136.72888      40277.307      40124.452      12825.496      27298.956      6551.573       9311.0468     -1586.0324      312.46696      453.06715      43018.814     -30761.979     -512.02139      76655.448      42.479658      42.479658      42.479658      1.0848368      2591.3846     -1985.2563     -195.94162    
      1000   1000           590.42085     -108.74081      40756.051      40880.498      13232.932      27647.566      6661.564       9362.3691     -1532.1163      362.14015      495.17533      43041.341     -30742.908     -500.16779      78472.125      42.81262       42.81262       42.81262       1.0597222      844.35983      249.03496     -1419.6172    
      1500   1500           595.15956      22.120415      41455.061      41429.748      13339.139      28090.609      6796.6885      9513.5861     -1499.7571      333.40598      664.13933      43024.93      -30742.384     -500.20634      78466.078      42.81152       42.81152       42.81152       1.0598038      1005.1941     -103.0869      -835.74598    
      2000   2000           606.61441      651.65446      42266.88       41525.975      13595.873      27930.102      6765.6623      9586.2706     -1587.6587      333.85289      577.70358      43007.289     -30753.018     -503.45692      77959.458      42.719183      42.719183      42.719183      1.066691       1969.5925     -979.17184      964.54276    
      2500   2500           603.98848     -1019.0689      40018.96       41180.067      13537.019      27643.048      6575.8789      9556.0201     -1605.0924      356.10988      501.4005       43005.618     -30746.888     -502.38701      78125.486      42.749487      42.749487      42.749487      1.0644241     -1034.7244     -761.51097     -1260.9713    
      3000   3000           597.4153       1022.0604      42365.718      41187.207      13389.696      27797.511      6607.5951      9447.2325     -1498.7334      354.61789      577.33179      43057.411     -30747.944     -496.42085      79064.425      42.920065      42.920065      42.920065      1.0517834     -389.38266      1143.409       2312.1547    
      3500   3500           588.69246     -733.77724      40266.222      41107.642      13194.194      27913.448      6881.0369      9424.5823     -1500.7597      312.88198      523.98882      43019.607     -30747.889     -499.18174      78627.134      42.840791      42.840791      42.840791      1.057633      -5.2682695      14.37434      -2210.4378    
      4000   4000           590.40957     -415.79867      40670.692      41148.745      13232.679      27916.067      6630.3944      9675.5951     -1571.5287      357.65769      543.95166      43028.593     -30748.597     -497.86696      78834.774      42.87847       42.87847       42.87847       1.0548473      1291.9456     -1475.3172     -1064.0245    
      4500   4500           595.64732     -726.68962      40587.17       41426.994      13350.071      28076.923      6774.9884      9684.2696     -1494.1234      343.44558      515.67679      43002.497     -30749.831     -495.299        79243.506      42.952445      42.952445      42.952445      1.0494065      460.6276      -1559.5225     -1081.174     
      5000   5000           610.65814      640.69566      42090.595      41359.081      13686.504      27672.577      6602.2088      9415.0495     -1529.0637      361.53399      571.11263      43011.239     -30759.503     -501.34449      78287.944      42.779099      42.779099      42.779099      1.0622153      2035.7231     -1060.502       946.86589    
      5500   5500           601.22799      662.35565      41836.009      41078.421      13475.149      27603.272      6391.8558      9392.9563     -1443.0157      367.08852      588.53883      43039.638     -30733.79      -500.45524      78427.052      42.804421      42.804421      42.804421      1.0603312     -650.19615      1174.1937      1463.0694    
      6000   6000           597.54459     -831.99341      40199.241      41164.297      13392.594      27771.703      6616.082       9462.2535     -1466.5542      386.11558      482.41872      43040.942     -30749.555     -493.48558      79534.703      43.004994      43.004994      43.004994      1.0455644     -231.97778     -1470.4526     -793.54988    
      6500   6500           597.54979      1408.3746      42724.515      41111.084      13392.711      27718.374      6562.4326      9371.6828     -1442.2465      344.5144       594.75764      43039.542     -30752.31      -499.66031      78551.825      42.827109      42.827109      42.827109      1.058647       2432.8311      1292.6041      499.68857    
      7000   7000           601.69157      789.04842      42161.09       41259.095      13485.539      27773.556      6555.9451      9442.7819     -1455.6486      359.6138       573.92973      43044.427     -30747.493     -500.73349      78383.471      42.796491      42.796491      42.796491      1.0609207     -46.917239      2189.6416      224.42088    
      7500   7500           602.90991     -1343.1334      40046.265      41609.588      13512.845      28096.743      6860.7772      9523.9052     -1476.2656      359.92257      567.30348      43014.143     -30753.043     -491.7875       79809.327      43.054434      43.054434      43.054434      1.0419666     -2272.0606     -1004.6992     -752.64029    
      8000   8000           613.02488      1142.6725      42978.669      41657.74       13739.549      27918.19       6586.3075      9639.4774     -1508.6781      342.10905      581.20233      43029.889     -30752.117     -495.16425      79265.071      42.956341      42.956341      42.956341      1.049121       271.0368       1101.2766      2055.704     
      8500   8500           604.24433      675.76391      42014.432      41236.16       13542.753      27693.407      6414.8052      9477.7267     -1456.6205      367.37547      579.40451      43053.12      -30742.404     -497.01654      78969.664      42.902911      42.902911      42.902911      1.0530455     -40.729511      1027.9976      1040.0236    
      9000   9000           594.32083     -323.7685       40672.23       41048.043      13320.341      27727.702      6611.9326      9344.3964     -1459.5552      399.33214      524.95539      43049.895     -30743.254     -493.13924      79590.563      43.015059      43.015059      43.015059      1.0448305     -460.63485      523.10184     -1033.7725    
      9500   9500           594.56837     -853.06074      40123.983      41111.19       13325.889      27785.301      6650.6755      9519.4564     -1534.0584      367.02657      482.51312      43044.402     -30744.714     -494.62803      79351          42.971858      42.971858      42.971858      1.0479849      1250.375      -2412.194      -1397.3633    
     10000   10000          603.21136      1920.3678      43653.532      41453.762      13519.602      27934.16       6599.0153      9537.3462     -1517.6665      359.69081      649.08532      43059.988     -30753.299     -499.70563      78544.701      42.825814      42.825814      42.825814      1.058743       2534.291       210.39338      3016.419     
     10500   10500          602.96019      881.90054      42331.581      41306.011      13513.972      27792.039      6547.7349      9445.0566     -1466.0607      377.97767      551.1477       43074.798     -30738.615     -492.22277      79738.752      43.041739      43.041739      43.041739      1.0428888      562.32952      797.31428      1286.0578    
     11000   11000          597.85892      452.87464      41773.182      41252.696      13399.639      27853.057      6671.2993      9329.7424     -1502.9648      373.53073      687.80617      43045.678     -30752.034     -498.05361      78805.23       42.873113      42.873113      42.873113      1.0552428     -640.54485      1111.9706      887.1982     
     11500   11500          603.10382      178.74501      41349.39       41143.286      13517.192      27626.095      6555.6817      9357.8436     -1551.0522      347.51017      601.80854      43060.602     -30746.299     -496.42663      79063.505      42.919899      42.919899      42.919899      1.0517956      311.625        638.43676     -413.82673    
     12000   12000          596.45032      698.68535      41923.803      41111.856      13368.068      27743.788      6724.36        9420.2075     -1551.0688      335.45026      526.16723      43032.622     -30743.951     -492.56223      79683.798      43.031849      43.031849      43.031849      1.043608       628.55629      1058.6486      408.85119    
     12500   12500          587.62798      577.35897      41671.441      41007.061      13170.336      27836.725      6469.4889      9566.9267     -1519.9666      353.6785       666.94282      43044.666     -30745.011     -497.43516      78903.206      42.890873      42.890873      42.890873      1.0539325      1470.2008      1186.863      -924.98688    
     13000   13000          598.32972      623.6586       42025.243      41307.43       13410.191      27897.239      6574.8794      9458.8008     -1434.0816      372.18556      626.74394      43043.7       -30744.989     -497.32768      78920.259      42.893962      42.893962      42.893962      1.0537047      1069.5701      387.26019      414.14548    
     13500   13500          598.29061     -358.17815      40820.311      41234.597      13409.314      27825.283      6720.301       9412.927      -1490.7973      350.39274      569.44413      43026.333     -30763.317     -494.88639      79309.576      42.964379      42.964379      42.964379      1.0485323      107.94622      564.80531     -1747.286     
     14000   14000          602.72446      931.42053      42359.157      41291.838      13508.689      27783.149      6505.0057      9559.6753     -1485.3497      356.54731      553.91004      43051.58      -30758.219     -499.52659      78572.852      42.83093       42.83093       42.83093       1.0583636      2972.962       503.89726     -682.59765    
     14500   14500          597.05265     -502.62001      40850.206      41426.072      13381.568      28044.503      6682.403       9524.3923     -1459.248       361.9435       675.89734      43017.334     -30758.219     -499.60381      78560.708      42.828723      42.828723      42.828723      1.0585273     -781.21523     -2077.9818      1351.337     
     15000   15000          599.78355      1473.0125      43144.719      41446.988      13442.775      28004.213      6735.2282      9460.4563     -1425.4404      328.34233      639.91112      43028.798     -30763.082     -496.64336      79029.003      42.913654      42.913654      42.913654      1.0522548      1374.4878      948.69657      2095.8532    
     15500   15500          595.53334     -1418.6244      39702.089      41354.507      13347.517      28006.991      6802.5128      9457.7386     -1449.3819      348.38055      576.632        43033.681     -30762.573     -491.4219       79868.703      43.065108      43.065108      43.065108      1.041192      -637.55164     -1738.7012     -1879.6204    
     16000   16000          599.46531     -289.29228      40788.453      41120.695      13435.643      27685.053      6564.9639      9489.6483     -1489.8148      344.50683      495.37047      43032.941     -30752.563     -498.41326      78748.365      42.862798      42.862798      42.862798      1.0560048     -2350.0849      743.30698      738.90111    
     16500   16500          596.7675       2599.2731      44039.088      41066.036      13375.177      27690.859      6508.2627      9406.1662     -1469.8315      344.77461      582.50558      43061.268     -30742.287     -500.44504      78428.65       42.804712      42.804712      42.804712      1.0603096      1133.8455      3826.2495      2837.7242    
     17000   17000          594.41341     -519.82164      40718.548      41317.088      13322.416      27994.672      6794.1657      9509.0783     -1473.5595      356.97108      524.35278      43022.741     -30739.077     -497.12798      78951.961      42.899705      42.899705      42.899705      1.0532816     -1835.4575      667.71615     -391.72351    
     17500   17500          601.12408     -1362.5989      39673.474      41234.29       13472.82       27761.47       6552.2832      9463.0819     -1505.2908      383.1219       608.7943       43009.573     -30750.094     -499.71615      78543.048      42.825514      42.825514      42.825514      1.0587653     -1204.7568     -2848.1216     -34.91813     
     18000   18000          599.36728      1462.4573      42783.53       41105.912      13433.445      27672.466      6522.153       9442.6373     -1511.9575      332.07587      572.70885      43060.862     -30746.013     -498.9961       78656.385      42.846103      42.846103      42.846103      1.0572397      2795.97        621.30958      970.09224    
     18500   18500          590.89237      839.18054      42244.542      41267.793      13243.5        28024.293      6731.9857      9576.1858     -1512.0636      328.37466      596.34929      43055.571     -30752.11      -491.78998      79808.923      43.054361      43.054361      43.054361      1.0419718     -1.8025866      2806.6344     -287.2902     
     19000   19000          594.47104      528.94086      41884.66       41277.781      13323.707      27954.074      6669.6281      9613.9949     -1473.3047      362.00135      492.71529      43044.39      -30755.351     -498.89847      78671.777      42.848898      42.848898      42.848898      1.0570328     -49.878534      589.40044      1047.3007    
     19500   19500          607.77293     -410.91603      41059.018      41528.718      13621.839      27906.879      6707.6333      9535.8234     -1434.6744      355.14224      437.65968      43043.521     -30738.226     -500.77076      78377.637      42.79543       42.79543       42.79543       1.0609997      625.52005     -264.00414     -1594.264     
     20000   20000          603.68749     -46.511354      41591.941      41646.001      13530.273      28115.728      6719.0086      9610.2548     -1489.038       398.3886       571.09438      43048.479     -30742.459     -492.47966      79697.158      43.034254      43.034254      43.034254      1.0434331      898.61397      185.06523     -1223.2133    
     20500   20500          597.05181      0.7309519      41263.948      41263.108      13381.55       27881.558      6595.5003      9480.7542     -1490.0211      363.33931      622.0466       43052.849     -30742.91      -498.39346      78751.494      42.863365      42.863365      42.863365      1.0559628     -1300.7928     -1081.0393      2384.0249    
     21000   21000          596.49031      1299.7269      42632.621      41141.559      13368.965      27772.595      6591.7574      9496.7196     -1509.3915      361.15249      531.20798      43042.82      -30741.672     -498.95731      78662.499      42.847213      42.847213      42.847213      1.0571575      955.64156      481.83205      2461.7071    
     21500   21500          590.85824     -343.6162       40628.224      41025.35       13242.735      27782.616      6659.8747      9425.9318     -1502.3814      341.38272      553.14438      43053.031     -30748.368     -495.28064      79246.443      42.952976      42.952976      42.952976      1.0493676     -1209.7834     -1066.7183      1245.6531    
     22000   22000          590.06768     -185.9294       40833.351      41046.393      13225.016      27821.377      6629.4135      9570.5975     -1530.6688      342.65519      518.31611      43037.995     -30746.931     -499.5628       78567.158      42.829896      42.829896      42.829896      1.0584404      2320.096       637.8472      -3515.7314    
     22500   22500          611.10671     -1244.3732      40095.703      41513.347      13696.558      27816.789      6640.7581      9491.7084     -1431.3353      350.00994      470.73696      43041.714     -30746.803     -502.44706      78116.149      42.747784      42.747784      42.747784      1.0645513     -1034.1054     -1698.7457     -1000.2683    
     23000   23000          604.87196      1560.8217      43061.658      41281.066      13556.82       27724.246      6604.216       9512.4671     -1555.9325      364.70235      485.10742      43053.332     -30739.647     -501.75987      78223.133      42.76729       42.76729       42.76729       1.0630954      453.06409      1330.1975      2899.2034    
     23500   23500          600.66302     -288.68197      40860.243      41192.904      13462.487      27730.417      6784.035       9295.4334     -1481.7264      380.5593       449.5859       43041.627     -30739.097     -496.73572      79014.308      42.910995      42.910995      42.910995      1.0524505      715.75303     -1574.7685     -7.0304592    
     24000   24000          592.1737       2001.5838      43304.317      41029.593      13272.218      27757.375      6620.7995      9338.1222     -1470.4448      345.53551      594.29492      43074.813     -30745.745     -503.67678      77925.429      42.712966      42.712966      42.712966      1.0671568      3599.3613      937.64867      1467.7415    
     24500   24500          603.37267      632.84034      42054.99       41335.209      13523.217      27811.992      6590.6702      9499.6122     -1466.4192      361.80759      525.77946      43040.223     -30739.682     -503.26996      77988.421      42.724472      42.724472      42.724472      1.0662948      2450.9989     -1062.7461      510.26823    
     25000   25000          611.47137     -774.99018      40636.365      41534.261      13704.731      27829.53       6703.3865      9449.5961     -1508.9792      327.97932      586.59169      43021.202     -30750.246     -494.05708      79442.702      42.988405      42.988405      42.988405      1.0467752     -256.20015     -586.72637     -1482.044     
     25500   25500          598.7779       446.90503      41835.204      41319.475      13420.236      27899.24       6774.3903      9463.925      -1495.3421      343.31401      521.05204      43033.688     -30741.787     -496.02193      79128.012      42.931568      42.931568      42.931568      1.0509382      2371.578       1144.963      -2175.826     
     26000   26000          609.20093      847.00957      42288.91       41311.518      13653.844      27657.674      6684.3617      9240.2971     -1503.6873      318.66614      592.63359      43067.96      -30742.557     -496.05112      79123.355      42.930726      42.930726      42.930726      1.0510001      2073.6235      85.928735      381.47649    
     26500   26500          595.63958      105.44334      41271.8        41150.358      13349.898      27800.46       6512.9599      9556.8098     -1541.9177      362.08094      622.92241      43047.772     -30760.167     -496.99955      78972.364      42.9034        42.9034        42.9034        1.0530095     -1949.0634      1060.0957      1205.2977    
     27000   27000          600.48903     -1788.6991      39215.733      41263.72       13458.587      27805.133      6785.567       9398.7335     -1472.2255      336.40756      480.68231      43018.329     -30742.361     -499.93925      78507.997      42.819143      42.819143      42.819143      1.059238      -243.53498     -3799.5261     -1323.0362    
     27500   27500          599.06133      631.01906      42191.701      41463.441      13426.588      28036.853      6629.6247      9647.2587     -1445.2091      329.39863      570.08246      43048.268     -30742.571     -495.97891      79134.876      42.932809      42.932809      42.932809      1.050847       966.47932     -440.11831      1366.6962    
     28000   28000          594.57555      87.181987      41302.112      41201.502      13326.05       27875.452      6558.3343      9615.8337     -1522.1462      344.4648       569.10315      43052.564     -30742.702     -496.01114      79129.733      42.931879      42.931879      42.931879      1.0509153     -353.30048      64.202584      550.64386    
     28500   28500          596.58887     -17.54241       41046.174      41066.278      13371.174      27695.104      6599.1273      9387.3684     -1496.5288      355.01189      538.45766      43047.839     -30736.171     -499.48268      78579.761      42.832185      42.832185      42.832185      1.0582706     -13.290128      181.02029     -220.35739    
     29000   29000          590.04443      622.56115      41667.586      40958.227      13224.495      27733.731      6565.419       9412.8814     -1473.1097      342.57407      547.72111      43075.71      -30737.465     -502.36876      78128.324      42.750005      42.750005      42.750005      1.0643854      486.37917      1521.081      -139.77673    
     29500   29500          591.96344     -867.60774      39947.949      40941.406      13267.505      27673.901      6555.6413      9294.9401     -1440.819       359.20996      595.72568      43046.391     -30737.188     -499.89776      78514.513      42.820327      42.820327      42.820327      1.0591501     -577.05456     -509.9541      -1515.8145    
     30000   30000          595.06507     -361.46205      41093.258      41513.758      13337.021      28176.736      6661.6418      9655.8748     -1423.511       350.94913      619.05792      43056.703     -30743.979     -492.04478      79767.595      43.046928      43.046928      43.046928      1.0425117     -1168.3539     -150.1955       234.16319    
     30500   30500          602.57534      1206.0313      42807.596      41420.344      13505.347      27914.998      6599.7932      9569.0464     -1442.6484      344.45669      532.55504      43063.489     -30751.694     -497.63446      78871.606      42.885146      42.885146      42.885146      1.0543547      1822.0995      1083.1458      712.84855    
     31000   31000          589.11154      956.89601      41889.969      40797.216      13203.586      27593.629      6585.4255      9215.457      -1386.5638      323.32394      531.70011      43067.843     -30743.557     -501.24453      78303.557      42.781942      42.781942      42.781942      1.0620035      2322.1119      423.64036      124.93581    
     31500   31500          605.55416      1079.7057      42591.699      41343.107      13572.11       27770.997      6574.1331      9384.9755     -1503.2181      366.47145      664.64425      43035.213     -30751.222     -494.98507      79293.764      42.961524      42.961524      42.961524      1.0487414      1535.8555      414.29244      1288.9691    
     32000   32000          604.69666     -721.89382      40554.773      41392.672      13552.891      27839.78       6738.0301      9416.8619     -1493.0129      346.9449       550.74086      43022.892     -30742.676     -493.16111      79587.033      43.014423      43.014423      43.014423      1.0448769     -349.2421      -1593.7537     -222.68561    
     32500   32500          597.96772     -452.88955      40745.645      41267.81       13402.078      27865.732      6534.55        9564.7219     -1493.1364      371.16192      581.3053       43048.769     -30741.639     -496.46895      79056.765      42.918679      42.918679      42.918679      1.0518853      295.75471     -1430.4424     -223.98099    
     33000   33000          590.86919      32.652613      40989.864      40952.382      13242.98       27709.402      6595.809       9387.9525     -1536.6485      346.69045      592.34984      43060.3       -30737.052     -498.65649      78709.953      42.855827      42.855827      42.855827      1.0565201     -273.81969      2807.9321     -2436.1546    
     33500   33500          603.10059      829.8242       42006.544      41050.156      13517.119      27533.037      6509.8586      9307.338      -1487.6535      309.24328      585.97884      43060.067     -30751.795     -496.66011      79026.337      42.913172      42.913172      42.913172      1.0522903      1324.4196      1076.751       88.302005    
     34000   34000          602.86464     -775.50519      40348.517      41243.706      13511.831      27731.876      6557.2074      9424.5028     -1482.6814      339.0328       583.75959      43056.113     -30746.059     -495.88032      79150.609      42.935655      42.935655      42.935655      1.0506382      1487.0495     -3067.6487     -745.91633    
     34500   34500          603.94767      449.14726      41826.257      41308.863      13536.104      27772.759      6574.9525      9472.7763     -1563.1831      340.01147      639.18304      43056.749     -30747.731     -496.90643      78987.162      42.90608       42.90608       42.90608       1.0528122      936.17563      1944.4738     -1533.2076    
     35000   35000          601.59862     -1585.6814      39482.444      41307.529      13483.456      27824.073      6623.5756      9426.3697     -1466.8417      358.53449      572.81951      43059.267     -30749.651     -497.32465      78920.739      42.894049      42.894049      42.894049      1.0536983     -893.21681     -1201.9734     -2661.854     
     35500   35500          599.06052     -871.60558      39923.61       40920.688      13426.57       27494.118      6596.1892      9354.6964     -1606.3932      350.39231      496.27587      43048.495     -30745.538     -500.37772      78439.202      42.806632      42.806632      42.806632      1.060167      -1554.7608     -961.64047     -98.415467    
     36000   36000          595.43591      728.22335      41905.774      41063.196      13345.333      27717.863      6579.0983      9361.0901     -1516.9309      340.13526      614.94366      43077.781     -30738.254     -494.72191      79335.943      42.96914       42.96914       42.96914       1.0481838     -285.91314      868.39926      1602.1839    
     36500   36500          602.07576     -603.3384       40754.886      41458.586      13494.15       27964.436      6690.7822      9567.7938     -1530.4175      335.48666      577.22629      43063.8       -30740.236     -490.77307      79974.292      43.084078      43.084078      43.084078      1.0398173     -572.52939      562.79825     -1800.2841    
     37000   37000          601.06762     -631.67039      40824.472      41558.761      13471.555      28087.206      6623.8544      9503.9032     -1339.2021      343.30038      626.47195      43064.963     -30736.084     -492.41378      79707.821      43.036173      43.036173      43.036173      1.0432935     -520.57236      42.021203     -1416.46      
     37500   37500          604.88832     -726.80914      40664.168      41501.334      13557.187      27944.147      6637.8565      9621.1789     -1501.4657      367.01309      506.91889      43056.355     -30743.709     -496.95364      78979.66       42.904721      42.904721      42.904721      1.0529122      66.825141     -501.46528     -1745.7873    
     38000   38000          597.09815      1604.5764      43039.586      41190.042      13382.588      27807.453      6614.7015      9449.978      -1483.4162      331.31759      611.4814       43033.851     -30750.46      -496.59531      79036.649      42.915038      42.915038      42.915038      1.052153       3076.1726      1320.8652      416.69142    
     38500   38500          590.18918     -1328.1279      39750.847      41296.916      13227.739      28069.177      6728.5952      9630.5835     -1517.9121      384.69765      541.60877      43040.331     -30738.727     -491.72029      79820.234      43.056395      43.056395      43.056395      1.0418242     -1107.3449     -856.20111     -2020.8377    
     39000   39000          601.32827      464.11166      41845.514      41310.448      13477.397      27833.051      6564.8517      9488.8597     -1531.4045      360.6853       646.76655      43043.679     -30740.387     -496.50354      79051.258      42.917682      42.917682      42.917682      1.0519586     -371.90946      1367.1833      397.0611     
     39500   39500          603.76645     -1857.1446      39455.952      41600.419      13532.043      28068.376      6738.9085      9551.1347     -1508.8543      349.1751       619.09387      43067.398     -30748.48      -495.7165       79176.765      42.940383      42.940383      42.940383      1.0502911     -2773.1579     -1092.6153     -1705.6607    
     40000   40000          601.00192      382.47832      41841.028      41398.825      13470.082      27928.743      6689.3226      9441.0825     -1427.4909      351.74539      564.46469      43053.697     -30744.078     -495.09983      79275.384      42.958204      42.958204      42.958204      1.0489845     -360.66084     -381.59923      1889.695     
     40500   40500          601.89495     -949.08065      40103.248      41200.207      13490.097      27710.11       6415.6303      9526.4426     -1469.4504      340.1597       604.17403      43042.034     -30748.88      -495.24447      79252.231      42.954022      42.954022      42.954022      1.049291       328.16938      183.23141     -3358.6427    
     41000   41000          598.37107      1517.0432      42933.457      41187.305      13411.118      27776.187      6435.4998      9408.4173     -1451.9674      333.19217      724.10411      43065.871     -30738.93      -497.30507      78923.848      42.894613      42.894613      42.894613      1.0536568     -1247.5188      3148.2805      2650.3679    
     41500   41500          595.79967      931.11232      42417.475      41339.181      13353.486      27985.695      6541.3465      9587.611      -1478.6787      367.85816      693.26328      43026.441     -30752.147     -494.27868      79407.085      42.98198       42.98198       42.98198       1.0472447      647.81353      1244.2777      901.24576    
     42000   42000          606.27592      686.35673      42416.156      41615.378      13588.287      28027.091      6542.4642      9493.8164     -1459.2259      342.75987      766.17877      43082.714     -30741.616     -490.61942      79999.339      43.088575      43.088575      43.088575      1.0394917      1716.5519      591.80984     -249.29152    
     42500   42500          601.88869     -1424.1323      39733.057      41378.293      13489.957      27888.336      6571.9661      9663.4901     -1483.8527      321.70005      518.41324      43039.959     -30743.34      -495.4834       79214.014      42.947116      42.947116      42.947116      1.0497972     -1680.5506     -1034.3168     -1557.5293    
     43000   43000          595.58136      550.15023      41890.669      41259.578      13348.593      27910.985      6655.9416      9423.7386     -1469.9612      367.815        633.67999      43039.409     -30739.638     -498.99512      78656.539      42.846131      42.846131      42.846131      1.0572376      1616.9495      100.89214     -67.390935    
     43500   43500          609.56557     -833.53137      40634.384      41601.801      13662.017      27939.784      6752.9363      9418.7611     -1469.4534      344.9728       594.49042      43046.916     -30748.839     -493.19129      79582.162      43.013546      43.013546      43.013546      1.0449408      550.39905     -1692.4522     -1358.5409    
     44000   44000          608.61629      254.13628      41862.367      41570.156      13640.741      27929.415      6725.5996      9465.2564     -1501.5081      395.10528      533.76807      43049.756     -30738.562     -497.825        78841.419      42.879674      42.879674      42.879674      1.0547584      814.19222     -1723.0879      1671.3045    
     44500   44500          595.83959     -126.02147      41328.048      41473.725      13354.38       28119.345      6759.2547      9496.853      -1438.7699      382.96911      626.529        43041.011     -30748.502     -495.17608      79263.177      42.955999      42.955999      42.955999      1.0491461     -119.85533     -430.07755      171.86847    
     45000   45000          592.17167     -750.85706      40405.405      41273.176      13272.172      28001.003      6714.9143      9563.2036     -1487.0688      362.31874      540.52612      43050.66      -30743.55      -495.28956      79245.017      42.952718      42.952718      42.952718      1.0493865     -31.2472       -3152.8264      931.50242    
     45500   45500          598.61157      903.45236      42140.24       41103.192      13416.508      27686.684      6631.9763      9418.4636     -1550.0781      344.22966      514.45715      43072.627     -30744.992     -498.67008      78707.808      42.855438      42.855438      42.855438      1.0565489      1201.1471     -512.67916      2021.8892    
     46000   46000          599.30001     -1140.9286      39920.614      41243.607      13431.938      27811.67       6829.7059      9363.5665     -1483.3784      339.24274      464.91014      43036.803     -30739.18      -493.63698      79510.309      43.000597      43.000597      43.000597      1.0458851     -3389.0388      386.50065     -420.24753    
     46500   46500          597.35031      1790.4345      43570.072      41487.497      13388.24       28099.257      6567.4938      9560.9004     -1494.9012      355.98688      786.2679       43062.872     -30739.363     -492.11304      79756.531      43.044938      43.044938      43.044938      1.0426563      2311.9559      921.88305      2137.4647    
     47000   47000          599.28396     -649.40511      40522.578      41278.23       13431.578      27846.652      6504.0731      9489.7201     -1449.7018      336.97276      685.92751      43021.72      -30742.06      -491.92705      79786.686      43.050362      43.050362      43.050362      1.0422622     -984.25856     -1626.901       662.94424    
     47500   47500          601.46092      459.52318      41663.709      41131.294      13480.37       27650.925      6553.7026      9328.4608     -1472.8875      324.21337      607.42733      43055.548     -30745.54      -494.04251      79445.045      42.988828      42.988828      42.988828      1.0467443     -104.97803      364.52066      1119.0269    
     48000   48000          601.29106     -779.11949      40660.886      41564.453      13476.563      28087.891      6918.6112      9374.9873     -1456.4783      325.1575       639.09907      43042.933     -30756.419     -493.57185      79520.802      43.002488      43.002488      43.002488      1.0457471      452.20683     -3925.0935      1135.5282    
     48500   48500          599.05014      2141.5855      43730.382      41270.038      13426.338      27843.701      6478.4833      9430.105      -1435.6601      325.51144      707.79057      43074.501     -30737.03      -498.24927      78774.283      42.8675        42.8675        42.8675        1.0556573      3018.4097      656.98497      2749.3618    
     49000   49000          601.67433      424.7073       41644.326      41154.53       13485.153      27669.377      6648.142       9310.4328     -1440.0603      319.06271      511.2313       43069.954     -30749.386     -496.34234      79076.932      42.922328      42.922328      42.922328      1.0516171      947.42734     -1263.4356      1590.1302    
     49500   49500          597.97594     -1013.583       40177.131      41348.202      13402.262      27945.94       6709.1178      9479.0998     -1422.263       348.37975      519.57672      43049.683     -30737.654     -495.43089      79222.41       42.948633      42.948633      42.948633      1.049686      -521.59196     -1568.0416     -951.11537    
     50000   50000          609.0066      -1137.7033      40315.809      41633.93       13649.489      27984.441      6797.3342      9419.4103     -1484.9441      330.83815      592.4014       43065.26      -30735.859     -494.06118      79442.043      42.988286      42.988286      42.988286      1.0467839     -755.7645      -2042.9087     -614.43682    
     50500   50500          602.89194     -175.27034      41500.994      41706.291      13512.443      28193.849      6811.628       9545.4966     -1444.1665      337.8417       631.70284      43056.497     -30745.151     -488.68868      80315.405      43.145246      43.145246      43.145246      1.035401       727.33451     -385.48824     -867.65727    
     51000   51000          589.25569     -73.87283       41089.167      41174.741      13206.817      27967.923      6764.3794      9409.5745     -1491.4905      362.66696      612.37831      43041.105     -30730.69      -494.14335      79428.832      42.985903      42.985903      42.985903      1.046958       1340.8553     -1088.6159     -473.85794    
     51500   51500          600.75957      94.710806      41427.362      41318.141      13464.651      27853.491      6556.7018      9417.8183     -1393.1804      353.66985      628.36601      43028.939     -30738.824     -496.36374      79073.523      42.921711      42.921711      42.921711      1.0516624      1685.7456      1179.6243     -2581.2374    
     52000   52000          602.46692      783.9778       42403.597      41488.347      13502.917      27985.43       6533.9546      9598.3882     -1507.4344      355.36598      695.25213      43055.423     -30745.52      -490.31007      80049.813      43.097635      43.097635      43.097635      1.0388363      1053.9958     -164.7729       1462.7105    
     52500   52500          597.372        344.20713      41799.899      41398.817      13388.726      28010.091      6537.917       9559.9638     -1452.2756      352.0212       701.9559       43049.365     -30738.857     -491.23911      79898.422      43.070449      43.070449      43.070449      1.0408047     -818.42798      1879.5406     -28.49123     
     53000   53000          598.25281     -437.73967      40768.163      41274.937      13408.467      27866.469      6611.6926      9485.801      -1437.7387      362.72306      582.76273      43012.182     -30750.954     -494.43489      79381.997      42.977453      42.977453      42.977453      1.0475757      835.90133     -773.15196     -1375.9684    
     53500   53500          606.64805     -30.697911      41430.878      41466.668      13596.627      27870.041      6431.6836      9485.597      -1407.6777      356.54481      715.54218      43038.949     -30750.598     -490.96805      79942.532      43.078374      43.078374      43.078374      1.0402304      447.75513     -331.65838     -208.19049    
     54000   54000          599.41636     -804.24096      40377.373      41317.56       13434.545      27883.014      6524.7894      9495.0589     -1530.6753      342.04755      705.61472      43093.832     -30747.654     -489.64273      80158.913      43.117206      43.117206      43.117206      1.0374224      582.25453     -231.06261     -2763.9148    
     54500   54500          597.53003      740.10439      42099.771      41237.97       13392.268      27845.702      6563.8242      9331.673      -1394.0824      356.36837      670.22691      43066.342     -30748.65      -491.57896      79843.184      43.060521      43.060521      43.060521      1.0415247      891.173        1635.9416     -306.80142    
     55000   55000          589.82492      820.05113      42029.282      41087.655      13219.575      27868.08       6551.4365      9389.7854     -1433.3097      354.29056      697.65857      43047         -30738.781     -498.50482      78733.902      42.860174      42.860174      42.860174      1.0561988      672.46167      720.53183      1067.1599    
     55500   55500          600.96949     -1522.0281      39687.735      41460.964      13469.355      27991.609      6730.927       9402.1562     -1410.2481      384.42624      586.68983      43050.491     -30752.833     -491.32047      79885.19       43.068071      43.068071      43.068071      1.0409771     -1797.299       426.00885     -3194.7942    
     56000   56000          598.74646      1152.49        42588.278      41231.777      13419.531      27812.246      6584.9514      9468.787      -1547.4109      336.64822      656.532        43069.854     -30757.116     -486.32227      80706.214      43.215114      43.215114      43.215114      1.0303872      2131.1418      789.63729      536.69099    
     56500   56500          597.41754     -1257.5401      39670.57       41144.449      13389.746      27754.702      6590.3959      9403.5786     -1450.4399      359.0588       576.03959      43030.645     -30754.576     -488.39042      80364.454      43.154027      43.154027      43.154027      1.0347691     -676.03588     -1034.3466     -2062.2378    
     57000   57000          595.33285      1259.2611      42789.484      41333.756      13343.023      27990.733      6741.9672      9342.0375     -1361.9721      365.55835      611.03404      43047.157     -30755.049     -495.15653      79266.307      42.956565      42.956565      42.956565      1.0491046      1165.6489      1775.8428      836.29173    
     57500   57500          602.55493      476.72094      41949.494      41402.158      13504.889      27897.268      6651.5216      9469.2494     -1371.8656      333.34486      508.76301      43057.711     -30751.457     -498.55956      78725.257      42.858605      42.858605      42.858605      1.0563148      2431.3017     -1194.9485      193.80967    
     58000   58000          596.12629      63.537738      41266.124      41191.866      13360.806      27831.06       6458.4668      9491.1722     -1426.7955      332.76278      678.109        43048.633     -30751.288     -489.77576      80137.141      43.113301      43.113301      43.113301      1.0377042     -1669.1396     -573.90278      2433.6556    
     58500   58500          597.88658     -597.64637      40347.786      41041.368      13400.259      27641.109      6532.8818      9343.7072     -1496.2292      344.90007      610.09008      43053.747     -30747.988     -493.23456      79575.181      43.012288      43.012288      43.012288      1.0450325     -458.66697     -373.69415     -960.57799    
     59000   59000          602.06875      841.18012      42327.514      41349.599      13493.993      27855.607      6456.8679      9436.0021     -1474.4354      368.00911      762.42741      43057.161     -30750.425     -492.37387      79714.282      43.037336      43.037336      43.037336      1.0432089      1467.0443      761.0813       295.41479    
     59500   59500          594.05521      192.52956      41474.275      41250.291      13314.388      27935.903      6588.1815      9399.9616     -1459.6774      355.57242      701.93054      43085.736     -30735.802     -492.02549      79770.723      43.047491      43.047491      43.047491      1.0424708      1234.1913      203.18616     -859.78876    
     60000   60000          607.30471      2096.7956      43902.913      41494.275      13611.345      27882.93       6558.3912      9460.1047     -1423.5596      359.82724      626.68209      43044.278     -30742.793     -498.30076      78766.143      42.866023      42.866023      42.866023      1.0557664      4603.8679      743.65428      942.86452    
     60500   60500          604.25761     -247.28349      41097.803      41383.887      13543.051      27840.837      6529.3027      9493.0524     -1474.966       381.80096      620.9175       43033.157     -30742.428     -494.77596      79327.276      42.967575      42.967575      42.967575      1.0482983     -1163.2022      1462.7693     -1041.4176    
     61000   61000          600.82041     -409.64601      40735.114      41211.798      13466.014      27745.784      6631.5505      9419.1079     -1527.9157      363.16129      518.37791      43082.243     -30740.741     -491.90972      79789.498      43.050868      43.050868      43.050868      1.0422255      1259.9573     -498.74563     -1990.1497    
     61500   61500          593.08533      1198.6635      42468.361      41067.317      13292.65       27774.667      6477.6768      9390.5164     -1502.3249      361.41719      714.36657      43073.504     -30740.49      -489.72535      80145.389      43.114781      43.114781      43.114781      1.0375974      2414.8949      1096.3341      84.761544    
     62000   62000          602.40776     -372.91029      41111.311      41546.657      13501.591      28045.066      6724.6232      9471.0093     -1389.9077      371.57738      552.89419      43063.949     -30749.079     -490.31723      80048.643      43.097425      43.097425      43.097425      1.0388515     -879.22353     -1155.1852      915.67788    
     62500   62500          603.04521      3058.676       45071.418      41511.912      13515.878      27996.034      6674.1437      9480.8649     -1508.4247      337.84449      697.6789       43063.904     -30749.977     -491.8705       79795.86       43.052012      43.052012      43.052012      1.0421424      3301.352       2063.7472      3810.9288    
     63000   63000          602.1802      -66.529558      41202.988      41280.009      13496.491      27783.519      6542.789       9567.6278     -1482.5902      348.95093      547.96372      43017.877     -30759.1       -494.43522      79381.944      42.977443      42.977443      42.977443      1.0475764     -419.67973      812.1321      -592.04105    
     63500   63500          596.13484     -1456.2044      39579.684      41264.524      13360.998      27903.526      6731.6523      9417.3244     -1427.6379      329.56707      537.13807      43068.726     -30753.244     -494.73295      79334.172      42.96882       42.96882       42.96882       1.0482072     -1963.9969     -735.2682      -1669.3481    
     64000   64000          603.35844      2004.9493      43530.866      41188.236      13522.898      27665.338      6468.3759      9448.7253     -1553.2414      401.49675      591.10343      43060.679     -30751.801     -489.89922      80116.946      43.10968       43.10968       43.10968       1.0379658      1832.0981      1650.0846      2532.665     
     64500   64500          600.98378      1326.9704      42856.818      41300.192      13469.676      27830.516      6578.2071      9381.6561     -1500.7785      371.97371      706.50648      43038.447     -30745.495     -487.95991      80435.357      43.166715      43.166715      43.166715      1.0338569      853.89435      2580.4312      546.58552    
     65000   65000          600.05238      77.200498      41472.708      41382.062      13448.8        27933.262      6725.0374      9295.3232     -1445.2973      339.24849      698.65619      43064.533     -30744.239     -487.50677      80510.122      43.180085      43.180085      43.180085      1.0328968      466.92814      228.74619     -464.07284    
     65500   65500          604.3876       1134.1714      42685.939      41361.817      13545.964      27815.853      6463.6969      9432.3008     -1461.3709      358.24629      720.17633      43055.037     -30752.233     -490.2953       80052.223      43.098068      43.098068      43.098068      1.038805       119.99451      967.68109      2314.8385    
     66000   66000          607.70139      753.66843      42556.78       41678.749      13620.236      28058.513      6538.119       9506.4815     -1462.0012      350.00833      814.30694      43055.158     -30743.559     -491.33481      79882.859      43.067653      43.067653      43.067653      1.0410074      1522.4256      534.01639      204.56327    
     66500   66500          608.5419      -1681.4134      39750.974      41730.127      13639.074      28091.053      6674.5766      9548.0204     -1473.9557      307.70753      734.55289      43049.102     -30748.95      -486.29754      80710.319      43.215846      43.215846      43.215846      1.0303348     -960.99559     -1187.104      -2896.1407    
     67000   67000          597.79861     -74.680976      41275.391      41361.999      13398.287      27963.712      6621.2366      9453.7278     -1361.2597      359.90799      587.68852      43035.976     -30733.566     -493.58101      79519.325      43.002222      43.002222      43.002222      1.0457666      30.727195      496.22604     -750.99616    
     67500   67500          599.89737     -108.02281      41093.068      41218.417      13445.326      27773.091      6520.9833      9302.374      -1375.1032      333.35285      687.71426      43058.534     -30754.764     -493.28758      79566.628      43.010747      43.010747      43.010747      1.0451448      1657.5276     -2037.719       56.123028    
     68000   68000          591.49325      292.52191      41452.518      41111.75       13256.967      27854.783      6522.9788      9511.2031     -1431.0362      326.29364      606.256        43058.819     -30739.731     -491.36868      79877.353      43.066663      43.066663      43.066663      1.0410792      827.00526      371.58714     -321.02666    
     68500   68500          605.08324     -1036.7675      40207.884      41410.312      13561.556      27848.756      6495.9251      9549.0789     -1493.536       347.41948      647.59177      43037.886     -30735.609     -493.5483       79524.596      43.003172      43.003172      43.003172      1.0456972      286.11189     -2924.3781     -472.03634    
     69000   69000          601.08364     -632.9707       40948.514      41687.693      13471.914      28215.779      6732.4972      9544.3455     -1408.0959      345.71003      681.63843      43064.996     -30745.312     -490.16322      80073.795      43.101939      43.101939      43.101939      1.0385252     -1001.139      -863.94307     -33.830037    
     69500   69500          609.59117      1048.6055      42942.811      41719.135      13662.591      28056.544      6590.9114      9488.3254     -1404.7041      335.13177      716.87333      43073.93      -30743.923     -490.51546      80016.294      43.091619      43.091619      43.091619      1.0392715      731.66648      1125.2507      1288.8992    
     70000   70000          610.23719      726.87406      42069.103      41238.106      13677.07       27561.036      6380.03        9505.6508     -1488.9211      358.29173      511.31876      43053.527     -30758.861     -500.68743      78390.682      42.797804      42.797804      42.797804      1.0608232      1108.6339      769.69393      302.29439    
     70500   70500          602.05088     -850.99268      40561.391      41549.446      13493.592      28055.854      6646.8338      9522.3436     -1500.186       346.6085       733.23525      43052.033     -30745.015     -493.00561      79612.135      43.018945      43.018945      43.018945      1.0445474     -1281.6655      271.19658     -1542.5091    
     71000   71000          601.78399      119.79097      41640.127      41500.009      13487.61       28012.398      6667.6564      9429.32       -1454.6236      385.77042      662.86246      43066.091     -30744.678     -489.36886      80203.774      43.125248      43.125248      43.125248      1.0368421      167.84009      1385.6342     -1194.1013    
     71500   71500          589.87163     -831.16666      40214.818      41183.255      13220.622      27962.633      6644.5539      9492.7671     -1498.1553      363.69174      676.36857      43037.688     -30754.281     -491.27401      79892.745      43.069429      43.069429      43.069429      1.0408786     -1507.4563     -9.1271953     -976.91654    
     72000   72000          590.48574     -998.58045      39856.549      41016.862      13234.386      27782.475      6510.4836      9396.3476     -1422.0292      343.53772      625.9302       43069.193     -30740.988     -492.62337      79673.909      43.030069      43.030069      43.030069      1.0437375     -3125.8323      410.30831     -280.2174     
     72500   72500          599.82034     -481.80759      40774.397      41334.494      13443.6        27890.895      6683.5413      9391.3541     -1439.2674      339.13074      604.23996      43060.367     -30748.471     -492.39857      79710.283      43.036616      43.036616      43.036616      1.0432613      81.5546       -1458.1381     -68.839251    
     73000   73000          598.90311     -425.07905      41024.729      41521.706      13423.042      28098.664      6723.1992      9495.2322     -1448.148       413.93015      638.59516      43026.539     -30750.684     -489.59838      80166.175      43.118508      43.118508      43.118508      1.0373284      538.17498     -2413.7401      600.328      
     73500   73500          605.88319      151.39009      41670.917      41494.926      13579.485      27915.442      6648.9768      9553.8543     -1540.6562      350.05159      605.08395      43046.119     -30747.988     -492.39516      79710.835      43.036716      43.036716      43.036716      1.043254      -859.45947      297.23095      1016.3988    
     74000   74000          604.05932      676.94526      42333.7        41542.467      13538.607      28003.86       6672.7535      9537.6921     -1432.0981      344.8429       591.87364      43036.458     -30747.662     -489.72917      80144.765      43.114669      43.114669      43.114669      1.0376055      939.31292      608.78688      482.73597    
     74500   74500          594.71976      193.41529      41651.574      41424.082      13329.282      28094.8        6689.5681      9485.0757     -1509.0389      350.30894      771.49995      43052.085     -30744.699     -486.66658      80649.116      43.20492       43.20492       43.20492       1.0311167      65.488397     -1033.6902      1548.4477    
     75000   75000          597.84639      1957.0518      43597.116      41325.426      13399.358      27926.067      6462.7431      9496.8967     -1533.9112      344.76076      840.89968      43060.786     -30746.107     -493.12855      79592.287      43.01537       43.01537       43.01537       1.0448079      922.1862       2350.161       2598.8081    
[...]
   2975500   2975500        148.39134     -480.03497      19841.443      20345.972      3325.8523      17020.119      2484.1164      5116.6009     -2092.139       121.45627     -837.49372      43089.783     -30862.205     -544.6207       72067.09       41.614594      41.614594      41.614594      1.153906      -507.0784       1023.2614     -1956.2879    
   2976000   2976000        150.96475      1016.2845      21398.89       20330.029      3383.5292      16946.499      2360.7744      5109.8517     -2096.0399      129.54259     -783.50446      43089.075     -30863.2       -544.25324      72115.748      41.623958      41.623958      41.623958      1.1531275      2113.6986      1110.2146     -175.05963    
   2976500   2976500        149.25687      17.496107      20366.044      20347.637      3345.2511      17002.386      2355.3023      5143.6548     -2097.5425      128.52748     -776.9166       43102.921     -30853.561     -544.06331      72140.923      41.628801      41.628801      41.628801      1.1527251     -600.66377      1738.9266     -1085.7745    
   2977000   2977000        151.01356      655.1192       21071.349      20383.357      3384.6233      16998.734      2338.4293      5160.0154     -2082.6664      122.41044     -777.96646      43098.429     -30859.918     -545.06004      72009.002      41.60341       41.60341       41.60341       1.1548369      858.72834      1513.3506     -406.72131    
   2977500   2977500        150.66881      375.46244      20749.714      20356.326      3376.8965      16979.429      2379.9697      5154.3724     -2080.5818      122.68087     -841.07538      43105.208     -30861.145     -546.32712      71841.993      41.571222      41.571222      41.571222      1.1575215      95.755401      648.88664      381.74529    
   2978000   2978000        150.73092     -476.20993      19917.332      20417.51       3378.2885      17039.221      2446.6326      5199.5924     -2093.8154      133.8525      -879.01208      43091.981     -30860.01      -544.98045      72019.518      41.605435      41.605435      41.605435      1.1546683      324.58412     -648.61644     -1104.5975    
   2978500   2978500        150.32249     -879.50141      19473.221      20397.688      3369.1345      17028.554      2447.7044      5169.4058     -2077.0913      129.06899     -861.01242      43083.572     -30863.094     -544.56801      72074.063      41.615936      41.615936      41.615936      1.1537944     -678.85281     -509.39486     -1450.2566    
   2979000   2979000        146.94016     -228.69523      20055.038      20295.223      3293.3273      17001.895      2381.2724      5151.7171     -2089.6969      141.31483     -826.22283      43105.675     -30862.165     -545.02937      72013.053      41.60419       41.60419       41.60419       1.1547719     -74.653972      187.34003     -798.77175    
   2979500   2979500        149.30463      674.90653      21047.857      20338.827      3346.3214      16992.506      2299.5226      5174.7942     -2096.4878      128.91079     -756.47805      43104.067     -30861.823     -544.86114      72035.288      41.608472      41.608472      41.608472      1.1544155      614.04296      358.57254      1052.1041    
   2980000   2980000        149.9974       899.03346      21318.804      20377.108      3361.8483      17015.26       2387.7172      5160.216      -2097.8847      134.55575     -818.12721      43109.873     -30861.09      -546.47759      71822.212      41.567406      41.567406      41.567406      1.1578403      964.27418      1168.3572      564.46902    
   2980500   2980500        149.8118      -575.13338      19725.706      20330.061      3357.6885      16972.372      2360.3003      5137.88       -2060.0248      134.84991     -836.33713      43100.694     -30864.99      -544.73257      72052.291      41.611745      41.611745      41.611745      1.1541431     -1208.6119     -544.82027      28.03198     
   2981000   2981000        150.86086     -455.28894      19893.81       20371.79       3381.2008      16990.589      2421.1863      5108.3659     -2057.2665      134.10108     -841.64106      43085.414     -30859.571     -545.23645      71985.703      41.598923      41.598923      41.598923      1.1552106     -628.72983      236.63079     -973.76778    
   2981500   2981500        151.73787      1048.564       21468.442      20368.169      3400.857       16967.312      2392.6003      5095.0086     -2085.5767      139.92372     -806.6206       43095.306     -30863.329     -545.50877      71949.768      41.592         41.592         41.592         1.1557876      1318.6403      1342.7445      484.30715    
   2982000   2982000        149.27856      242.44157      20600.37       20345.262      3345.7373      16999.524      2382.2758      5132.8884     -2064.0335      133.15553     -819.84934      43098.457     -30863.37      -543.98776      72150.941      41.630728      41.630728      41.630728      1.152565       821.58023      404.84638     -499.10191    
   2982500   2982500        148.78371      304.54947      20616.383      20295.568      3334.6464      16960.922      2383.4085      5098.4758     -2072.9791      137.06174     -808.66606      43087.703     -30864.082     -543.38868      72230.488      41.646021      41.646021      41.646021      1.1512957      1227.3819      649.10222     -962.83569    
   2983000   2983000        149.00575     -208.99402      20087.157      20306.324      3339.6229      16966.701      2392.4646      5117.0842     -2087.5593      129.43421     -809.44185      43089.066     -30864.347     -545.8424       71905.79       41.583524      41.583524      41.583524      1.1564945     -597.25614     -321.14056      291.41465    
   2983500   2983500        151.55804     -62.064403      20318.264      20383.504      3396.8265      16986.678      2425.8346      5138.2783     -2059.2021      133.59021     -878.25033      43085.91      -30859.483     -544.54533      72077.066      41.616514      41.616514      41.616514      1.1537463      916.35801      331.44109     -1433.9923    
   2984000   2984000        152.59836      872.02911      21339.172      20422.167      3420.1429      17002.024      2393.4057      5137.2761     -2093.5968      129.18251     -794.92969      43093.722     -30863.036     -544.33517      72104.893      41.621869      41.621869      41.621869      1.1533011      246.88998      888.61425      1480.5831    
   2984500   2984500        149.11481     -633.66733      19652.634      20316.748      3342.067       16974.681      2406.4169      5159.249      -2078.1945      126.80631     -873.64479      43095.013     -30860.965     -546.16708      71863.045      41.575282      41.575282      41.575282      1.1571824     -717.45113     -722.95928     -460.59156    
   2985000   2985000        150.81467     -810.33454      19454.923      20305.269      3380.1657      16925.104      2385.5458      5124.1126     -2091.5163      125.14267     -843.94828      43089.448     -30863.68      -545.47574      71954.125      41.592839      41.592839      41.592839      1.1557176      704.18338     -2169.0034     -966.18364    
   2985500   2985500        150.01525      896.05929      21334.575      20392.752      3362.2484      17030.503      2391.1531      5151.3506     -2102.5719      129.35641     -764.3218       43086.866     -30861.329     -544.59553      72070.421      41.615235      41.615235      41.615235      1.1538527      251.49202      1406.7489      1029.937     
   2986000   2986000        152.13039     -385.30994      20010.067      20413.289      3409.6545      17003.634      2415.2815      5134.3993     -2082.516       130.41174     -804.96864      43077.611     -30866.585     -546.98206      71755.972      41.554623      41.554623      41.554623      1.1589091     -318.79193      179.1664      -1016.3043    
   2986500   2986500        150.97706     -349.67387      20011.681      20380.202      3383.8052      16996.397      2419.827       5084.6316     -2095.0872      136.17967     -788.81136      43100.184     -30860.526     -543.13402      72264.354      41.652529      41.652529      41.652529      1.1507562      278.95697      72.246507     -1400.2251    
   2987000   2987000        151.70684     -268.81313      20109.429      20392.1        3400.1614      16991.939      2368.4616      5159.7602     -2071.4977      135.74411     -828.27789      43089.595     -30861.846     -544.34745      72103.266      41.621556      41.621556      41.621556      1.1533271     -863.67321      704.71987     -647.48606    
   2987500   2987500        150.44695      1322.7314      21756.793      20372.469      3371.9241      17000.545      2358.013       5173.7139     -2081.9949      129.93395     -813.82058      43094.048     -30859.348     -546.9414       71761.306      41.555653      41.555653      41.555653      1.158823       1787.8418      2109.9392      70.413231    
   2988000   2988000        151.70152     -519.12196      19830.86       20377.305      3400.0422      16977.262      2407.3891      5152.1058     -2093.6614      128.74081     -852.59939      43097.599     -30862.312     -543.78917      72177.291      41.635795      41.635795      41.635795      1.1521443     -91.71268      -1008.1281     -457.52516    
   2988500   2988500        150.5272      -105.61389      20221.664      20332.492      3373.7225      16958.77       2366.7955      5148.4757     -2092.2659      125.33609     -832.82465      43104.155     -30860.902     -545.48125      71953.398      41.592699      41.592699      41.592699      1.1557293      102.91699      502.20044     -921.95909    
   2989000   2989000        150.04124     -632.17311      19690.122      20354.541      3362.831       16991.71       2390.0776      5167.5811     -2099.2859      126.07688     -835.07571      43101.217     -30858.881     -544.62991      72065.871      41.614359      41.614359      41.614359      1.1539256      530.035       -1357.3278     -1069.2265    
   2989500   2989500        151.82831     -587.57997      19789.906      20407.726      3402.8839      17004.843      2421.5699      5120.3119     -2070.7493      126.57045     -815.90845      43087.141     -30864.092     -544.39159      72097.421      41.620431      41.620431      41.620431      1.1534206     -796.98047      193.70031     -1159.4597    
   2990000   2990000        151.41466     -530.04513      19846.681      20402.188      3393.6131      17008.575      2374.6877      5143.4491     -2057.1211      129.09332     -811.9951       43092.19      -30861.729     -546.17328      71862.229      41.575125      41.575125      41.575125      1.1571955     -370.77817      551.56706     -1770.9243    
   2990500   2990500        151.57575      125.12691      20546.611      20414.629      3397.2234      17017.406      2401.9377      5135.655      -2103.3663      128.71862     -768.72379      43086.832     -30863.647     -542.67692      72325.223      41.664221      41.664221      41.664221      1.1497877      269.70289     -784.72939      890.40722    
   2991000   2991000        148.51214     -601.05716      19740.669      20372.707      3328.5597      17044.147      2456.9143      5111.7226     -2066.7912      123.72046     -799.65412      43083.339     -30865.103     -544.35171      72102.702      41.621448      41.621448      41.621448      1.1533361      161.69669     -685.16938     -1279.6988    
   2991500   2991500        148.84923     -294.39682      20017.001      20325.65       3336.1148      16989.535      2367.6561      5140.0269     -2092.1958      123.77571     -794.00789      43105.468     -30861.188     -545.97858      71887.855      41.580066      41.580066      41.580066      1.156783      -219.82196      609.06533     -1272.4338    
   2992000   2992000        150.33322     -32.95376       20364.847      20399.408      3369.375       17030.033      2440.0433      5086.0736     -2059.1228      117.49996     -792.5644       43099.74      -30861.637     -545.79781      71911.665      41.584656      41.584656      41.584656      1.1564        -731.49353      346.75363      285.87862    
   2992500   2992500        149.02348     -1436.9937      18868.649      20379.151      3340.0201      17039.131      2468.6282      5162.9371     -2072.3119      128.01427     -879.25233      43089.779     -30858.664     -544.55359      72075.972      41.616304      41.616304      41.616304      1.1537638     -1463.7921     -1036.0139     -1811.175     
   2993000   2993000        146.98735      101.74487      20379.253      20272.725      3294.385       16978.34       2396.7286      5109.3268     -2101.9104      125.80907     -795.12263      43104.204     -30860.696     -546.7107       71791.588      41.561497      41.561497      41.561497      1.1583342     -462.68297      977.97289     -210.05531    
   2993500   2993500        148.4112      -702.76325      19589.339      20329.423      3326.2973      17003.126      2437.9489      5108.2924     -2087.4906      125.94091     -807.80269      43090.387     -30864.15      -543.5447       72209.754      41.642036      41.642036      41.642036      1.1516263     -285.55571     -770.40171     -1052.3323    
   2994000   2994000        152.49843     -1267.1435      19037.228      20372.04       3417.9033      16954.136      2407.3546      5163.9362     -2101.9849      127.40815     -857.01864      43075.403     -30860.963     -543.39143      72230.122      41.645951      41.645951      41.645951      1.1513015     -1534.6679     -1410.1076     -856.65514    
   2994500   2994500        148.36242      242.08339      20583.819      20329.957      3325.2041      17004.753      2392.3334      5116.499      -2066.2256      129.70737     -810.07594      43102.406     -30859.892     -545.84949      71904.856      41.583344      41.583344      41.583344      1.1565095      295.64986      1025.6804     -595.08007    
   2995000   2995000        150.4986      -212.70065      20167.443      20391.087      3373.0816      17018.005      2382.8267      5165.9567     -2091.7476      128.7191      -820.5417       43108.895     -30856.103     -544.40128      72096.137      41.620184      41.620184      41.620184      1.1534412      12.20044      -589.30165     -61.000739    
   2995500   2995500        149.68936      197.36294      20500.376      20293.658      3354.9443      16938.714      2359.7189      5144.4721     -2099.6466      131.66351     -832.24088      43094.108     -30859.361     -546.50633      71818.435      41.566678      41.566678      41.566678      1.1579012     -765.76168      1832.6597     -474.80917    
   2996000   2996000        148.68391      84.229505      20393.04       20304.67       3332.4094      16972.26       2415.2356      5072.8284     -2050.8014      139.60854     -822.29535      43080.65      -30862.966     -545.5886       71939.239      41.589971      41.589971      41.589971      1.1559568      1451.0852      324.93133     -1523.3281    
   2996500   2996500        147.9218       230.79282      20600.937      20357.757      3315.3286      17042.428      2379.1147      5155.0896     -2056.7221      136.66066     -811.71439      43102.156     -30862.156     -543.25246      72248.599      41.649502      41.649502      41.649502      1.1510071     -236.59844      631.66344      297.31347    
   2997000   2997000        151.59696     -21.279386      20404.757      20427.126      3397.6987      17029.428      2418.1683      5115.575      -2085.1902      128.27248     -784.90085      43096.924     -30859.422     -544.5169       72080.829      41.617238      41.617238      41.617238      1.1536861      1249.5296     -274.83999     -1038.5278    
   2997500   2997500        150.44895     -593.32566      19747.951      20369.816      3371.9688      16997.847      2436.3205      5052.999      -2075.9715      129.88062     -778.29607      43091.363     -30858.448     -546.14053      71866.538      41.575956      41.575956      41.575956      1.1571261     -8.0527869     -249.4637      -1522.4605    
   2998000   2998000        149.71738      677.15216      21077.84       20364.259      3355.5723      17008.687      2368.3839      5144.8223     -2106.6045      128.81794     -766.68621      43097.748     -30857.795     -543.18768      72257.215      41.651157      41.651157      41.651157      1.1508699      599.80847      641.27631      790.37171    
   2998500   2998500        151.63624      175.54424      20509.586      20324.992      3398.5792      16926.413      2395.1915      5107.8512     -2104.2921      126.57441     -849.06149      43110.918     -30860.768     -544.34654      72103.387      41.621579      41.621579      41.621579      1.1533252     -147.78316      726.68366     -52.267792    
   2999000   2999000        149.19477     -766.62634      19549.232      20354.893      3343.8593      17011.034      2440.205       5141.1353     -2085.9383      125.0059      -843.00934      43094.175     -30860.54      -544.67625      72059.741      41.613179      41.613179      41.613179      1.1540237      545.28723     -868.28409     -1976.8822    
   2999500   2999500        151.26462     -228.71563      20137.109      20376.626      3390.2502      16986.376      2373.6417      5175.6696     -2074.0176      134.96414     -858.16329      43094.382     -30860.101     -546.5954       71806.731      41.564419      41.564419      41.564419      1.1580899     -1248.6358      1335.4913     -773.00237    
   3000000   3000000        150.77742      692.66063      21116.442      20386.508      3379.3308      17007.177      2416.1469      5124.7693     -2104.9217      131.48157     -795.76409      43094.74      -30859.276     -543.18028      72258.2        41.651347      41.651347      41.651347      1.1508542     -122.41881      2165.3877      35.012949    
Loop time of 664.646 on 1 procs for 125000 steps with 7520 atoms

Performance: 16.249 ns/day, 1.477 hours/ns, 188.070 timesteps/s, 1.414 Matom-step/s
99.9% CPU use with 1 MPI tasks x 1 OpenMP threads

MPI task timing breakdown:
Section |  min time  |  avg time  |  max time  |%varavg| %total
---------------------------------------------------------------
Pair    | 290.74     | 290.74     | 290.74     |   0.0 | 43.74
Bond    | 94.091     | 94.091     | 94.091     |   0.0 | 14.16
Kspace  | 171.08     | 171.08     | 171.08     |   0.0 | 25.74
Neigh   | 37.219     | 37.219     | 37.219     |   0.0 |  5.60
Comm    | 3.7343     | 3.7343     | 3.7343     |   0.0 |  0.56
Output  | 0.040232   | 0.040232   | 0.040232   |   0.0 |  0.01
Modify  | 40.873     | 40.873     | 40.873     |   0.0 |  6.15
Other   |            | 26.87      |            |       |  4.04

Nlocal:           7520 ave        7520 max        7520 min
Histogram: 1 0 0 0 0 0 0 0 0 0
Nghost:          20519 ave       20519 max       20519 min
Histogram: 1 0 0 0 0 0 0 0 0 0
Neighs:              0 ave           0 max           0 min
Histogram: 1 0 0 0 0 0 0 0 0 0
FullNghs:  4.98054e+06 ave 4.98054e+06 max 4.98054e+06 min
Histogram: 1 0 0 0 0 0 0 0 0 0

Total # of neighbors = 4980538
Ave neighs/atom = 662.30559
Ave special neighs/atom = 5.7207447
Neighbor list builds = 2898
Dangerous builds = 0
  unfix npt_tg
  print "STAGE COMPLETE: Tg step T=${temps}K P=1.0atm steps=125000"
STAGE COMPLETE: Tg step T=150K P=1.0atm steps=125000
  next temps
  jump SELF TEMP_LOOP

write_data tg_step_out.data
System init for write_data ...
PPPM Kokkos initialization ...
  using 12-bit tables for long-range coulomb
  G vector (1/distance) = 0.33359689
  grid = 45 45 45
  stencil order = 5
  estimated absolute RMS force accuracy = 0.00028234232
  estimated relative force accuracy = 8.502655e-07
  using double precision cuFFT
  3d grid and FFT values/proc = 140608 91125
Generated 15 of 15 mixed pair_coeff terms from sixthpower/sixthpower mixing rule
Total wall time: 4:28:18
