units real
atom_style full
boundary p p p

# --- Force Field Styles ---
pair_style lj/class2/coul/long 9.5 9.5
kspace_style pppm 1e-6
dielectric 1.000000
bond_style class2
angle_style class2
dihedral_style class2
improper_style class2
special_bonds lj/coul 0 0 1
pair_modify mix sixthpower tail yes
neighbor 2.0 bin
neigh_modify delay 0 every 1 check yes
neigh_modify one 4000
# KOKKOS: package loaded via -pk kokkos on the command line

read_data /home/alexzhao/PolyJarvis/data/PS3/lammps/equil/nvt_production/nvt_production_out.data
Reading data file ...
  orthogonal box = (3.9896252 3.9896252 3.9896252) to (46.74506 46.74506 46.74506)
  1 by 1 by 1 MPI processor grid
  reading atoms ...
  6420 atoms
  reading velocities ...
  6420 velocities
  scanning bonds ...
  4 = max bonds/atom
  scanning angles ...
  14 = max angles/atom
  scanning dihedrals ...
  34 = max dihedrals/atom
  scanning impropers ...
  11 = max impropers/atom
  orthogonal box = (3.9896252 3.9896252 3.9896252) to (46.74506 46.74506 46.74506)
  1 by 1 by 1 MPI processor grid
  reading bonds ...
  6810 bonds
  reading angles ...
  12000 angles
  reading dihedrals ...
  19110 dihedrals
  reading impropers ...
  5600 impropers
Finding 1-2 1-3 1-4 neighbors ...
  special bond factors lj:    0        0        1       
  special bond factors coul:  0        0        1       
     4 = max # of 1-2 neighbors
     8 = max # of 1-3 neighbors
    12 = max # of special neighbors
  special bonds CPU = 0.003 seconds
  read_data CPU = 1.522 seconds
include /home/alexzhao/PolyJarvis/data/PS3/lammps/equil/emc_build.params
# LAMMPS parameters created by EMC v9.4.4, build Jul 31 2025 20:33:44

# Variables

variable	seed		index	472913
variable	ntotal		index	6420
variable	fshape		index	1
variable	output		index	emc_build
variable	field		index	pcff/pcff
variable	location1	index	~/emc/field/
variable	nav		index	0.6022141179
variable	temperature	index	300
variable	radius		index	5
variable	nrelax		index	100
variable	weight_nonbond	index	0.0001
variable	weight_bond	index	0.0001
variable	weight_focus	index	1
variable	cutoff		index	9.5
variable	charge_cutoff	index	9.5
variable	kappa		index	4
variable	density1	index	0.53
variable	lprevious	index	0
variable	lphase		index	50.7346850343
variable	f_poly		index	10
variable	chem_repeat	index	*CC(c1ccccc1)*
variable	chem_cap	index	*[H]
variable	lg_repeat	index	16
variable	lg_cap		index	1
variable	norm_poly	index	100
variable	l_poly		index	642
variable	mg_repeat	index	92.14181
variable	mg_cap		index	1.00797
variable	m_poly		index	3687.68834
variable	n_poly		index	10
variable	mtotal		index	41681.3434
variable	nphase1		index	6420
variable	mphase1		index	41681.3434
variable	vphase1		index	130591.498627
variable	lbox		index	50.7346850343
variable	lphase1		index	50.7346850343
variable	lxx		index	50.7346850343
variable	lyy		index	50.7346850343
variable	lzz		index	50.7346850343
variable	lzy		index	0
variable	lzx		index	0
variable	lyx		index	0
variable	vtotal		index	130591.498627
variable	nl_poly		index	10

# Types

variable	type_c		index	1
variable	type_c1		index	2
variable	type_cp		index	3
variable	type_hc		index	4

variable	type_bond_c_c	index	1
variable	type_bond_c_c1	index	2
variable	type_bond_c_cp	index	3
variable	type_bond_c_hc	index	4
variable	type_bond_c1_cp	index	5
variable	type_bond_c1_hc	index	6
variable	type_bond_cp_cp	index	7
variable	type_bond_cp_hc	index	8

variable	type_angle_c_c_c1 index	1
variable	type_angle_c_c_cp index	2
variable	type_angle_c_c_hc index	3
variable	type_angle_c_c1_c index	4
variable	type_angle_c_c1_cp index	5
variable	type_angle_c_c1_hc index	6
variable	type_angle_c_cp_cp index	7
variable	type_angle_c1_c_c1 index	8
variable	type_angle_c1_c_hc index	9
variable	type_angle_c1_cp_cp index	10
variable	type_angle_cp_c_hc index	11
variable	type_angle_cp_c1_hc index	12
variable	type_angle_cp_cp_cp index	13
variable	type_angle_cp_cp_hc index	14
variable	type_angle_hc_c_hc index	15

# Clusters

variable	n0_poly		index	1
variable	n1_poly		index	10
variable	nl_poly		index	10

# Flags

variable	flag_charged	index	1

# Masses

mass		1    12.01115  # c
mass		2    12.01115  # c1
mass		3    12.01115  # cp
mass		4     1.00797  # hc

# Potentials

pair_modify	mix sixthpower tail yes
special_bonds	lj/coul 0 0 1

# Pair Coeffs

pair_coeff	 1  1    0.05400    4.01000  # c,c
pair_coeff	 2  2    0.05400    4.01000  # c1,c1
pair_coeff	 3  3    0.06400    4.01000  # cp,cp
pair_coeff	 4  4    0.02000    2.99500  # hc,hc

# Bond Coeffs

bond_coeff	1    1.53000  299.67000 -501.77000  679.81000  # c,c
bond_coeff	2    1.53000  299.67000 -501.77000  679.81000  # c,c1
bond_coeff	3    1.50100  321.90210 -521.82080  572.16280  # c,cp
bond_coeff	4    1.10100  345.00000 -691.89000  844.60000  # c,hc
bond_coeff	5    1.50100  321.90210 -521.82080  572.16280  # c1,cp
bond_coeff	6    1.10100  345.00000 -691.89000  844.60000  # c1,hc
bond_coeff	7    1.41700  470.83610 -627.61790 1327.63450  # cp,cp
bond_coeff	8    1.09820  372.82510 -803.45260  894.31730  # cp,hc

# Angle Coeffs

angle_coeff	 1  112.67000   39.51600   -7.44300   -9.55830  # c,c,c1
angle_coeff	 2  108.40000   43.95940   -8.39240   -9.33790  # c,c,cp
angle_coeff	 3  110.77000   41.45300  -10.60400    5.12900  # c,c,hc
angle_coeff	 4  112.67000   39.51600   -7.44300   -9.55830  # c,c1,c
angle_coeff	 5  108.40000   43.95940   -8.39240   -9.33790  # c,c1,cp
angle_coeff	 6  110.77000   41.45300  -10.60400    5.12900  # c,c1,hc
angle_coeff	 7  120.05000   44.71480  -22.73520    0.00000  # c,cp,cp
angle_coeff	 8  112.67000   39.51600   -7.44300   -9.55830  # c1,c,c1
angle_coeff	 9  110.77000   41.45300  -10.60400    5.12900  # c1,c,hc
angle_coeff	10  120.05000   44.71480  -22.73520    0.00000  # c1,cp,cp
angle_coeff	11  111.00000   44.32340   -9.44540    0.00000  # cp,c,hc
angle_coeff	12  111.00000   44.32340   -9.44540    0.00000  # cp,c1,hc
angle_coeff	13  118.90000   61.02260  -34.99310    0.00000  # cp,cp,cp
angle_coeff	14  117.94000   35.15580  -12.46820    0.00000  # cp,cp,hc
angle_coeff	15  107.66000   39.64100  -12.92100   -2.43180  # hc,c,hc

# BondBond Coeffs

angle_coeff	 1 bb    0.00000    1.53000    1.53000  # c,c,c1
angle_coeff	 2 bb    0.00000    1.53000    1.50100  # c,c,cp
angle_coeff	 3 bb    3.38720    1.53000    1.10100  # c,c,hc
angle_coeff	 4 bb    0.00000    1.53000    1.53000  # c,c1,c
angle_coeff	 5 bb    0.00000    1.53000    1.50100  # c,c1,cp
angle_coeff	 6 bb    3.38720    1.53000    1.10100  # c,c1,hc
angle_coeff	 7 bb   12.06760    1.50100    1.41700  # c,cp,cp
angle_coeff	 8 bb    0.00000    1.53000    1.53000  # c1,c,c1
angle_coeff	 9 bb    3.38720    1.53000    1.10100  # c1,c,hc
angle_coeff	10 bb   12.06760    1.50100    1.41700  # c1,cp,cp
angle_coeff	11 bb    2.91680    1.50100    1.10100  # cp,c,hc
angle_coeff	12 bb    2.91680    1.50100    1.10100  # cp,c1,hc
angle_coeff	13 bb   68.28560    1.41700    1.41700  # cp,cp,cp
angle_coeff	14 bb    1.07950    1.41700    1.09820  # cp,cp,hc
angle_coeff	15 bb    5.33160    1.10100    1.10100  # hc,c,hc

# BondAngle Coeffs

angle_coeff	 1 ba    8.01600    8.01600    1.53000    1.53000  # c,c,c1
angle_coeff	 2 ba    0.00000    0.00000    1.53000    1.50100  # c,c,cp
angle_coeff	 3 ba   20.75400   11.42100    1.53000    1.10100  # c,c,hc
angle_coeff	 4 ba    8.01600    8.01600    1.53000    1.53000  # c,c1,c
angle_coeff	 5 ba    0.00000    0.00000    1.53000    1.50100  # c,c1,cp
angle_coeff	 6 ba   20.75400   11.42100    1.53000    1.10100  # c,c1,hc
angle_coeff	 7 ba   47.05790   31.07710    1.50100    1.41700  # c,cp,cp
angle_coeff	 8 ba    8.01600    8.01600    1.53000    1.53000  # c1,c,c1
angle_coeff	 9 ba   20.75400   11.42100    1.53000    1.10100  # c1,c,hc
angle_coeff	10 ba   47.05790   31.07710    1.50100    1.41700  # c1,cp,cp
angle_coeff	11 ba   26.46080   11.77170    1.50100    1.10100  # cp,c,hc
angle_coeff	12 ba   26.46080   11.77170    1.50100    1.10100  # cp,c1,hc
angle_coeff	13 ba   28.87080   28.87080    1.41700    1.41700  # cp,cp,cp
angle_coeff	14 ba   20.00330   24.21830    1.41700    1.09820  # cp,cp,hc
angle_coeff	15 ba   18.10300   18.10300    1.10100    1.10100  # hc,c,hc

# Dihedral Coeffs

dihedral_coeff	 1    0.00000    0.00000    0.05140    0.00000   -0.14300    0.00000  # c,c,c1,c
dihedral_coeff	 2    0.00000    0.00000    0.00000    0.00000    0.15800  180.00000  # c,c,c1,cp
dihedral_coeff	 3    0.00000    0.00000    0.03160    0.00000   -0.16810    0.00000  # c,c,c1,hc
dihedral_coeff	 4   -0.28020    0.00000   -0.06780    0.00000   -0.01220    0.00000  # c,c,cp,cp
dihedral_coeff	 5    0.00000    0.00000    0.05140    0.00000   -0.14300    0.00000  # c,c1,c,c1
dihedral_coeff	 6    0.00000    0.00000    0.03160    0.00000   -0.16810    0.00000  # c,c1,c,hc
dihedral_coeff	 7   -0.28020    0.00000   -0.06780    0.00000   -0.01220    0.00000  # c,c1,cp,cp
dihedral_coeff	 8    0.00000    0.00000    4.40720    0.00000    0.00000    0.00000  # c,cp,cp,cp
dihedral_coeff	 9    0.00000    0.00000    1.55900    0.00000    0.00000    0.00000  # c,cp,cp,hc
dihedral_coeff	10    0.00000    0.00000    0.00000    0.00000    0.15800  180.00000  # c1,c,c,cp
dihedral_coeff	11    0.00000    0.00000    0.03160    0.00000   -0.16810    0.00000  # c1,c,c,hc
dihedral_coeff	12    0.00000    0.00000    0.00000    0.00000    0.15800  180.00000  # c1,c,c1,cp
dihedral_coeff	13    0.00000    0.00000    0.03160    0.00000   -0.16810    0.00000  # c1,c,c1,hc
dihedral_coeff	14    0.00000    0.00000    4.40720    0.00000    0.00000    0.00000  # c1,cp,cp,cp
dihedral_coeff	15    0.00000    0.00000    1.55900    0.00000    0.00000    0.00000  # c1,cp,cp,hc
dihedral_coeff	16   -0.02280    0.00000    0.02800    0.00000   -0.18630    0.00000  # cp,c,c,hc
dihedral_coeff	17   -0.02280    0.00000    0.02800    0.00000   -0.18630    0.00000  # cp,c1,c,hc
dihedral_coeff	18   -0.28010    0.00000   -0.06780    0.00000   -0.01220    0.00000  # cp,cp,c,hc
dihedral_coeff	19   -0.28010    0.00000   -0.06780    0.00000   -0.01220    0.00000  # cp,cp,c1,hc
dihedral_coeff	20    8.36670    0.00000    1.19320    0.00000    0.00000    0.00000  # cp,cp,cp,cp
dihedral_coeff	21    0.00000    0.00000    3.96610    0.00000    0.00000    0.00000  # cp,cp,cp,hc
dihedral_coeff	22   -0.14320    0.00000    0.06170    0.00000   -0.10830    0.00000  # hc,c,c,hc
dihedral_coeff	23   -0.14320    0.00000    0.06170    0.00000   -0.10830    0.00000  # hc,c,c1,hc
dihedral_coeff	24    0.00000    0.00000    1.87690    0.00000    0.00000    0.00000  # hc,cp,cp,hc

# MiddleBondTorsion Coeffs

dihedral_coeff	 1 mbt  -17.78700   -7.18770    0.00000    1.53000  # c,c,c1,c
dihedral_coeff	 2 mbt    0.00000    0.00000    0.00000    1.53000  # c,c,c1,cp
dihedral_coeff	 3 mbt  -14.87900   -3.65810   -0.31380    1.53000  # c,c,c1,hc
dihedral_coeff	 4 mbt    0.00000    0.00000    0.00000    1.50100  # c,c,cp,cp
dihedral_coeff	 5 mbt  -17.78700   -7.18770    0.00000    1.53000  # c,c1,c,c1
dihedral_coeff	 6 mbt  -14.87900   -3.65810   -0.31380    1.53000  # c,c1,c,hc
dihedral_coeff	 7 mbt    0.00000    0.00000    0.00000    1.50100  # c,c1,cp,cp
dihedral_coeff	 8 mbt    0.00000    9.17920    0.00000    1.41700  # c,cp,cp,cp
dihedral_coeff	 9 mbt    0.00000    3.94210    0.00000    1.41700  # c,cp,cp,hc
dihedral_coeff	10 mbt    0.00000    0.00000    0.00000    1.53000  # c1,c,c,cp
dihedral_coeff	11 mbt  -14.87900   -3.65810   -0.31380    1.53000  # c1,c,c,hc
dihedral_coeff	12 mbt    0.00000    0.00000    0.00000    1.53000  # c1,c,c1,cp
dihedral_coeff	13 mbt  -14.87900   -3.65810   -0.31380    1.53000  # c1,c,c1,hc
dihedral_coeff	14 mbt    0.00000    9.17920    0.00000    1.41700  # c1,cp,cp,cp
dihedral_coeff	15 mbt    0.00000    3.94210    0.00000    1.41700  # c1,cp,cp,hc
dihedral_coeff	16 mbt    0.00000    0.00000    0.00000    1.53000  # cp,c,c,hc
dihedral_coeff	17 mbt    0.00000    0.00000    0.00000    1.53000  # cp,c1,c,hc
dihedral_coeff	18 mbt   -5.56790    1.40830    0.30100    1.50100  # cp,cp,c,hc
dihedral_coeff	19 mbt   -5.56790    1.40830    0.30100    1.50100  # cp,cp,c1,hc
dihedral_coeff	20 mbt   27.59890   -2.31200    0.00000    1.41700  # cp,cp,cp,cp
dihedral_coeff	21 mbt    0.00000   -1.15210    0.00000    1.41700  # cp,cp,cp,hc
dihedral_coeff	22 mbt  -14.26100   -0.53220   -0.48640    1.53000  # hc,c,c,hc
dihedral_coeff	23 mbt  -14.26100   -0.53220   -0.48640    1.53000  # hc,c,c1,hc
dihedral_coeff	24 mbt    0.00000    4.82280    0.00000    1.41700  # hc,cp,cp,hc

# EndBondTorsion Coeffs

dihedral_coeff	 1 ebt   -0.07320    0.00000    0.00000   -0.07320    0.00000    0.00000    1.53000    1.53000  # c,c,c1,c
dihedral_coeff	 2 ebt    0.00000    0.00000    0.00000    0.00000    0.00000    0.00000    1.53000    1.50100  # c,c,c1,cp
dihedral_coeff	 3 ebt    0.24860    0.24220   -0.09250    0.08140    0.05910    0.22190    1.53000    1.10100  # c,c,c1,hc
dihedral_coeff	 4 ebt    0.00000    0.00000    0.00000    0.00000    0.00000    0.00000    1.53000    1.41700  # c,c,cp,cp
dihedral_coeff	 5 ebt   -0.07320    0.00000    0.00000   -0.07320    0.00000    0.00000    1.53000    1.53000  # c,c1,c,c1
dihedral_coeff	 6 ebt    0.24860    0.24220   -0.09250    0.08140    0.05910    0.22190    1.53000    1.10100  # c,c1,c,hc
dihedral_coeff	 7 ebt    0.00000    0.00000    0.00000    0.00000    0.00000    0.00000    1.53000    1.41700  # c,c1,cp,cp
dihedral_coeff	 8 ebt    0.00000    0.24210    0.00000    0.00000   -0.69180    0.00000    1.50100    1.41700  # c,cp,cp,cp
dihedral_coeff	 9 ebt    0.00000   -1.79700    0.00000    0.00000   -0.48790    0.00000    1.50100    1.09820  # c,cp,cp,hc
dihedral_coeff	10 ebt    0.00000    0.00000    0.00000    0.00000    0.00000    0.00000    1.53000    1.50100  # c1,c,c,cp
dihedral_coeff	11 ebt    0.24860    0.24220   -0.09250    0.08140    0.05910    0.22190    1.53000    1.10100  # c1,c,c,hc
dihedral_coeff	12 ebt    0.00000    0.00000    0.00000    0.00000    0.00000    0.00000    1.53000    1.50100  # c1,c,c1,cp
dihedral_coeff	13 ebt    0.24860    0.24220   -0.09250    0.08140    0.05910    0.22190    1.53000    1.10100  # c1,c,c1,hc
dihedral_coeff	14 ebt    0.00000    0.24210    0.00000    0.00000   -0.69180    0.00000    1.50100    1.41700  # c1,cp,cp,cp
dihedral_coeff	15 ebt    0.00000   -1.79700    0.00000    0.00000   -0.48790    0.00000    1.50100    1.09820  # c1,cp,cp,hc
dihedral_coeff	16 ebt    0.00000    0.00000    0.00000    0.00000    0.00000    0.00000    1.50100    1.10100  # cp,c,c,hc
dihedral_coeff	17 ebt    0.00000    0.00000    0.00000    0.00000    0.00000    0.00000    1.50100    1.10100  # cp,c1,c,hc
dihedral_coeff	18 ebt   -0.58350    1.12200    0.39780    1.39970    0.77560    0.00000    1.41700    1.10100  # cp,cp,c,hc
dihedral_coeff	19 ebt   -0.58350    1.12200    0.39780    1.39970    0.77560    0.00000    1.41700    1.10100  # cp,cp,c1,hc
dihedral_coeff	20 ebt   -0.11850    6.32040    0.00000   -0.11850    6.32040    0.00000    1.41700    1.41700  # cp,cp,cp,cp
dihedral_coeff	21 ebt    0.00000   -6.89580    0.00000    0.00000   -0.46690    0.00000    1.41700    1.09820  # cp,cp,cp,hc
dihedral_coeff	22 ebt    0.21300    0.31200    0.07770    0.21300    0.31200    0.07770    1.10100    1.10100  # hc,c,c,hc
dihedral_coeff	23 ebt    0.21300    0.31200    0.07770    0.21300    0.31200    0.07770    1.10100    1.10100  # hc,c,c1,hc
dihedral_coeff	24 ebt    0.00000   -0.68900    0.00000    0.00000   -0.68900    0.00000    1.09820    1.09820  # hc,cp,cp,hc

# AngleTorsion Coeffs

dihedral_coeff	 1 at    0.38860   -0.31390    0.13890    0.38860   -0.31390    0.13890  112.67000  112.67000  # c,c,c1,c
dihedral_coeff	 2 at    0.00000    0.00000    0.00000    0.00000    0.00000    0.00000  112.67000  108.40000  # c,c,c1,cp
dihedral_coeff	 3 at   -0.24540    0.00000   -0.11360    0.31130    0.45160   -0.19880  112.67000  110.77000  # c,c,c1,hc
dihedral_coeff	 4 at    0.00000    0.00000    0.00000    0.00000    0.00000    0.00000  108.40000  120.05000  # c,c,cp,cp
dihedral_coeff	 5 at    0.38860   -0.31390    0.13890    0.38860   -0.31390    0.13890  112.67000  112.67000  # c,c1,c,c1
dihedral_coeff	 6 at   -0.24540    0.00000   -0.11360    0.31130    0.45160   -0.19880  112.67000  110.77000  # c,c1,c,hc
dihedral_coeff	 7 at    0.00000    0.00000    0.00000    0.00000    0.00000    0.00000  108.40000  120.05000  # c,c1,cp,cp
dihedral_coeff	 8 at    0.00000   -4.46830    0.00000    0.00000    3.89870    0.00000  120.05000  118.90000  # c,cp,cp,cp
dihedral_coeff	 9 at    0.00000   -0.12420    0.00000    0.00000    3.46010    0.00000  120.05000  117.94000  # c,cp,cp,hc
dihedral_coeff	10 at    0.00000    0.00000    0.00000    0.00000    0.00000    0.00000  112.67000  108.40000  # c1,c,c,cp
dihedral_coeff	11 at   -0.24540    0.00000   -0.11360    0.31130    0.45160   -0.19880  112.67000  110.77000  # c1,c,c,hc
dihedral_coeff	12 at    0.00000    0.00000    0.00000    0.00000    0.00000    0.00000  112.67000  108.40000  # c1,c,c1,cp
dihedral_coeff	13 at   -0.24540    0.00000   -0.11360    0.31130    0.45160   -0.19880  112.67000  110.77000  # c1,c,c1,hc
dihedral_coeff	14 at    0.00000   -4.46830    0.00000    0.00000    3.89870    0.00000  120.05000  118.90000  # c1,cp,cp,cp
dihedral_coeff	15 at    0.00000   -0.12420    0.00000    0.00000    3.46010    0.00000  120.05000  117.94000  # c1,cp,cp,hc
dihedral_coeff	16 at    0.00000    0.00000    0.00000    0.00000    0.00000    0.00000  108.40000  110.77000  # cp,c,c,hc
dihedral_coeff	17 at    0.00000    0.00000    0.00000    0.00000    0.00000    0.00000  108.40000  110.77000  # cp,c1,c,hc
dihedral_coeff	18 at    0.22510    0.65480    0.12370    4.62660    0.16320    0.04610  120.05000  111.00000  # cp,cp,c,hc
dihedral_coeff	19 at    0.22510    0.65480    0.12370    4.62660    0.16320    0.04610  120.05000  111.00000  # cp,cp,c1,hc
dihedral_coeff	20 at    1.97670    1.02390    0.00000    1.97670    1.02390    0.00000  118.90000  118.90000  # cp,cp,cp,cp
dihedral_coeff	21 at    0.00000    2.50140    0.00000    0.00000    2.71470    0.00000  118.90000  117.94000  # cp,cp,cp,hc
dihedral_coeff	22 at   -0.80850    0.55690   -0.24660   -0.80850    0.55690   -0.24660  110.77000  110.77000  # hc,c,c,hc
dihedral_coeff	23 at   -0.80850    0.55690   -0.24660   -0.80850    0.55690   -0.24660  110.77000  110.77000  # hc,c,c1,hc
dihedral_coeff	24 at    0.00000    2.45010    0.00000    0.00000    2.45010    0.00000  117.94000  117.94000  # hc,cp,cp,hc

# AngleAngleTorsion Coeffs

dihedral_coeff	 1 aat  -22.04500  112.67000  112.67000  # c,c,c1,c
dihedral_coeff	 2 aat    0.00000  112.67000  108.40000  # c,c,c1,cp
dihedral_coeff	 3 aat  -16.16400  112.67000  110.77000  # c,c,c1,hc
dihedral_coeff	 4 aat    0.00000  108.40000  120.05000  # c,c,cp,cp
dihedral_coeff	 5 aat  -22.04500  112.67000  112.67000  # c,c1,c,c1
dihedral_coeff	 6 aat  -16.16400  112.67000  110.77000  # c,c1,c,hc
dihedral_coeff	 7 aat    0.00000  108.40000  120.05000  # c,c1,cp,cp
dihedral_coeff	 8 aat  -14.40970  120.05000  118.90000  # c,cp,cp,cp
dihedral_coeff	 9 aat    4.44440  120.05000  117.94000  # c,cp,cp,hc
dihedral_coeff	10 aat    0.00000  112.67000  108.40000  # c1,c,c,cp
dihedral_coeff	11 aat  -16.16400  112.67000  110.77000  # c1,c,c,hc
dihedral_coeff	12 aat    0.00000  112.67000  108.40000  # c1,c,c1,cp
dihedral_coeff	13 aat  -16.16400  112.67000  110.77000  # c1,c,c1,hc
dihedral_coeff	14 aat  -14.40970  120.05000  118.90000  # c1,cp,cp,cp
dihedral_coeff	15 aat    4.44440  120.05000  117.94000  # c1,cp,cp,hc
dihedral_coeff	16 aat    0.00000  108.40000  110.77000  # cp,c,c,hc
dihedral_coeff	17 aat    0.00000  108.40000  110.77000  # cp,c1,c,hc
dihedral_coeff	18 aat   -5.88880  120.05000  111.00000  # cp,cp,c,hc
dihedral_coeff	19 aat   -5.88880  120.05000  111.00000  # cp,cp,c1,hc
dihedral_coeff	20 aat    0.00000  118.90000  118.90000  # cp,cp,cp,cp
dihedral_coeff	21 aat   -4.81410  118.90000  117.94000  # cp,cp,cp,hc
dihedral_coeff	22 aat  -12.56400  110.77000  110.77000  # hc,c,c,hc
dihedral_coeff	23 aat  -12.56400  110.77000  110.77000  # hc,c,c1,hc
dihedral_coeff	24 aat    0.35980  117.94000  117.94000  # hc,cp,cp,hc

# BondBond13 Coeffs

dihedral_coeff	 1 bb13    0.00000    1.53000    1.53000  # c,c,c1,c
dihedral_coeff	 2 bb13    0.00000    1.53000    1.50100  # c,c,c1,cp
dihedral_coeff	 3 bb13    0.00000    1.53000    1.10100  # c,c,c1,hc
dihedral_coeff	 4 bb13    0.00000    1.53000    1.41700  # c,c,cp,cp
dihedral_coeff	 5 bb13    0.00000    1.53000    1.53000  # c,c1,c,c1
dihedral_coeff	 6 bb13    0.00000    1.53000    1.10100  # c,c1,c,hc
dihedral_coeff	 7 bb13    0.00000    1.53000    1.41700  # c,c1,cp,cp
dihedral_coeff	 8 bb13    2.50850    1.50100    1.41700  # c,cp,cp,cp
dihedral_coeff	 9 bb13    0.87430    1.50100    1.09820  # c,cp,cp,hc
dihedral_coeff	10 bb13    0.00000    1.53000    1.50100  # c1,c,c,cp
dihedral_coeff	11 bb13    0.00000    1.53000    1.10100  # c1,c,c,hc
dihedral_coeff	12 bb13    0.00000    1.53000    1.50100  # c1,c,c1,cp
dihedral_coeff	13 bb13    0.00000    1.53000    1.10100  # c1,c,c1,hc
dihedral_coeff	14 bb13    2.50850    1.50100    1.41700  # c1,cp,cp,cp
dihedral_coeff	15 bb13    0.87430    1.50100    1.09820  # c1,cp,cp,hc
dihedral_coeff	16 bb13    0.00000    1.50100    1.10100  # cp,c,c,hc
dihedral_coeff	17 bb13    0.00000    1.50100    1.10100  # cp,c1,c,hc
dihedral_coeff	18 bb13   -3.48260    1.41700    1.10100  # cp,cp,c,hc
dihedral_coeff	19 bb13   -3.48260    1.41700    1.10100  # cp,cp,c1,hc
dihedral_coeff	20 bb13   53.00000    1.41700    1.41700  # cp,cp,cp,cp
dihedral_coeff	21 bb13   -6.27410    1.41700    1.09820  # cp,cp,cp,hc
dihedral_coeff	22 bb13    0.00000    1.10100    1.10100  # hc,c,c,hc
dihedral_coeff	23 bb13    0.00000    1.10100    1.10100  # hc,c,c1,hc
dihedral_coeff	24 bb13   -1.70770    1.09820    1.09820  # hc,cp,cp,hc

# Improper Coeffs

improper_coeff	 1    0.00000    0.00000  # c,c,cp,hc
improper_coeff	 2    0.00000    0.00000  # c,c,hc,c1
improper_coeff	 3    0.00000    0.00000  # c,c,hc,cp
improper_coeff	 4    0.00000    0.00000  # c,c,hc,hc
improper_coeff	 5    0.00000    0.00000  # c,c1,c1,hc
improper_coeff	 6    0.00000    0.00000  # c,c1,hc,hc
improper_coeff	 7    0.00000    0.00000  # c,cp,hc,hc
improper_coeff	 8    0.00000    0.00000  # c,hc,hc,hc
improper_coeff	 9    0.00000    0.00000  # c1,c,c,cp
improper_coeff	10    0.00000    0.00000  # c1,c,c,hc
improper_coeff	11    0.00000    0.00000  # c1,c,cp,hc
improper_coeff	12    7.81530    0.00000  # cp,c,cp,cp
improper_coeff	13    7.81530    0.00000  # cp,c1,cp,cp
improper_coeff	14    4.89120    0.00000  # cp,cp,cp,hc

# AngleAngle Coeffs

improper_coeff	 1 aa    2.04030   -1.82020    1.08270  108.40000  110.77000  111.00000  # c,c,cp,hc
improper_coeff	 2 aa    0.11840   -1.31990   -1.31990  110.77000  112.67000  110.77000  # c,c,hc,c1
improper_coeff	 3 aa    1.08270   -1.82020    2.04030  110.77000  108.40000  111.00000  # c,c,hc,cp
improper_coeff	 4 aa    0.27380   -0.48250    0.27380  110.77000  110.77000  107.66000  # c,c,hc,hc
improper_coeff	 5 aa   -1.31990   -1.31990    0.11840  112.67000  110.77000  110.77000  # c,c1,c1,hc
improper_coeff	 6 aa    0.27380   -0.48250    0.27380  110.77000  110.77000  107.66000  # c,c1,hc,hc
improper_coeff	 7 aa    2.37940    3.01180    2.37940  111.00000  111.00000  107.66000  # c,cp,hc,hc
improper_coeff	 8 aa   -0.31570   -0.31570   -0.31570  107.66000  107.66000  107.66000  # c,hc,hc,hc
improper_coeff	 9 aa    0.00000    0.00000    0.00000  112.67000  108.40000  108.40000  # c1,c,c,cp
improper_coeff	10 aa   -1.31990   -1.31990    0.11840  112.67000  110.77000  110.77000  # c1,c,c,hc
improper_coeff	11 aa    2.04030   -1.82020    1.08270  108.40000  110.77000  111.00000  # c1,c,cp,hc
improper_coeff	12 aa    0.00000    0.00000    0.00000  120.05000  120.05000  118.90000  # cp,c,cp,cp
improper_coeff	13 aa    0.00000    0.00000    0.00000  120.05000  120.05000  118.90000  # cp,c1,cp,cp
improper_coeff	14 aa    0.00000    0.00000    0.00000  118.90000  117.94000  117.94000  # cp,cp,cp,hc


# --- Thermo Output ---
thermo_style custom step time temp press enthalpy etotal ke pe ebond eangle edihed eimp evdwl ecoul elong etail vol lx ly lz density pxx pyy pzz
thermo_modify flush yes
thermo 1000

# --- Trajectory ---
dump dump_npt all custom 1000 npt_production.dump id type mol x y z ix iy iz vx vy vz

# --- Restart Checkpointing ---
# No restart checkpointing

# --- Initial Velocities (optional) ---
# Velocities read from data file

# --- SHAKE Constraints ---
# SHAKE disabled

# --- NPT Thermostat + Barostat (Nose-Hoover) ---
# T_damp = 100.0 fs  (heat bath coupling)
# P_damp = 1000.0 fs  (pressure bath coupling, ~10x T_damp typical)
# Ramp: T=550.0->550.0K  P=1.0->1.0atm
timestep 1.0
fix npt_fix all npt temp 550.0 550.0 100.0 iso 1.0 1.0 1000.0

run 1000000
PPPM Kokkos initialization ...
  using 12-bit tables for long-range coulomb
  G vector (1/distance) = 0.29966159
  grid = 30 30 30
  stencil order = 5
  estimated absolute RMS force accuracy = 0.00030237773
  estimated relative force accuracy = 9.1060156e-07
  using double precision cuFFT
  3d grid and FFT values/proc = 50653 27000
Generated 6 of 6 mixed pair_coeff terms from sixthpower/sixthpower mixing rule
Neighbor list info ...
  update: every = 1 steps, delay = 0 steps, check = yes
  max neighbors/atom: 4000, page size: 100000
  master list distance cutoff = 11.5
  ghost atom cutoff = 11.5
  binsize = 11.5, bins = 4 4 4
  1 neighbor lists, perpetual/occasional/extra = 1 0 0
  (1) pair lj/class2/coul/long/kk, perpetual
      attributes: full, newton off, kokkos_device
      pair build: full/bin/kk/device
      stencil: full/bin/3d
      bin: kk/device
Per MPI rank memory allocation (min/avg/max) = 40.41 | 40.41 | 40.41 Mbytes
   Step          Time           Temp          Press         Enthalpy        TotEng         KinEng         PotEng         E_bond        E_angle        E_dihed        E_impro         E_vdwl         E_coul         E_long         E_tail         Volume           Lx             Ly             Lz          Density          Pxx            Pyy            Pzz      
         0   0              547.74401     -233.71535      19229.643      19496.045      10480.435      9015.6101      4799.0732      4180.2228     -1075.0445      348.53938      833.90962      3826.2356     -3897.326      -368.00149      78158.097      42.755435      42.755435      42.755435      0.88555755     1417.4488     -809.96136     -1308.6335    
      1000   1000           555.98054      525.12642      20182.115      19587.243      10638.031      8949.2115      4565.8389      4242.9039     -998.84351      379.53752      839.08382      3824.183      -3903.4922     -370.2881       77675.454      42.667245      42.667245      42.667245      0.89106004     461.1019       1031.1352      83.142137    
      2000   2000           549.37686      322.63633      19723.864      19366.087      10511.678      8854.4093      4704.1006      4163.1481     -1121.0341      363.19054      825.54751      3828.9136     -3909.457      -378.26916      76036.588      42.365032      42.365032      42.365032      0.91026563     2380.1129     -1428.8588      16.654892    
      3000   3000           552.67802      1015.7381      20554.322      19394.509      10574.841      8819.6675      4546.5179      4231.2161     -1082.2086      342.85624      858.85731      3819.1926     -3896.764      -367.36117      78294.329      42.780262      42.780262      42.780262      0.88401668     1679.9998     -90.461638      1457.6761    
      4000   4000           549.01612     -1128.6581      18315.578      19583.316      10504.775      9078.5404      4714.4303      4181.5931     -921.25158      386.29822      778.82678      3838.8942     -3900.2505     -373.44986      77017.826      42.546491      42.546491      42.546491      0.89866848    -1717.1696     -747.70386     -921.10071    
      5000   5000           551.59906      352.23264      19847.069      19449.661      10554.197      8895.4642      4664.8584      4168.7103     -1042.6868      372.5594       814.09188      3822.3274     -3904.3963     -371.78585      77362.537      42.609872      42.609872      42.609872      0.89466421     1975.18       -400.88579     -517.59632    
      6000   6000           545.80699      1901.7317      21401.639      19262.209      10443.373      8818.8368      4467.0079      4241.471      -1062.113       383.24984      887.93218      3805.0584     -3903.7695     -372.86414      77138.811      42.568758      42.568758      42.568758      0.89725901     2821.673       2413.8905      469.63149    
      7000   7000           546.87629      39.859253      19647.239      19601.897      10463.832      9138.0649      4670.3588      4325.7094     -1012.3007      385.16486      864.07733      3809.5146     -3904.4594     -368.74932      77999.592      42.726512      42.726512      42.726512      0.88735711    -482.67491     -529.76267      1132.0153    
      8000   8000           557.07132     -302.65281      19318.084      19659.445      10658.902      9000.5432      4625.8519      4209.9841     -971.00167      392.6927       831.42322      3814.3254     -3902.7324     -371.90323      77338.12       42.605389      42.605389      42.605389      0.89494667    -505.37357     -314.87637     -87.708494    
      9000   9000           548.04817     -105.02054      19392.471      19513.256      10486.255      9027.0006      4635.7189      4206.0319     -1005.6345      374.69376      888.27208      3822.2523     -3894.3339     -364.72211      78860.852      42.883197      42.883197      42.883197      0.87766606     378.12865     -1206.6244      513.43409    
     10000   10000          556.17667     -477.26338      19063.808      19597.935      10641.784      8956.1509      4615.0635      4280.7987     -1045.768       363.87285      822.53321      3817.8176     -3898.167      -374.81192      76737.945      42.494891      42.494891      42.494891      0.90194614    -2839.9717      59.121845      1349.0597    
     11000   11000          538.75088     -1123.6572      18101.85       19379.578      10308.362      9071.2158      4849.6412      4153.582      -1030.8186      368.76154      815.18946      3811.9998     -3897.1397     -368.88839      77970.187      42.721142      42.721142      42.721142      0.88769177    -1122.1599     -1687.5917     -561.22016    
     12000   12000          549.55868      161.92461      19479.328      19298.842      10515.157      8783.6853      4589.1815      4179.6334     -1069.8356      360.00788      814.95428      3813.9979     -3904.2541     -376.33048      76428.294      42.437656      42.437656      42.437656      0.90560039     107.32195      136.73481      241.71706    
     13000   13000          541.76301      163.15281      19726.627      19541.288      10365.996      9175.2923      4666.038       4242.0664     -982.85379      377.42265      934.23981      3832.0431     -3893.6638     -369.25512      77892.75       42.706995      42.706995      42.706995      0.88857427     1921.4647      19.650307     -1451.6566    
     14000   14000          550.15176      944.68454      20609.875      19531.911      10526.505      9005.4067      4708.9876      4195.0579     -1082.2708      393.05873      876.50429      3813.695      -3899.626      -367.60544      78242.305      42.770784      42.770784      42.770784      0.88460448    -340.62695      1783.9235      1390.7571    
     15000   15000          548.07092     -13.786981      19506.034      19521.801      10486.69       9035.1111      4754.7533      4188.3562     -1072.6179      361.69414      882.56491      3817.5241     -3897.1637     -366.79307      78415.594      42.802337      42.802337      42.802337      0.8826496      252.89085     -1650.492       1356.2402    
     16000   16000          559.89203      154.85443      19873.131      19696.621      10712.873      8983.748       4634.7636      4251.5536     -1093.8902      382.79599      878.86103      3823.8401     -3894.176      -368.00547      78157.252      42.755281      42.755281      42.755281      0.88556713    -625.39626     -1092.0293      2181.9888    
     17000   17000          547.69651     -1349.4631      17993.484      19539.073      10479.526      9059.5469      4753.231       4199.154      -1086.3522      364.72705      918.59138      3810.3804     -3900.1848     -366.24064      78533.876      42.823847      42.823847      42.823847      0.88132023    -1622.4741     -933.81823     -1492.097     
     18000   18000          546.93786      806.3796       20394.572      19478.41       10465.01       9013.3997      4612.6906      4206.9676     -993.85919      381.88517      884.08798      3824.6307     -3903.0033     -369.20415      77903.503      42.70896       42.70896       42.70896       0.88845161     1574.8618      959.71546     -115.43846    
     19000   19000          550.93094     -391.76429      19055.819      19505.415      10541.413      8964.0014      4670.339       4216.3095     -1113.1191      360.68178      910.72994      3811.7053     -3892.645      -365.51239      78690.345      42.852268      42.852268      42.852268      0.87956779     221.6582      -472.52116     -924.42991    
     20000   20000          539.66827     -1157.4491      17921.054      19237.291      10325.915      8911.3752      4752.06        4048.385      -1019.8476      376.02831      836.31311      3816.9853     -3898.549      -368.86485      77975.161      42.722051      42.722051      42.722051      0.88763514    -575.87049     -1320.9013     -1575.5755    
     21000   21000          546.59412      22.565387      19578.54       19552.892      10458.433      9094.4588      4801.4033      4223.8669     -1042.9887      357.09711      829.0829       3824.0498     -3898.0525     -369.04978      77936.09       42.714914      42.714914      42.714914      0.88808013    -189.30953      1847.5047     -1590.499     
     22000   22000          547.44136      1514.0108      21211.557      19482.821      10474.644      9008.177       4783.296       4183.3653     -1125.975       361.95106      895.22652      3814.4733     -3904.1601     -367.36676      78293.138      42.780045      42.780045      42.780045      0.88403013     866.34702      2146.0285      1529.6569    
     23000   23000          562.47275      1071.4049      21120.93       19910.056      10762.252      9147.8038      4680.0602      4313.404      -1013.7691      374.6214       884.90103      3813.3272     -3904.7409     -371.154        77494.238      42.634038      42.634038      42.634038      0.89314374     843.72535      931.03724      1439.452     
     24000   24000          543.73197     -487.09768      18753.857      19311.314      10403.67       8907.6443      4629.1195      4133.9105     -1027.6279      372.34391      881.77314      3817.0998     -3898.9746     -366.52575      78472.786      42.81274       42.81274       42.81274       0.88200632    -1967.5394      570.38314     -64.136805    
     25000   25000          546.48253      2910.769       22783.413      19470.159      10456.298      9013.8603      4669.8242      4208.1483     -1070.8664      380.42742      891.45697      3831.5052     -3896.6354     -368.51272      78049.671      42.735655      42.735655      42.735655      0.88678776     989.4884       3806.2195      3936.5992    
     26000   26000          550.08439     -1331.276       17790.595      19298.483      10525.216      8773.2672      4609.573       4132.0447     -1035.3516      359.22744      791.68282      3820.7108     -3904.62       -370.33815      77664.956      42.665323      42.665323      42.665323      0.89118048    -963.84878     -147.90809     -2882.071     
     27000   27000          557.74262      2286.8688      22202.417      19606.661      10671.747      8934.9141      4771.9017      4108.6706     -1133.8766      353.59548      928.28922      3808.0442     -3901.7105     -369.55308      77829.946      42.695514      42.695514      42.695514      0.88929129     433.36805      3099.0163      3328.2219    
     28000   28000          553.939       -1225.8621      18008.616      19394.575      10598.969      8795.6066      4647.8668      4178.9126     -1081.8736      357.68927      786.22172      3810.1054     -3903.3156     -371.01423      77523.432      42.639391      42.639391      42.639391      0.89280739    -1288.6709     -2292.0844     -96.830938    
     29000   29000          562.55024     -1205.121       18516.468      19877.948      10763.735      9114.2131      4774.7344      4216.5446     -1009.3965      386.41025      828.59466      3821.7378     -3904.4122     -371.29488      77464.834      42.628645      42.628645      42.628645      0.89348275    -1071.0131     -3336.0691      791.71925    
     30000   30000          558.23262      607.49143      20289.362      19593.109      10681.122      8911.9862      4617.2905      4133.38       -1077.9471      370.42222      943.43515      3824.8343     -3899.4288     -365.99233      78587.156      42.833529      42.833529      42.833529      0.88072271    -833.39972      1623.1871      1032.6869    
     31000   31000          547.066       -1666.9642      17539.694      19398.246      10467.462      8930.7833      4804.0263      4160.9322     -1098.3749      365.31394      773.18855      3830.0601     -3904.3629     -376.22801      76449.11       42.441508      42.441508      42.441508      0.90535382    -2812.9389     -1516.6163     -671.33726    
     32000   32000          555.59163      1654.4959      21303.245      19437.089      10630.59       8806.4987      4576.1895      4148.0804     -1108.7277      379.8737       885.64569      3824.0329     -3898.5958     -371.89231      77340.391      42.605806      42.605806      42.605806      0.8949204      1682.5986      1123.3757      2157.5136    
     33000   33000          553.80433      207.98991      19808.969      19570.633      10596.392      8974.2403      4693.7313      4121.8701     -1022.1361      369.80394      886.04613      3819.3406     -3894.4156     -366.05933      78572.773      42.830916      42.830916      42.830916      0.88088393     1328.0951     -874.81195      170.68654    
     34000   34000          548.46617     -1620.6986      17577.232      19389.28       10494.253      8895.0272      4595.413       4181.3927     -944.8583       383.51543      753.86618      3832.6291     -3906.931      -375.17338      76664.011      42.48124       42.48124       42.48124       0.90281596    -995.632       -2710.7589     -1155.705     
     35000   35000          546.67504     -146.2768       19241.158      19405.57       10459.982      8945.5885      4688.7215      4207.6978     -1092.0447      362.87744      862.66648      3822.4116     -3906.7418     -373.19995      77069.4        42.555986      42.555986      42.555986      0.89806711    -296.03515      2074.3514     -2217.1467    
     36000   36000          553.38304      133.54106      19731.642      19580.728      10588.331      8992.3966      4606.7148      4218.6914     -992.35378      373.24691      865.18857      3823.469      -3902.5602     -371.17977      77488.859      42.633052      42.633052      42.633052      0.89320574     1943.7904     -1710.2037      167.03651    
     37000   37000          557.42436      1285.7642      21040.419      19580.078      10665.657      8914.4205      4601.8457      4303.4846     -1148.7028      358.48293      882.33526      3815.7925     -3898.8177     -369.32308      77878.416      42.704375      42.704375      42.704375      0.88873782    -8.5365975      23.881693      3841.9474    
     38000   38000          560.96905     -995.86554      18338.502      19445.421      10733.481      8711.9402      4573.0491      4184.899      -1064.3717      354.44854      752.83858      3820.0475     -3908.9708     -377.38491      76214.751      42.398095      42.398095      42.398095      0.90813776     83.005699     -1393.0028     -1677.5995    
     39000   39000          555.76331      478.52602      20171.821      19634.425      10633.875      9000.5503      4721.7885      4245.6155     -1135.1187      362.62678      888.52575      3822.2215     -3905.1089     -373.51751      77003.877      42.543923      42.543923      42.543923      0.89883128     830.86492      719.86929     -115.15616    
     40000   40000          541.66758     -228.67882      18960.91       19221.372      10364.17       8857.2018      4595.1222      4248.2154     -1114.7301      355.16608      860.35637      3818.1071     -3905.0353     -368.28295      78098.365      42.74454       42.74454       42.74454       0.88623485     1895.1521      421.75495     -3002.9435    
     41000   41000          556.69141      437.50933      19942.48       19455.637      10651.633      8804.0042      4608.3139      4181.2834     -1077.6255      355.46674      823.33944      3819.8733     -3906.6471     -376.96271      76300.111      42.413918      42.413918      42.413918      0.90712178     293.60479      1630.3103     -611.38705    
     42000   42000          548.75499      1490.0429      21039.876      19353.692      10499.779      8853.9125      4598.1145      4140.6393     -1073.6173      383.60755      882.50034      3821.7483     -3899.0801     -370.6748       77594.421      42.652403      42.652403      42.652403      0.89199058    -487.66297      2809.062       2148.7297    
     43000   43000          543.94684     -675.8903       18627.459      19393.552      10407.781      8985.7708      4641.7005      4191.3397     -1007.6989      376.77088      851.57282      3830.7501     -3898.6642     -370.0789       77719.363      42.675283      42.675283      42.675283      0.89055661    -2003.1671      77.56956      -102.07341    
     44000   44000          552.23826     -2287.7519      17038.753      19597.199      10566.427      9030.7719      4624.1422      4245.1054     -969.33103      373.22416      839.62197      3822.1132     -3904.1039     -375.08708      76681.65       42.484497      42.484497      42.484497      0.90260829    -1678.6323     -3532.9815     -1651.6419    
     45000   45000          563.72762      59.529442      19927.055      19860.24       10786.263      9073.9772      4622.4064      4305.3204     -991.59639      375.32394      838.63125      3829.879      -3905.9874     -373.72728      76960.656      42.535961      42.535961      42.535961      0.89933606    -406.53403      4.5078478      580.61451    
     46000   46000          550.5355       108.30265      19597.493      19474.593      10533.847      8940.7457      4581.2131      4270.0177     -1032.7985      371.86884      847.78184      3808.5537     -3905.891      -369.64472      77810.652      42.691985      42.691985      42.691985      0.8895118      1054.1608      831.7825      -1561.0353    
     47000   47000          547.61648     -942.04249      18513.033      19576.634      10477.995      9098.6389      4760.2129      4251.8787     -1045.6057      379.53809      846.32047      3810.9741     -3904.6797     -371.52769      77416.292      42.619739      42.619739      42.619739      0.89404299    -751.08205     -652.51121     -1422.5342    
     48000   48000          552.76877     -23.027413      19384.531      19410.505      10576.578      8833.9272      4585.6776      4147.7633     -1015.8507      365.55386      839.77372      3813.9333     -3902.9238     -371.88688      77341.519      42.606013      42.606013      42.606013      0.89490734     722.29008      468.44226     -1259.8146    
     49000   49000          550.29871     -971.97899      18439.433      19515.605      10529.316      8986.2884      4653.2786      4256.7979     -1017.9027      362.77313      812.8514       3829.9865     -3911.4964     -378.85655      75918.7        42.343126      42.343126      42.343126      0.91167911    -1311.2121     -733.70319     -871.02162    
     50000   50000          555.58347     -985.83375      18536.857      19649.253      10630.434      9018.8193      4682.9225      4246.5578     -1013.8629      384.61078      810.03449      3811.0515     -3902.4948     -371.74365      77371.319      42.611485      42.611485      42.611485      0.89456267    -920.45286     -630.05571     -1406.9927    
     51000   51000          538.55377     -181.3152       19162.134      19365.502      10304.591      9060.9109      4682.573       4254.0405     -971.23333      370.07728      809.16169      3817.4846     -3901.1928     -373.98267      76908.101      42.526277      42.526277      42.526277      0.89995062     228.7831      -404.75222     -367.97649    
     52000   52000          552.38012     -1950.3077      17387.733      19586.958      10569.142      9017.816       4691.6946      4240.468      -1023.4049      381.88602      811.81509      3817.7673     -3902.4103     -371.99141      77319.787      42.602022      42.602022      42.602022      0.89515887    -1403.4112     -2519.7574     -1927.7544    
     53000   53000          540.1151       489.65575      19894.715      19344.428      10334.465      9009.9635      4822.5762      4180.3676     -1090.5037      370.25146      814.64346      3820.2031     -3907.5747     -373.25163      77058.729      42.554022      42.554022      42.554022      0.89819147     981.66628     -1.7663642      489.06734    
     54000   54000          556.98471      15.657976      19748.981      19731.287      10657.245      9074.0422      4792.0391      4278.0039     -1101.9932      376.48378      814.42267      3817.046      -3901.9601     -371.21313      77481.894      42.631774      42.631774      42.631774      0.89328603     1744.0742      832.23744     -2529.3377    
     55000   55000          553.44129     -1143.2757      18129.084      19421.727      10589.446      8832.2808      4665.6637      4167.7868     -1088.5401      346.06388      824.73766      3815.0296     -3898.4607     -370.99813      77526.797      42.640008      42.640008      42.640008      0.89276864    -1054.512      -1805.014      -570.30104    
     56000   56000          554.13725      344.88642      20029.507      19646.303      10602.762      9043.5408      4672.6982      4326.1565     -1088.7391      365.60454      838.2705       3831.7993     -3902.2491     -377.525        76186.468      42.39285       42.39285       42.39285       0.90847489    -634.41215      1205.4041      463.66735    
     57000   57000          544.48586     -1212.6313      18096.511      19484.164      10418.094      9066.0693      4764.2061      4333.9406     -1090.9175      369.63278      765.3925       3818.8484     -3895.0336     -366.56196      78465.033      42.81133       42.81133       42.81133       0.88209346     849.6146      -2345.3232     -2142.1854    
     58000   58000          544.77748      579.07348      19941.968      19288.474      10423.674      8864.7996      4528.1789      4310.635      -1015.9773      374.19121      757.32261      3815.4058     -3904.9567     -371.69864      77380.688      42.613205      42.613205      42.613205      0.89445436     891.2725       1363.5271     -517.57917    
     59000   59000          556.19727      455.215        20062.476      19551.112      10642.178      8908.9334      4703.4212      4025.1914     -996.38953      382.43612      876.83094      3821.4426     -3903.9993     -373.40976      77026.098      42.548015      42.548015      42.548015      0.89857198     9.0735548      2794.8164     -1438.245     
     60000   60000          548.52784      556.36603      20068.22       19442.54       10495.433      8947.1076      4715.8397      4231.2141     -1131.9786      365.78998      856.03478      3816.8536     -3906.646      -372.99919      77110.882      42.56362       42.56362       42.56362       0.89758399     305.74705      1174.9643      188.38674    
     61000   61000          548.9929      -1309.9023      17914.047      19371.404      10504.331      8867.073       4737.7182      4144.1641     -1025.8984      358.95916      721.24567      3840.0322     -3909.1479     -377.02689      76287.123      42.411511      42.411511      42.411511      0.90727622    -1765.3985     -1737.787      -426.52158    
     62000   62000          547.91841      819.88664      20461.698      19546.438      10483.772      9062.6662      4889.2573      4204.1433     -1143.4224      374.14895      824.96691      3816.1661     -3902.5941     -375.75864      76544.604      42.459173      42.459173      42.459173      0.90422432     291.59177      1389.1147      778.9534     
     63000   63000          547.3981      -681.91836      18700.085      19470.802      10473.817      8996.9852      4682.5384      4151.8693     -956.0939       377.91722      813.61748      3829.879      -3902.7423     -371.13908      77497.353      42.634609      42.634609      42.634609      0.89310783    -170.45725     -1746.479      -128.81887    
     64000   64000          545.63252      1209.8169      20683.163      19332.207      10440.034      8892.1724      4802.7845      4165.934      -1164.3607      370.29112      797.99844      3825.9828     -3906.4578     -375.64504      76567.752      42.463452      42.463452      42.463452      0.90395096     97.745014      1497.2598      2034.446     
     65000   65000          549.12694     -622.79095      18781.273      19485.906      10506.896      8979.0098      4650.4723      4164.4297     -972.34006      388.83138      826.38319      3827.7412     -3906.5079     -370.74836      77579.025      42.649581      42.649581      42.649581      0.89216761     221.19848     -1688.6344     -400.93698    
     66000   66000          552.83691      1482.2778      21198.06       19536.625      10577.882      8958.7432      4725.6352      4366.7325     -1209.915       374.94537      792.12203      3818.1543     -3908.9312     -374.2362       76855.997      42.516671      42.516671      42.516671      0.90056073     2454.0461      1536.862       455.92532    
     67000   67000          543.1564       1029.1237      20493.51       19327.195      10392.657      8934.5386      4700.5912      4143.66       -1043.5612      387.88063      831.24693      3819.8927     -3905.1717     -370.12732      77709.197      42.673422      42.673422      42.673422      0.89067312     1465.1094      1086.7411      535.52079    
     68000   68000          557.84401     -24.795895      19432.615      19460.514      10673.687      8786.8278      4527.5573      4218.4122     -1090.019       371.7485       822.57085      3838.3168     -3901.7588     -372.8126       77149.475      42.57072       42.57072       42.57072       0.89713498    -624.17705      336.8083       212.98106    
     69000   69000          539.70766      1352.3531      20950.008      19431.329      10326.669      9104.6599      4750.8443      4228.7383     -1046.4449      383.04215      863.66514      3829.3251     -3904.5102     -373.52837      77001.639      42.54351       42.54351       42.54351       0.8988574      983.91032      660.05105      2413.0978    
     70000   70000          551.8347       805.44719      20499.274      19598.491      10558.706      9039.7855      4595.4863      4326.9861     -1026.6467      380.92631      844.67523      3824.7233     -3906.365      -375.07342      76684.444      42.485013      42.485013      42.485013      0.9025754      1078.9704      2161.8724     -824.50122    
     71000   71000          546.65512      783.2578       20423.517      19541.574      10459.6        9081.9734      4706.189       4243.6708     -1052.5543      378.849        868.70793      3840.2659     -3903.155      -372.53215      77207.555      42.5814        42.5814        42.5814        0.8964601     -898.36223      2515.8941      732.24156    
     72000   72000          556.41415      1127.6373      20646.037      19376.387      10646.328      8730.0588      4599.8625      4225.1746     -1182.4519      352.26145      815.1446       3825.2182     -3905.1508     -372.55006      77203.843      42.580717      42.580717      42.580717      0.89650321    -267.95717      2531.0123      1119.8569    
     73000   73000          554.58679     -613.23148      18936.476      19627.44       10611.364      9016.0759      4815.8819      4243.773      -1108.3928      345.58948      795.03707      3826.1085     -3901.9212     -372.27911      77260.034      42.591045      42.591045      42.591045      0.89585119    -855.28198     -1855.7627      871.35023    
     74000   74000          552.69118      1137.9415      20833.45       19557.07       10575.093      8981.9769      4797.1779      4163.8498     -1082.3384      369.35171      820.76244      3819.0499     -3905.8764     -373.97227      76910.239      42.526671      42.526671      42.526671      0.8999256      1618.7936      2108.9648     -313.93389    
     75000   75000          553.43613     -795.21593      18663.071      19549.993      10589.347      8960.6454      4821.0515      4187.8426     -1136.3433      348.61234      844.93642      3805.8313     -3911.2855     -376.09672      76475.798      42.446447      42.446447      42.446447      0.90503787    -825.00435     -1334.4459     -226.19751    
     76000   76000          545.37103      941.67196      20415.84       19343.092      10435.031      8908.0614      4658.9174      4184.6402     -1054.5989      365.86172      833.53197      3821.053      -3901.3439     -368.21493      78112.792      42.747172      42.747172      42.747172      0.88607116     1176.5487      1181.973       466.4942     
     77000   77000          548.94834      102.66784      19773.117      19657.515      10503.479      9154.0369      4663.7807      4280.3597     -977.46777      363.95443      894.13535      3834.1365     -3904.862      -372.53627      77206.701      42.581243      42.581243      42.581243      0.89647002    -154.15523      747.75281     -285.59406    
     78000   78000          552.17794      1505.6264      21284.986      19582.901      10565.273      9017.6283      4734.7733      4233.8213     -1130.0596      355.78809      891.57386      3827.7767     -3896.0453     -371.0527       77515.395      42.637918      42.637918      42.637918      0.89289996     3168.5151      1325.0323      23.331684    
     79000   79000          545.37182     -795.05405      18473.226      19362.866      10435.046      8927.8203      4641.1309      4251.6018     -1052.0753      357.28688      811.71456      3826.0697     -3907.9082     -374.87062      76725.928      42.492673      42.492673      42.492673      0.9020874     -1068.249      -773.7871      -543.12607    
     80000   80000          550.6768      -394.42442      19116.037      19559.632      10536.551      9023.0813      4713.0482      4287.3292     -1066.052       372.27294      802.37999      3821.9552     -3907.8522     -372.97256      77116.388      42.564633      42.564633      42.564633      0.8975199     -814.35824      919.23365     -1288.1487    
     81000   81000          539.56696      827.34397      20206.586      19285.649      10323.977      8961.6717      4799.0338      4168.5946     -1096.6455      374.08845      799.27126      3826.6988     -3909.3697     -376.83876      76325.208      42.418568      42.418568      42.418568      0.90682351    -159.06849      850.12983      1790.9706    
     82000   82000          538.59752     -1359.0093      17724.912      19261.076      10305.428      8955.6485      4680.2384      4161.5946     -977.20798      380.15642      792.28022      3823.6872     -3905.1004     -371.09412      77506.743      42.636331      42.636331      42.636331      0.89299963    -1061.0526     -2393.3218     -622.65337    
     83000   83000          552.88919      225.52465      19849.574      19596.252      10578.882      9017.3703      4744.0647      4163.3631     -996.63588      379.91227      809.01571      3823.0408     -3905.3905     -373.44052      77019.753      42.546846      42.546846      42.546846      0.898646      -57.770666      1969.2824     -1234.9378    
     84000   84000          541.92175      915.35046      20390.921      19356.88       10369.033      8987.8468      4635.2106      4213.9321     -985.10713      385.1006       810.52452      3830.1823     -3901.9962     -371.32063      77459.462      42.62766       42.62766       42.62766       0.89354472     1184.5015      115.70248      1445.8474    
     85000   85000          548.89257      324.2555       19682.906      19317.042      10502.412      8814.6307      4649.0515      4109.7195     -1041.4602      371.29901      807.96407      3825.5476     -3907.4909     -371.76452      77366.975      42.610687      42.610687      42.610687      0.89461289     1513.4558      211.64536     -752.33464    
     86000   86000          544.22957      1879.8458      21370.052      19285.135      10413.19       8871.9446      4691.1295      4137.6414     -1085.681       377.94423      840.40378      3822.2046     -3911.6979     -378.20985      76048.513      42.367247      42.367247      42.367247      0.9101229      1320.9987      2072.2402      2246.2985    
     87000   87000          549.11587     -2276.4147      16981.564      19539.438      10506.684      9032.7539      4764.0908      4160.4081     -938.91061      369.69851      755.57126      3825.8978     -3904.0019     -373.31175      77046.32       42.551738      42.551738      42.551738      0.89833613    -604.13836     -2957.1496     -3267.9561    
     88000   88000          548.72404      2069.1832      21729.063      19419.553      10499.187      8920.3665      4678.1658      4206.8863     -1106.8102      366.68178      855.62066      3825.1677     -3905.3454     -375.81892      76532.327      42.456903      42.456903      42.456903      0.90436937     2295.5743      1818.1241      2093.8511    
     89000   89000          557.07675     -532.65917      18948.307      19549.671      10659.006      8890.665       4755.455       4104.9483     -1119.1825      367.10981      852.46305      3831.2781     -3901.4067     -371.5448       77412.728      42.619085      42.619085      42.619085      0.89408415     565.32051      418.00721     -2581.3052    
     90000   90000          551.36252     -372.96988      18927.304      19347.204      10549.671      8797.5328      4558.0109      4165.5966     -1004.6201      357.02969      802.25686      3824.3652     -3905.1064     -372.58693      77196.203      42.579313      42.579313      42.579313      0.89659193    -216.13415     -919.35583      16.580336    
     91000   91000          546.45797     -227.96848      19123.705      19380.838      10455.828      8925.0097      4793.7402      4125.972      -1097.8036      364.27834      814.66502      3827.5591     -3903.4014     -371.89139      77340.582      42.605841      42.605841      42.605841      0.89491818    -2494.4978      1701.6309      108.96148    
     92000   92000          553.59814     -1793.3867      17608.868      19590.911      10592.447      8998.4644      4795.9816      4153.4934     -1004.1734      355.01774      774.29134      3825.2329     -3901.3793     -379.54239      75781.513      42.317606      42.317606      42.317606      0.91332952    -722.36683     -1713.7337     -2944.0596    
     93000   93000          545.06671     -398.67938      18846.264      19293.975      10429.208      8864.7669      4731.7332      4188.8432     -1133.5926      358.37681      790.34729      3830.3954     -3901.3364     -373.53007      77001.288      42.543446      42.543446      42.543446      0.8988615     -773.54866      10.535392     -433.02489    
     94000   94000          541.18347     -441.37322      18822.729      19316.317      10354.907      8961.4102      4811.3837      4093.2101     -1012.9399      366.52067      780.51908      3826.2389     -3903.5223     -375.09437      76680.16       42.484222      42.484222      42.484222      0.90262583    -13.784399     -2449.5479      1139.2127    
     95000   95000          566.89946      1429.7825      21595.192      19996.365      10846.952      9149.4126      4865.1726      4160.7621     -1030.999       374.23415      866.17649      3823.1927     -3909.1265     -375.11782      76675.366      42.483337      42.483337      42.483337      0.90268226     2038.6164      149.42552      2101.3056    
     96000   96000          546.42721     -1055.1637      18070.88       19262.259      10455.24       8807.0196      4608.8643      4115.5757     -997.30664      365.16103      783.03352      3831.2374     -3899.5457     -371.50895      77420.198      42.620456      42.620456      42.620456      0.89399789    -718.18206     -1109.7355     -1337.5735    
     97000   97000          542.0235       399.65543      19590.255      19145.474      10370.98       8774.4938      4566.0364      4038.5241     -981.20617      361.26975      862.15742      3827.8737     -3900.1613     -376.91091      76310.597      42.415861      42.415861      42.415861      0.90699714    -908.80788      1470.0989      637.6753     
     98000   98000          550.88648     -76.451865      19503.953      19590.973      10540.563      9050.4102      4777.2055      4131.0917     -989.78398      374.64185      832.46876      3824.5982     -3899.8118     -368.52925      78046.169      42.735015      42.735015      42.735015      0.88682755     1935.4738     -2651.8337      487.00432    
     99000   99000          547.30242      2021.4278      21707.194      19459.608      10471.986      8987.622       4787.246       4230.5915     -1179.4037      367.78613      863.23312      3825.0361     -3906.8671     -377.26052      76239.879      42.402754      42.402754      42.402754      0.90783844     2237.5098      2226.3349      1600.4388    
    100000   100000         557.01176      63.156909      19515.886      19445.214      10657.763      8787.4511      4725.7233      4134.0633     -1126.4318      360.87868      778.65934      3826.0603     -3911.502      -374.86249      76727.592      42.49298       42.49298       42.49298       0.90206783     47.206662     -234.80137      377.06543    
    101000   101000         552.53266     -1228.072       18336.537      19722.125      10572.06       9150.0646      4756.5041      4171.8193     -936.33086      390.83474      836.49069      3832.4511     -3901.7045     -371.78283      77363.166      42.609988      42.609988      42.609988      0.89465693    -1479.8318     -488.07763     -1716.3065    
    102000   102000         547.77827      1317.4001      20673.35       19202.22       10481.091      8721.1293      4613.6193      4160.4367     -1111.4815      363.29319      766.11844      3836.0671     -3906.924      -375.63505      76569.788      42.463829      42.463829      42.463829      0.90392692     1299.6417      676.18003      1976.3785    
    103000   103000         547.68661     -874.62159      18481.799      19457.525      10479.337      8978.1884      4581.044       4260.5081     -952.7031       365.96927      794.86501      3833.5163     -3905.0112     -376.00341      76494.775      42.449957      42.449957      42.449957      0.90481334    -1213.1733     -1165.4525     -245.23897    
    104000   104000         554.32671      1780.6551      21564.114      19579.692      10606.387      8973.3051      4767.4709      4200.9385     -1055.2845      361.57975      787.97022      3820.37       -3909.7398     -376.39631      76414.926      42.435182      42.435182      42.435182      0.90575881     1513.0763     -50.982551      3879.8716    
    105000   105000         550.6067       586.91523      20044.818      19386.672      10535.209      8851.4627      4585.8858      4181.5184     -1058.9655      362.33045      862.18034      3816.4619     -3897.9487     -374.06995      76890.155      42.522969      42.522969      42.522969      0.90016067     183.70079     -618.01841      2195.0633    
    106000   106000         543.83383      368.49813      19584.616      19170.831      10405.618      8765.2121      4684.5198      4128.4649     -1125.404       363.3997       795.64056      3823.4282     -3904.8371     -373.5597       76995.18       42.542321      42.542321      42.542321      0.8989328      2474.8624     -2161.0711      791.70316    
    107000   107000         550.52671      947.18577      20713.768      19648.105      10533.679      9114.4266      4808.6742      4157.7621     -989.94755      400.29851      816.1366       3823.1549     -3901.6523     -372.83332      77145.187      42.569931      42.569931      42.569931      0.89718485     1315.1032      2087.2889     -560.83481    
    108000   108000         547.30596     -96.402332      19180.604      19289.467      10472.053      8817.4136      4644.3092      4092.362      -1003.8265      376.89325      778.59388      3829.3926     -3900.3109     -371.45589      77431.256      42.622485      42.622485      42.622485      0.89387021    -163.67469     -685.50634      559.97403    
    109000   109000         556.77955      158.82473      19854.522      19677.332      10653.32       9024.0127      4737.4585      4236.4416     -1019.487       365.93171      774.20307      3830.2496     -3900.7847     -375.99177      76497.144      42.450395      42.450395      42.450395      0.90478532    -795.06646     -794.63527      2066.1759    
    110000   110000         551.78953      359.44604      19929.038      19523.906      10557.841      8966.0652      4649.3618      4182.2917     -1056.0996      364.41468      913.84242      3813.4424     -3901.1882     -372.16639      77283.434      42.595345      42.595345      42.595345      0.89557994     1875.0676     -699.39852     -97.330954    
    111000   111000         543.83056      1991.6984      21508.21       19287.273      10405.556      8881.7168      4622.9456      4332.157      -1155.9385      366.04372      792.36287      3834.7527     -3910.6065     -376.17222      76460.448      42.443607      42.443607      42.443607      0.90521956     1836.2946      3690.7564      448.04423    
    112000   112000         545.30452      303.6975       19751.246      19405.879      10433.758      8972.1205      4820.3988      4101.9937     -1070.0203      358.25756      838.83188      3827.7946     -3905.1358     -368.85789      77976.634      42.72232       42.72232       42.72232       0.88761837     1059.5817      184.09361     -332.58282    
    113000   113000         556.54814     -282.45022      19273.624      19590.042      10648.892      8941.1507      4665.6676      4271.2579     -1076.1821      364.46934      792.06324      3829.2421     -3905.3674     -374.43742      76814.695      42.509054      42.509054      42.509054      0.90104495     928.13936     -1190.6347     -584.85533    
    114000   114000         541.03481     -791.1703       18567.46       19455.158      10352.063      9103.0957      4732.2081      4238.5549     -987.112        381.78707      806.48949      3831.0835     -3899.9153     -373.85566      76934.227      42.531092      42.531092      42.531092      0.899645      -246.87788     -577.88814     -1548.7449    
    115000   115000         555.60186     -389.97454      18970.401      19410.017      10630.786      8779.2316      4604.364       4088.1133     -988.4494       358.92299      812.56645      3810.1381     -3906.4238     -372.10197      77296.813      42.597803      42.597803      42.597803      0.89542492     1202.9332     -238.26986     -2134.587     
    116000   116000         548.92172     -857.52588      18610.896      19580.786      10502.969      9077.817       4726.2418      4214.8447     -986.47362      363.59987      812.20125      3841.8139     -3894.4109     -370.87201      77553.16       42.644841      42.644841      42.644841      0.89246516     715.32845     -1831.3832     -1456.5229    
    117000   117000         542.58812      913.04019      20271.975      19246.93       10381.783      8865.1469      4663.0833      4246.1081     -1174.8501      340.99121      885.04241      3810.2237     -3905.4518     -373.63391      76979.889      42.539504      42.539504      42.539504      0.89911137     181.34119      1118.7785      1439.0009    
    118000   118000         546.27168      439.70763      20097.602      19591.619      10452.264      9139.3547      4660.4636      4342.1843     -1008.8828      373.39904      843.89012      3823.6592     -3895.3587     -364.5249       78903.517      42.890929      42.890929      42.890929      0.87719149    -1345.7337      3046.0457     -381.18907    
    119000   119000         558.28933     -311.6841       19373.748      19725.25       10682.207      9043.0428      4705.2         4219.0603     -1028.0543      361.10277      861.42662      3822.3438     -3898.0363     -371.95071      77328.248      42.603576      42.603576      42.603576      0.89506092     20.578302      174.09721     -1129.7278    
    120000   120000         547.43758      1329.4832      21141.881      19635.298      10474.572      9160.7262      4727.6686      4272.5842     -1005.6881      377.73787      866.28076      3825.5194     -3903.3766     -370.15978      77702.382      42.672175      42.672175      42.672175      0.89075124     1369.8408      911.77936      1706.8293    
    121000   121000         541.33057     -455.58126      18869.803      19380.609      10357.722      9022.8871      4724.6037      4276.2883     -1134.1741      365.73009      867.22677      3826.1811     -3902.9689     -374.11902      76880.071      42.52111       42.52111       42.52111       0.90027874    -439.74201     -2090.0929      1163.0911    
    122000   122000         544.19195      523.86705      19678.354      19092.657      10412.471      8680.1865      4548.9005      4164.9231     -1117.731       360.28227      819.07248      3817.1538     -3912.4145     -375.18699      76661.232      42.480726      42.480726      42.480726      0.90284869     985.11252     -236.62865      823.11728    
    123000   123000         558.52302      113.54431      19672.136      19544.317      10686.679      8857.6386      4572.4964      4269.9049     -1064.5837      345.77239      822.58589      3817.7331     -3906.2704     -372.62395      77188.533      42.577903      42.577903      42.577903      0.89668102    -1116.7992     -651.08712      2108.5193    
    124000   124000         549.59802     -1585.8407      17628.377      19451.504      10515.91       8935.5944      4693.1486      4078.9267     -985.71483      357.65551      860.66122      3829.0062     -3898.089      -364.87339      78828.157      42.87727       42.87727       42.87727       0.87803008    -457.99152     -2522.0845     -1777.446     
    125000   125000         553.31991      751.29739      20502.876      19651.324      10587.123      9064.2006      4686.4173      4202.7398     -989.27464      377.2946       865.42053      3822.3566     -3900.7537     -370.08372      77718.351      42.675098      42.675098      42.675098      0.89056821     929.65624      356.65505      967.58089    
    126000   126000         546.89552      900.57687      20457.424      19444.343      10464.2        8980.1432      4734.3672      4174.0901     -1058.0512      368.21416      829.07114      3834.4648     -3902.013      -372.88629      77134.228      42.567915      42.567915      42.567915      0.89731231     2121.3253      72.336788      508.06851    
    127000   127000         548.12506     -1187.9638      18281.906      19630.26       10487.726      9142.5339      4835.0986      4235.4585     -1053.7768      352.1492       845.46915      3830.0265     -3901.8911     -369.5716       77826.047      42.694801      42.694801      42.694801      0.88933584    -1225.5249     -625.36888     -1712.9977    
    128000   128000         551.80002      338.70604      19824.01       19441.706      10558.042      8883.664       4710.7559      4126.3697     -1046.5092      366.51302      832.01423      3803.4409     -3908.9206     -371.63297      77394.361      42.615714      42.615714      42.615714      0.89429633     800.08209     -632.12881      848.16484    
    129000   129000         562.85207     -257.29576      19448.39       19739.363      10769.51       8969.853       4738.7325      4234.3108     -1106.6112      348.46053      836.83727      3818.7602     -3900.637      -370.91965      77543.199      42.643015      42.643015      42.643015      0.8925798     -1244.0087     -374.36755      846.48897    
    130000   130000         557.76975      83.033327      19710.609      19616.75       10672.266      8944.4839      4699.9153      4241.2924     -1078.3358      365.5297       797.60051      3820.6619     -3902.18       -371.08515      77508.617      42.636675      42.636675      42.636675      0.89297804     132.81676     -651.30584      767.58905    
    131000   131000         547.9768      -368.29898      19177.417      19591.46       10484.889      9106.5703      4739.703       4244.3102     -1021.0903      364.35163      859.30959      3819.3587     -3899.3725     -373.12549      77084.781      42.558817      42.558817      42.558817      0.89788791     338.8063      -1075.7673     -367.93597    
    132000   132000         547.43178      1486.8135      21018.501      19332.7        10474.461      8858.239       4605.3128      4156.0034     -1049.7844      369.05031      858.3721       3816.3668     -3897.0821     -369.95558      77745.27       42.680024      42.680024      42.680024      0.89025986     735.86773      502.03178      3222.5411    
    133000   133000         551.43475     -482.3643       19025.155      19572.446      10551.053      9021.3931      4800.7321      4159.9316     -1085.2976      364.61813      845.76942      3834.6773     -3899.0378     -369.70557      77797.846      42.689643      42.689643      42.689643      0.88965822    -2909.1696      1331.2107      130.866      
    134000   134000         546.83129     -1404.4017      17922.792      19534.176      10462.971      9071.2051      4732.0567      4305.8848     -1123.5864      358.77736      881.53031      3813.1982     -3896.6559     -365.58773      78674.129      42.849325      42.849325      42.849325      0.87974908    -2545.9544      414.44896     -2081.6997    
    135000   135000         553.54135      1203.3416      20953.937      19584.023      10591.36       8992.6627      4667.1182      4161.2761     -1026.9194      368.81772      902.03846      3813.128      -3892.7965     -368.46398      78059.995      42.737539      42.737539      42.737539      0.88667047     1109.19        1040.6776      1460.1573    
    136000   136000         555.92649     -503.60548      19148.701      19731.635      10636.997      9094.638       4649.3132      4250.6418     -1005.6109      380.52017      873.20212      3838.3764     -3891.8047     -362.38532      79369.376      42.975175      42.975175      42.975175      0.8720428     -139.04729     -1562.3018      190.53262    
    137000   137000         551.25436      1467.9858      21129.22       19483.792      10547.602      8936.1904      4693.5634      4147.872      -1025.0654      382.80158      811.4959       3833.4196     -3907.8967     -374.23339      76856.574      42.516777      42.516777      42.516777      0.90055397     1441.3916      2660.9744      301.59148    
    138000   138000         559.18014     -450.24802      19242.249      19757.813      10699.252      9058.5607      4732.8177      4196.7736     -987.91879      368.56395      826.79166      3826.0138     -3904.4812     -366.32703      78515.355      42.82048       42.82048       42.82048       0.88152812    -454.1804      -1678.0405      781.47685    
    139000   139000         551.2905      -461.85132      18931.792      19450.87       10548.293      8902.5773      4778.5789      4110.7128     -1083.0849      357.88285      825.1153       3822.2961     -3908.9239     -373.22311      77064.618      42.555106      42.555106      42.555106      0.89812283     369.68984     -1925.636       170.39221    
    140000   140000         542.10929     -1089.4328      18166.136      19411.755      10372.621      9039.1332      4698.0333      4193.9709     -1007.476       371.02503      843.19631      3836.4742     -3896.0905     -366.87225      78398.671      42.799257      42.799257      42.799257      0.88284013     94.363802     -900.90769     -2461.7545    
    141000   141000         548.55468      1070.1861      20744.258      19523.902      10495.946      9027.9561      4830.4946      4118.7429     -1096.4656      372.3339       857.6143       3841.9217     -3896.6856     -367.85133      78190.002      42.761252      42.761252      42.761252      0.88519621     1107.3004      1658.2518      445.00615    
    142000   142000         555.25279     -262.91001      19303.895      19603.264      10624.107      8979.1572      4655.8653      4223.7803     -1025.9325      371.85524      820.31872      3830.2883     -3897.0182     -368.38327      78077.097      42.74066       42.74066       42.74066       0.88647626     327.34829     -280.97759     -835.10072    
    143000   143000         551.20245     -209.46691      19483.832      19725.191      10546.608      9178.5829      4699.2259      4205.6862     -929.60957      392.98517      886.73939      3821.2802     -3897.7245     -364.04211      79008.157      42.909881      42.909881      42.909881      0.87602971    -687.02476     -302.43348      361.05753    
    144000   144000         544.06675      600.80472      19925.291      19256.299      10410.075      8846.2243      4649.1143      4184.7745     -1094.4559      362.12221      819.42118      3829.4565     -3904.2085     -376.71414      76350.456      42.423244      42.423244      42.423244      0.90652364     511.08139      1018.7255      272.60724    
    145000   145000         541.98409      493.94852      20083.763      19520.791      10370.226      9150.5647      4738.5466      4259.9396     -1015.9105      370.49435      864.14165      3829.6836     -3896.3305     -368.03895      78150.142      42.753984      42.753984      42.753984      0.88564769    -1660.0159      1277.3854      1864.4761    
    146000   146000         545.8825       467.36218      19871.427      19347.008      10444.817      8902.1907      4633.3847      4167.7948     -1083.0404      365.08457      879.38245      3842.824      -3903.2394     -373.83037      76939.433      42.532051      42.532051      42.532051      0.89958413     545.61321      710.11726      146.35606    
    147000   147000         547.85056     -1166.256       18184.333      19492.935      10482.474      9010.4612      4669.7891      4180.3157     -1000.0528      362.86144      874.50142      3826.2038     -3903.1574     -373.84011      76937.428      42.531682      42.531682      42.531682      0.89960758    -1369.2594      218.8127      -2348.3214    
    148000   148000         549.88143      609.38694      20191.627      19500.846      10521.332      8979.5136      4726.8478      4165.739      -1058.1888      371.25117      843.39364      3837.8436     -3907.3729     -370.04266      77726.975      42.676676      42.676676      42.676676      0.89046941     436.79262      132.38975      1258.9785    
    149000   149000         545.98841     -599.39326      18745.634      19426.916      10446.844      8980.0721      4661.4353      4126.4214     -1001.7017      369.39179      888.55222      3835.8647     -3899.8916     -369.0497       77936.106      42.714917      42.714917      42.714917      0.88807995    -293.10043     -3216.503       1711.4237    
[...]
    955000   955000         551.45893     -1285.4604      17945.176      19382.69       10551.516      8831.1742      4641.2896      4163.9174     -979.76808      365.24601      730.2791       3821.3474     -3911.1373     -375.0991       76679.194      42.484044      42.484044      42.484044      0.9026372     -918.4118      -1329.7404     -1608.2289    
    956000   956000         546.05709     -46.344295      19436.058      19488.741      10448.158      9040.5833      4696.323       4269.0298     -1052.946       381.34278      817.72343      3823.1235     -3894.0133     -369.00011      77946.579      42.71683       42.71683       42.71683       0.88796063    -70.812445      1293.2838     -1361.5042    
    957000   957000         552.8169      -820.58993      18813.446      19732.217      10577.499      9154.7177      4762.8754      4316.3485     -1034.599       369.64479      815.71435      3826.4059     -3901.6723     -374.64361      76772.421      42.501254      42.501254      42.501254      0.9015411     -633.13721     -973.0496      -855.58298    
    958000   958000         545.13253      1103.1277      20651.109      19425.372      10430.468      8994.9046      4707.8418      4181.1169     -1036.2304      387.50582      818.99519      3841.3516     -3905.6763     -377.50954      76189.589      42.393429      42.393429      42.393429      0.90843767     2360.277       874.58194      74.524317    
    959000   959000         563.85576     -444.88137      19444.856      19945.358      10788.715      9156.6433      4825.3523      4213.7262     -1010.6872      386.56558      831.3237       3816.0597     -3905.697      -372.85294      77141.128      42.569184      42.569184      42.569184      0.89723205    -348.86355     -37.247949     -948.53262    
    960000   960000         547.15219      1193.5272      20711.515      19378.087      10469.111      8908.9752      4567.891       4228.4732     -1031.713       375.39219      844.85366      3826.1928     -3902.1146     -375.45862      76605.77       42.470479      42.470479      42.470479      0.90350234    -152.1933       2390.2202      1342.5545    
    961000   961000         549.70715     -1362.4323      18067.364      19606.971      10517.997      9088.9736      4684.3691      4235.7708     -945.26065      386.16127      804.14852      3821.9808     -3898.1962     -371.19713      77485.234      42.632387      42.632387      42.632387      0.89324752    -1856.1564     -464.76837     -1766.3721    
    962000   962000         557.74951     -498.19644      19126.62       19675.404      10671.879      9003.5258      4686.3834      4277.2757     -1031.5174      357.29502      803.30038      3820.6348     -3909.8461     -380.80091      75531.061      42.270936      42.270936      42.270936      0.91635801     283.14888     -659.70035     -1118.0378    
    963000   963000         545.82939     -255.82504      19101.216      19388.743      10443.801      8944.9423      4792.0639      4233.7897     -1152.803       356.12249      797.26432      3819.5067     -3901.0018     -373.21862      77065.546      42.555277      42.555277      42.555277      0.89811202     36.862499      628.51745     -1432.8551    
    964000   964000         563.19165     -555.6218       19229.05       19857.641      10776.008      9081.6336      4725.325       4226.6368     -963.70451      369.75713      798.73381      3824.9732     -3900.0878     -370.77501      77573.449      42.64856       42.64856       42.64856       0.89223173     834.94188      1056.2209     -3558.0281    
    965000   965000         544.76481     -419.48589      19026.152      19493.765      10423.432      9070.333       4809.2926      4157.8046     -945.51073      385.8059       726.21395      3837.0937     -3900.367      -376.29684      76435.127      42.438921      42.438921      42.438921      0.90551943    -486.51286     -1275.4342      503.48943    
    966000   966000         546.68002     -2128.1388      17157.221      19547.953      10460.077      9087.8762      4732.1289      4307.1047     -1036.3792      366.2752       794.61905      3825.5821     -3901.4546     -373.39505      77029.132      42.548573      42.548573      42.548573      0.89853658    -3426.4602     -1456.0915     -1501.8648    
    967000   967000         554.83124      1421.8825      21134.612      19558.582      10616.041      8942.5407      4697.6756      4312.7174     -1141.5237      365.60063      792.46595      3820.984      -3905.3792     -378.44142      76001.979      42.358604      42.358604      42.358604      0.91068014     4339.1787     -25.613496     -47.917584    
    968000   968000         546.37332     -8.4142558      19063.88       19073.254      10454.209      8619.0453      4590.8833      4046.1929     -1060.9034      368.90487      757.62509      3819.4431     -3903.1007     -376.52411      76388.99       42.43038       42.43038       42.43038       0.90606634     539.95289     -2009.7729      1444.5773    
    969000   969000         545.36472      1108.0778      20860.108      19625.53       10434.91       9190.6202      4725.324       4327.9163     -988.30265      387.24909      829.25341      3812.6913     -3903.5112     -376.48801      76396.315      42.431736      42.431736      42.431736      0.90597947     3206.9293     -109.58088      226.88496    
    970000   970000         543.10072      1565.7091      21049.418      19282.364      10391.591      8890.7729      4740.1679      4189.1137     -1177.2559      360.22988      864.55325      3812.5604     -3898.5963     -371.67274      77386.08       42.614194      42.614194      42.614194      0.89439202     694.86079      1382.0292      2620.2374    
    971000   971000         559.15564      709.78821      20502.897      19698.829      10698.783      9000.046       4678.3867      4249.2763     -1107.8299      366.03504      888.78106      3822.3197     -3896.9228     -370.28449      77676.211      42.667383      42.667383      42.667383      0.89105135     505.76314     -99.413615      1723.0151    
    972000   972000         547.27731      594.65835      20064.834      19399.41       10471.505      8927.9049      4616.9963      4264.1883     -1041.9477      359.36066      814.25012      3819.5133     -3904.4561     -374.85944      76728.217      42.493095      42.493095      42.493095      0.90206049    -329.82082      380.1352       1733.6607    
    973000   973000         551.27733     -324.12074      19074.726      19435.514      10548.041      8887.4729      4719.2391      4142.6396     -1052.5699      370.15383      770.98924      3836.3802     -3899.3592     -376.83728      76325.508      42.418623      42.418623      42.418623      0.90681995    -98.191178      773.57363     -1647.7447    
    974000   974000         553.55399     -126.41447      19570.175      19713.221      10591.602      9121.6186      4824.9931      4247.4478     -1061.769       363.43137      809.53646      3834.8568     -3896.8779     -370.6996       77589.23       42.651451      42.651451      42.651451      0.89205026     206.57872     -734.62509      148.80297    
    975000   975000         561.77456      924.45532      20666.364      19632.299      10748.893      8883.4055      4695.7538      4170.6218     -1118.3641      365.00945      849.46049      3822.0574     -3901.1335     -375.00523      76698.388      42.487588      42.487588      42.487588      0.90241131    -888.91217      2051.4279      1610.8502    
    976000   976000         552.69876      240.89811      19690.026      19419.897      10575.238      8844.6583      4688.2903      4138.7891     -1073.91        372.84927      786.9222       3825.8309     -3894.1134     -374.0776       76888.583      42.522679      42.522679      42.522679      0.90017907    -969.88807      1443.129       249.45341    
    977000   977000         558.6941      -1366.6667      18054.126      19588.091      10689.952      8898.139       4745.1912      4219.2549     -1030.2646      366.9928       674.8944       3825.818      -3903.7478     -373.72017      76962.119      42.536231      42.536231      42.536231      0.89931896    -2213.3526     -2563.101       676.45341    
    978000   978000         550.24885     -484.15359      18882.758      19420.818      10528.362      8892.4554      4835.7166      4191.6403     -1138.6713      359.18531      721.89902      3828.6377     -3905.9522     -377.44385      76202.849      42.395888      42.395888      42.395888      0.9082796      85.284216     -1015.9641     -521.78085    
    979000   979000         545.07418     -3230.9076      16109.139      19736.367      10429.351      9307.0158      4776.7059      4355.8687     -921.20661      393.92465      785.54642      3819.4448     -3903.2681     -373.63635      76979.386      42.539412      42.539412      42.539412      0.89911724    -5003.7641     -2765.6559     -1923.3029    
    980000   980000         552.54696      2107.1109      21928.805      19546.276      10572.334      8973.9418      4729.1809      4199.2277     -1148.361       366.61548      909.31369      3820.9778     -3903.0126     -370.97841      77530.918      42.640764      42.640764      42.640764      0.89272119     3545.336      -329.93353      3105.9302    
    981000   981000         556.79744      134.54634      19790.133      19640.78       10653.662      8987.1181      4749.7866      4305.9492     -1103.5277      368.08267      757.08232      3818.6554     -3908.9104     -377.8824       76114.412      42.379481      42.379481      42.379481      0.90933492     1708.9163      336.46157     -1641.7388    
    982000   982000         558.10683     -513.71731      19080.612      19662.047      10678.716      8983.331       4836.8431      4146.5171     -1105.5256      360.86914      825.85652      3823.4886     -3904.7179     -370.6146       77607.025      42.654712      42.654712      42.654712      0.89184572     1993.6041     -1256.9228     -2277.8333    
    983000   983000         559.59162     -1390.834       18053.55       19612.775      10707.125      8905.6502      4705.4982      4193.4857     -1037.9121      351.94761      751.36082      3839.5691     -3898.2991     -374.16731      76870.148      42.51928       42.51928       42.51928       0.90039494    -2973.499      -1543.5239      344.52094    
    984000   984000         553.92986     -1967.0378      17350.655      19532.442      10598.794      8933.6482      4779.4515      4179.0496     -1048.214       365.96005      746.32887      3820.7587     -3909.6865     -378.18107      76054.299      42.368321      42.368321      42.368321      0.91005365    -2466.5204     -1859.7518     -1574.8412    
    985000   985000         545.99523      636.34089      20071.744      19360.702      10446.974      8913.7281      4675.3622      4167.9483     -1060.43        378.2202       834.37489      3823.5998     -3905.3472     -375.40024      76617.683      42.472681      42.472681      42.472681      0.90336186     1306.7669     -687.7926       1290.0484    
    986000   986000         565.63236      532.61599      20517.493      19920.849      10822.708      9098.1413      4861.7939      4273.0299     -1122.8547      370.71003      805.16763      3816.3576     -3906.0631     -374.45409      76811.276      42.508423      42.508423      42.508423      0.90108506     1002.3456     -358.22226      953.72463    
    987000   987000         546.15651     -491.06981      18917.793      19467.007      10450.06       9016.9472      4674.9487      4287.3967     -1067.1589      376.44506      824.73788      3824.7733     -3904.1955     -375.05978      76687.232      42.485528      42.485528      42.485528      0.90254259    -840.73863     -948.21681      315.74601    
    988000   988000         561.16343     -161.46323      19654.236      19836.532      10737.2        9099.3322      4859.5402      4188.1595     -1059.1022      366.37637      829.61912      3817.2855     -3902.5464     -371.53144      77415.512      42.619596      42.619596      42.619596      0.89405199     148.51706      1650.0032     -2282.9099    
    989000   989000         534.87871     -821.34123      18389.67       19313.521      10234.273      9079.2484      4696.4272      4328.9424     -1072.9479      355.98465      874.20341      3801.2983     -3904.6596     -372.92454      77126.318      42.56646       42.56646       42.56646       0.89740434    -35.523788     -1780.2339     -648.26601    
    990000   990000         544.71151      2959.5427      22464.161      19211.591      10422.412      8789.1791      4589.025       4220.991      -1124.8823      363.27088      832.24339      3814.5196     -3905.9884     -381.67828      75357.436      42.238521      42.238521      42.238521      0.91846932     951.76573      3813.9804      4112.8818    
    991000   991000         553.47068     -1500.0834      17882.413      19577.871      10590.008      8987.8629      4707.477       4186.0428     -1024.6284      383.67297      811.327        3825.2794     -3901.3079     -371.13149      77498.939      42.6349        42.6349        42.6349        0.89308956    -2233.9104      795.97863     -3062.3185    
    992000   992000         560.80894      3046.036       23059.965      19653.569      10730.417      8923.1522      4709.4773      4239.6798     -1143.3501      368.56202      829.42204      3824.5492     -3905.1881     -375.09334      76680.37       42.484261      42.484261      42.484261      0.90262335     4543.273       2978.1461      1616.6889    
    993000   993000         542.97795      899.93592      20322.785      19327.122      10389.242      8937.8795      4785.957       4156.6532     -1043.016       368.9589       752.49849      3825.988      -3909.16       -379.13897      75862.147      42.33261       42.33261       42.33261       0.91235874     1605.2489      1238.1492     -143.59035    
    994000   994000         556.14129     -203.85357      19462.711      19693.936      10641.107      9052.8286      4741.8121      4226.7656     -1013.2375      371.55737      803.64537      3821.8301     -3899.5443     -369.81335      77775.171      42.685495      42.685495      42.685495      0.8899176     -187.39888      29.444587     -453.60641    
    995000   995000         550.70603     -1136.1572      18131.353      19388.444      10537.11       8851.3343      4666.0032      4168.3859     -997.3845       370.51341      732.80051      3819.9274     -3908.9115     -379.11515      75866.914      42.333496      42.333496      42.333496      0.91230142    -716.92079     -712.36977     -1979.1812    
    996000   996000         558.68893     -110.91856      19500.774      19625.698      10689.853      8935.8443      4671.1948      4177.8065     -1001.8221      377.86822      789.65498      3823.3024     -3902.1604     -372.44299      77226.037      42.584797      42.584797      42.584797      0.89624556    -2148.8269      1263.9155      552.15573    
    997000   997000         551.97554     -1228.4818      18144.57       19507.903      10561.4        8946.5024      4741.5081      4207.552      -1030.4403      367.10421      754.50922      3809.4625     -3903.1934     -377.97781      76095.199      42.375915      42.375915      42.375915      0.90956452    -1517.2983     -2187.8604      19.713277    
    998000   998000         549.56339      546.20829      19759.586      19154.544      10515.247      8639.2971      4588.1271      4160.9577     -1112.494       356.51355      724.07695      3833.8998     -3911.7839     -378.67999      75954.096      42.349706      42.349706      42.349706      0.91125425     125.20732      911.89135      601.52621    
    999000   999000         550.20852      224.18217      19738.622      19487.584      10527.591      8959.9935      4736.6968      4156.834      -1024.4545      365.96817      805.06674      3825.0092     -3905.1269     -374.59447      76782.491      42.503112      42.503112      42.503112      0.90142286    -343.00719      296.46692      719.08677    
   1000000   1000000        554.19141      504.0567       19954.933      19397.34       10603.798      8793.5417      4720.6051      4075.2705     -1049.3722      362.1637       778.48892      3819.312      -3912.9262     -379.19445      75851.047      42.330545      42.330545      42.330545      0.91249225     1525.0806     -456.45407      443.54357    
Loop time of 2109.58 on 1 procs for 1000000 steps with 6420 atoms

Performance: 40.956 ns/day, 0.586 hours/ns, 474.027 timesteps/s, 3.043 Matom-step/s
99.9% CPU use with 1 MPI tasks x 1 OpenMP threads

MPI task timing breakdown:
Section |  min time  |  avg time  |  max time  |%varavg| %total
---------------------------------------------------------------
Pair    | 203.18     | 203.18     | 203.18     |   0.0 |  9.63
Bond    | 269.9      | 269.9      | 269.9      |   0.0 | 12.79
Kspace  | 924.17     | 924.17     | 924.17     |   0.0 | 43.81
Neigh   | 311.96     | 311.96     | 311.96     |   0.0 | 14.79
Comm    | 46.665     | 46.665     | 46.665     |   0.0 |  2.21
Output  | 8.1288     | 8.1288     | 8.1288     |   0.0 |  0.39
Modify  | 305.03     | 305.03     | 305.03     |   0.0 | 14.46
Other   |            | 40.54      |            |       |  1.92

Nlocal:           6420 ave        6420 max        6420 min
Histogram: 1 0 0 0 0 0 0 0 0 0
Nghost:          16911 ave       16911 max       16911 min
Histogram: 1 0 0 0 0 0 0 0 0 0
Neighs:              0 ave           0 max           0 min
Histogram: 1 0 0 0 0 0 0 0 0 0
FullNghs:  3.45548e+06 ave 3.45548e+06 max 3.45548e+06 min
Histogram: 1 0 0 0 0 0 0 0 0 0

Total # of neighbors = 3455480
Ave neighs/atom = 538.23676
Ave special neighs/atom = 5.8598131
Neighbor list builds = 60304
Dangerous builds = 0

# --- Cleanup ---
unfix npt_fix

undump dump_npt

# --- Write Output ---
write_dump all custom npt_production_last.dump id type mol x y z xu yu zu vx vy vz modify sort id
write_data /home/alexzhao/PolyJarvis/data/PS3/lammps/equil/npt_production/npt_production_out.data
System init for write_data ...
PPPM Kokkos initialization ...
  using 12-bit tables for long-range coulomb
  G vector (1/distance) = 0.300489
  grid = 30 30 30
  stencil order = 5
  estimated absolute RMS force accuracy = 0.00029342945
  estimated relative force accuracy = 8.8365407e-07
  using double precision cuFFT
  3d grid and FFT values/proc = 50653 27000
Generated 6 of 6 mixed pair_coeff terms from sixthpower/sixthpower mixing rule

print "STAGE COMPLETE: NPT T=550.0->550.0K P=1.0->1.0atm steps=1000000"
STAGE COMPLETE: NPT T=550.0->550.0K P=1.0->1.0atm steps=1000000
quit
  1.92

Nlocal:           6420 ave        6420 max        6420 min
Histogram: 1 0 0 0 0 0 0 0 0 0
Nghost:          16911 ave       16911 max       16911 min
Histogram: 1 0 0 0 0 0 0 0 0 0
Neighs:              0 ave           0 max           0 min
Histogram: 1 0 0 0 0 0 0 0 0 0
FullNghs:  3.45548e+06 ave 3.45548e+06 max 3.45548e+06 min
Histogram: 1 0 0 0 0 0 0 0 0 0

Total # of neighbors = 3455480
Ave neighs/atom = 538.23676
Ave special neighs/atom = 5.8598131
Neighbor list builds = 60304
Dangerous builds = 0
System init for write_data ...
PPPM Kokkos initialization ...
  using 12-bit tables for long-range coulomb
  G vector (1/distance) = 0.300489
  grid = 30 30 30
  stencil order = 5
  estimated absolute RMS force accuracy = 0.00029342945
  estimated relative force accuracy = 8.8365407e-07
  using double precision cuFFT
  3d grid and FFT values/proc = 50653 27000
Generated 6 of 6 mixed pair_coeff terms from sixthpower/sixthpower mixing rule
STAGE COMPLETE: NPT T=550.0->550.0K P=1.0->1.0atm steps=1000000
