LAMMPS data file via write_data, version 22 Jul 2025, timestep = 1000000, units = real

6420 atoms
4 atom types
6810 bonds
8 bond types
12000 angles
15 angle types
19110 dihedrals
24 dihedral types
5600 impropers
14 improper types

4.20206997088232 46.532615059104955 xlo xhi
4.20206997088232 46.532615059104955 ylo yhi
4.20206997088232 46.532615059104955 zlo zhi

Masses

1 12.01115
2 12.01115
3 12.01115
4 1.00797

Pair Coeffs # lj/class2/coul/long/kk

1 0.054 4.01
2 0.054 4.01
3 0.064 4.01
4 0.02 2.995

Bond Coeffs # class2/kk

1 1.53 299.67 -501.77 679.81
2 1.53 299.67 -501.77 679.81
3 1.501 321.902 -521.821 572.163
4 1.101 345 -691.89 844.6
5 1.501 321.902 -521.821 572.163
6 1.101 345 -691.89 844.6
7 1.417 470.836 -627.618 1327.63
8 1.0982 372.825 -803.453 894.317

Angle Coeffs # class2/kk

1 112.67 39.516 -7.443 -9.5583
2 108.4 43.9594 -8.3924 -9.3379
3 110.77 41.453 -10.604 5.129
4 112.67 39.516 -7.443 -9.5583
5 108.4 43.9594 -8.3924 -9.3379
6 110.77 41.453 -10.604 5.129
7 120.05 44.7148 -22.7352 0
8 112.67 39.516 -7.443 -9.5583
9 110.77 41.453 -10.604 5.129
10 120.05 44.7148 -22.7352 0
11 111 44.3234 -9.4454 0
12 111 44.3234 -9.4454 0
13 118.9 61.0226 -34.9931 0
14 117.94 35.1558 -12.4682 0
15 107.66 39.641 -12.921 -2.4318

BondBond Coeffs

1 0 1.53 1.53
2 0 1.53 1.501
3 3.3872 1.53 1.101
4 0 1.53 1.53
5 0 1.53 1.501
6 3.3872 1.53 1.101
7 12.0676 1.501 1.417
8 0 1.53 1.53
9 3.3872 1.53 1.101
10 12.0676 1.501 1.417
11 2.9168 1.501 1.101
12 2.9168 1.501 1.101
13 68.2856 1.417 1.417
14 1.0795 1.417 1.0982
15 5.3316 1.101 1.101

BondAngle Coeffs

1 8.016 8.016 1.53 1.53
2 0 0 1.53 1.501
3 20.754 11.421 1.53 1.101
4 8.016 8.016 1.53 1.53
5 0 0 1.53 1.501
6 20.754 11.421 1.53 1.101
7 47.0579 31.0771 1.501 1.417
8 8.016 8.016 1.53 1.53
9 20.754 11.421 1.53 1.101
10 47.0579 31.0771 1.501 1.417
11 26.4608 11.7717 1.501 1.101
12 26.4608 11.7717 1.501 1.101
13 28.8708 28.8708 1.417 1.417
14 20.0033 24.2183 1.417 1.0982
15 18.103 18.103 1.101 1.101

Dihedral Coeffs # class2/kk

1 0 0 0.0514 0 -0.143 0
2 0 0 0 0 0.158 180
3 0 0 0.0316 0 -0.1681 0
4 -0.2802 0 -0.0678 0 -0.0122 0
5 0 0 0.0514 0 -0.143 0
6 0 0 0.0316 0 -0.1681 0
7 -0.2802 0 -0.0678 0 -0.0122 0
8 0 0 4.4072 0 0 0
9 0 0 1.559 0 0 0
10 0 0 0 0 0.158 180
11 0 0 0.0316 0 -0.1681 0
12 0 0 0 0 0.158 180
13 0 0 0.0316 0 -0.1681 0
14 0 0 4.4072 0 0 0
15 0 0 1.559 0 0 0
16 -0.0228 0 0.028 0 -0.1863 0
17 -0.0228 0 0.028 0 -0.1863 0
18 -0.2801 0 -0.0678 0 -0.0122 0
19 -0.2801 0 -0.0678 0 -0.0122 0
20 8.3667 0 1.1932 0 0 0
21 0 0 3.9661 0 0 0
22 -0.1432 0 0.0617 0 -0.1083 0
23 -0.1432 0 0.0617 0 -0.1083 0
24 0 0 1.8769 0 0 0

AngleAngleTorsion Coeffs

1 -22.045 112.67 112.67
2 0 112.67 108.4
3 -16.164 112.67 110.77
4 0 108.4 120.05
5 -22.045 112.67 112.67
6 -16.164 112.67 110.77
7 0 108.4 120.05
8 -14.4097 120.05 118.9
9 4.4444 120.05 117.94
10 0 112.67 108.4
11 -16.164 112.67 110.77
12 0 112.67 108.4
13 -16.164 112.67 110.77
14 -14.4097 120.05 118.9
15 4.4444 120.05 117.94
16 0 108.4 110.77
17 0 108.4 110.77
18 -5.8888 120.05 111
19 -5.8888 120.05 111
20 0 118.9 118.9
21 -4.8141 118.9 117.94
22 -12.564 110.77 110.77
23 -12.564 110.77 110.77
24 0.3598 117.94 117.94

EndBondTorsion Coeffs

1 -0.0732 0 0 -0.0732 0 0 1.53 1.53
2 0 0 0 0 0 0 1.53 1.501
3 0.2486 0.2422 -0.0925 0.0814 0.0591 0.2219 1.53 1.101
4 0 0 0 0 0 0 1.53 1.417
5 -0.0732 0 0 -0.0732 0 0 1.53 1.53
6 0.2486 0.2422 -0.0925 0.0814 0.0591 0.2219 1.53 1.101
7 0 0 0 0 0 0 1.53 1.417
8 0 0.2421 0 0 -0.6918 0 1.501 1.417
9 0 -1.797 0 0 -0.4879 0 1.501 1.0982
10 0 0 0 0 0 0 1.53 1.501
11 0.2486 0.2422 -0.0925 0.0814 0.0591 0.2219 1.53 1.101
12 0 0 0 0 0 0 1.53 1.501
13 0.2486 0.2422 -0.0925 0.0814 0.0591 0.2219 1.53 1.101
14 0 0.2421 0 0 -0.6918 0 1.501 1.417
15 0 -1.797 0 0 -0.4879 0 1.501 1.0982
16 0 0 0 0 0 0 1.501 1.101
17 0 0 0 0 0 0 1.501 1.101
18 -0.5835 1.122 0.3978 1.3997 0.7756 0 1.417 1.101
19 -0.5835 1.122 0.3978 1.3997 0.7756 0 1.417 1.101
20 -0.1185 6.3204 0 -0.1185 6.3204 0 1.417 1.417
21 0 -6.8958 0 0 -0.4669 0 1.417 1.0982
22 0.213 0.312 0.0777 0.213 0.312 0.0777 1.101 1.101
23 0.213 0.312 0.0777 0.213 0.312 0.0777 1.101 1.101
24 0 -0.689 0 0 -0.689 0 1.0982 1.0982

MiddleBondTorsion Coeffs

1 -17.787 -7.1877 0 1.53
2 0 0 0 1.53
3 -14.879 -3.6581 -0.3138 1.53
4 0 0 0 1.501
5 -17.787 -7.1877 0 1.53
6 -14.879 -3.6581 -0.3138 1.53
7 0 0 0 1.501
8 0 9.1792 0 1.417
9 0 3.9421 0 1.417
10 0 0 0 1.53
11 -14.879 -3.6581 -0.3138 1.53
12 0 0 0 1.53
13 -14.879 -3.6581 -0.3138 1.53
14 0 9.1792 0 1.417
15 0 3.9421 0 1.417
16 0 0 0 1.53
17 0 0 0 1.53
18 -5.5679 1.4083 0.301 1.501
19 -5.5679 1.4083 0.301 1.501
20 27.5989 -2.312 0 1.417
21 0 -1.1521 0 1.417
22 -14.261 -0.5322 -0.4864 1.53
23 -14.261 -0.5322 -0.4864 1.53
24 0 4.8228 0 1.417

BondBond13 Coeffs

1 0 1.53 1.53
2 0 1.53 1.501
3 0 1.53 1.101
4 0 1.53 1.417
5 0 1.53 1.53
6 0 1.53 1.101
7 0 1.53 1.417
8 2.5085 1.501 1.417
9 0.8743 1.501 1.0982
10 0 1.53 1.501
11 0 1.53 1.101
12 0 1.53 1.501
13 0 1.53 1.101
14 2.5085 1.501 1.417
15 0.8743 1.501 1.0982
16 0 1.501 1.101
17 0 1.501 1.101
18 -3.4826 1.417 1.101
19 -3.4826 1.417 1.101
20 53 1.417 1.417
21 -6.2741 1.417 1.0982
22 0 1.101 1.101
23 0 1.101 1.101
24 -1.7077 1.0982 1.0982

AngleTorsion Coeffs

1 0.3886 -0.3139 0.1389 0.3886 -0.3139 0.1389 112.67 112.67
2 0 0 0 0 0 0 112.67 108.4
3 -0.2454 0 -0.1136 0.3113 0.4516 -0.1988 112.67 110.77
4 0 0 0 0 0 0 108.4 120.05
5 0.3886 -0.3139 0.1389 0.3886 -0.3139 0.1389 112.67 112.67
6 -0.2454 0 -0.1136 0.3113 0.4516 -0.1988 112.67 110.77
7 0 0 0 0 0 0 108.4 120.05
8 0 -4.4683 0 0 3.8987 0 120.05 118.9
9 0 -0.1242 0 0 3.4601 0 120.05 117.94
10 0 0 0 0 0 0 112.67 108.4
11 -0.2454 0 -0.1136 0.3113 0.4516 -0.1988 112.67 110.77
12 0 0 0 0 0 0 112.67 108.4
13 -0.2454 0 -0.1136 0.3113 0.4516 -0.1988 112.67 110.77
14 0 -4.4683 0 0 3.8987 0 120.05 118.9
15 0 -0.1242 0 0 3.4601 0 120.05 117.94
16 0 0 0 0 0 0 108.4 110.77
17 0 0 0 0 0 0 108.4 110.77
18 0.2251 0.6548 0.1237 4.6266 0.1632 0.0461 120.05 111
19 0.2251 0.6548 0.1237 4.6266 0.1632 0.0461 120.05 111
20 1.9767 1.0239 0 1.9767 1.0239 0 118.9 118.9
21 0 2.5014 0 0 2.7147 0 118.9 117.94
22 -0.8085 0.5569 -0.2466 -0.8085 0.5569 -0.2466 110.77 110.77
23 -0.8085 0.5569 -0.2466 -0.8085 0.5569 -0.2466 110.77 110.77
24 0 2.4501 0 0 2.4501 0 117.94 117.94

Improper Coeffs # class2/kk

1 0 0
2 0 0
3 0 0
4 0 0
5 0 0
6 0 0
7 0 0
8 0 0
9 0 0
10 0 0
11 0 0
12 7.8153 0
13 7.8153 0
14 4.8912 0

AngleAngle Coeffs

1 2.0403 -1.8202 1.0827 108.4 110.77 111
2 0.1184 -1.3199 -1.3199 110.77 112.67 110.77
3 1.0827 -1.8202 2.0403 110.77 108.4 111
4 0.2738 -0.4825 0.2738 110.77 110.77 107.66
5 -1.3199 -1.3199 0.1184 112.67 110.77 110.77
6 0.2738 -0.4825 0.2738 110.77 110.77 107.66
7 2.3794 3.0118 2.3794 111 111 107.66
8 -0.3157 -0.3157 -0.3157 107.66 107.66 107.66
9 0 0 0 112.67 108.4 108.4
10 -1.3199 -1.3199 0.1184 112.67 110.77 110.77
11 2.0403 -1.8202 1.0827 108.4 110.77 111
12 0 0 0 120.05 120.05 118.9
13 0 0 0 120.05 120.05 118.9
14 0 0 0 118.9 117.94 117.94

Atoms # full/kk

5097 8 3 -0.1268 6.280349617693916 10.264428594923073 46.35721469788273 1 1 0
2696 5 4 0.1268 10.755002579984083 7.670866437113527 9.903448857329009 0 0 0
5098 8 4 0.1268 5.241310194071163 10.469378845011292 4.406021954311017 1 1 1
5095 8 3 -0.1268 7.097412791818083 9.512892143468381 4.821901362961078 1 1 1
2658 5 4 0.1268 7.068975688156045 10.491697323042686 8.282462931134292 0 0 0
5093 8 3 -0.1268 8.428900318893431 9.242849868780885 4.420258061177505 1 1 1
3070 5 3 0 8.431231905705134 4.3253767698351275 7.493468808278763 0 0 0
3077 5 3 -0.1268 9.75310995930062 5.86524649438438 6.101629547910957 0 0 0
3079 5 3 -0.1268 8.552038167375525 5.356403102887391 6.570587351513256 0 0 0
3078 5 4 0.1268 9.732441289434842 6.5564650781361955 5.288371640302738 0 0 0
3067 5 4 0.053 5.553318739807027 4.5764720165117705 9.270585459434164 0 0 0
3053 5 4 0.053 5.2975584157381785 4.991733877407989 6.430728877938569 0 0 0
3065 5 1 -0.106 5.957128951964952 4.676906207906081 8.20183589638036 0 0 0
3052 5 2 -0.053 4.724790972640017 4.823103978926404 7.330525825196109 0 0 0
3066 5 4 0.053 6.468134050951139 5.714557725664531 8.259201136801842 0 0 0
2660 5 4 0.1268 7.964877524893381 8.137181449193687 8.14578343955789 0 0 0
5096 8 4 0.1268 6.765274237427326 9.309115226486352 5.816821012483672 1 1 1
3072 5 4 0.1268 9.56482316141031 45.61981500033786 9.035836103826185 0 -1 0
3071 5 3 -0.1268 9.703655152044982 46.22814634769514 8.077265801869851 0 -1 0
5094 8 4 0.1268 9.01777847227357 8.940599372860708 5.2854926456998905 1 1 1
3050 5 4 0.053 4.550222972760726 7.0947615405027165 7.116215842031869 0 0 0
3075 5 3 -0.1268 10.953263628192884 5.370927276861559 6.583541280099631 0 0 0
5122 8 1 -0.106 14.402732747834799 8.520393017352486 45.84543105752086 1 1 0
5123 8 4 0.053 15.014713133663472 8.010334788257168 45.035168635360925 1 1 0
5136 8 4 0.053 13.427114910997435 8.050184264723887 46.01943064629928 1 1 0
5124 8 3 0 15.089005775811895 8.865240970520183 4.7915855551679085 1 1 1
3073 5 3 -0.1268 10.899327418486331 4.38786414325372 7.634290007350783 0 0 0
5126 8 4 0.1268 13.63241728037028 8.091829617382121 6.064602091672458 1 1 1
5104 8 4 0.053 11.658445138982898 9.637043746420629 4.624030818602757 1 1 1
5125 8 3 -0.1268 14.642473498431427 8.489897881419974 6.065217568808662 1 1 1
3076 5 4 0.1268 11.929075161235449 5.736521982801432 6.288683725552295 0 0 0
3074 5 4 0.1268 11.931902395897643 46.41006602746269 8.010912252689897 0 -1 0
5016 8 4 0.1268 16.11341485717298 6.1049316243570235 6.641327123047724 1 1 1
5015 8 3 -0.1268 16.535085503938507 5.427954279484144 5.892607248200677 1 1 1
5014 8 4 0.1268 14.885130631927224 5.159245551661191 4.504184068398158 1 1 1
5013 8 3 -0.1268 15.965283690195369 4.972395651050787 4.68417988306618 1 1 1
5127 8 3 -0.1268 15.028390032773164 8.95991216440536 7.357689653641964 1 1 1
1917 3 3 -0.1268 21.886811362350038 6.1471554936871176 9.821900610437211 1 1 0
2726 5 4 0.1268 19.895923797799377 9.883493700825467 13.124770647292745 0 0 0
3668 6 4 0.1268 21.395642635868377 11.828945558746469 9.390816012053003 0 0 0
3667 6 3 -0.1268 22.280101987273383 11.221752725858165 9.78813967470136 0 0 0
2724 5 4 0.1268 21.162812081477806 7.5763882393787085 12.705068384581606 0 0 0
5134 8 4 0.1268 16.28405649305242 10.346845022445507 46.25992832558443 1 1 0
2725 5 3 -0.1268 19.553094288321937 8.821008231008962 13.204611041125865 0 0 0
5133 8 3 -0.1268 16.039997977068552 9.865624915767432 4.857068801646938 1 1 1
41 1 3 -0.1268 20.089895598520663 11.047352202425788 6.2872021328188 0 0 1
5017 8 3 -0.1268 17.833179345024394 4.965402075504807 6.181174256856588 1 1 1
5018 8 4 0.1268 18.43796141706639 5.362608942285466 7.076593687150324 1 1 1
42 1 4 0.1268 19.831168495697664 10.829995959634662 7.375821323676098 0 0 1
43 1 3 -0.1268 19.820643509091422 10.015445961865435 5.358364590965899 0 0 1
44 1 4 0.1268 19.376502688119157 9.048055769296855 5.653418345439865 0 0 1
1918 3 4 0.1268 21.9593914163966 6.797455880892882 10.681296894767117 1 1 0
1919 3 3 -0.1268 21.864851767574972 6.611865511376509 8.527781345965254 1 1 0
3669 6 3 -0.1268 23.12856036469892 10.438389623822637 8.91231311550485 0 0 0
3673 6 3 -0.1268 24.44192114491513 9.790290765574664 10.794209982231983 0 0 0
3670 6 4 0.1268 22.83690904724817 10.62865034748475 7.851532119814364 0 0 0
6077 10 3 -0.1268 27.122872403566607 11.172788048507263 5.74861729804076 0 1 0
6078 10 4 0.1268 26.06885170921097 11.343491417956933 5.846553819692649 0 1 0
6079 10 3 -0.1268 27.99593786231634 11.888736772782785 6.5974201118561435 0 1 0
3674 6 4 0.1268 25.391632010290344 9.364722050250185 11.290859578332642 0 0 0
6044 10 4 0.1268 27.307640486343956 6.1828165205567895 9.803232942975495 0 1 0
6043 10 3 -0.1268 28.143046078664025 6.662388687152771 10.37465666693112 0 1 0
3671 6 3 -0.1268 24.1882760960155 9.678898713704536 9.414151380728114 0 0 0
1920 3 4 0.1268 22.158013138716463 7.622325190433071 8.280076855503316 1 1 0
4355 7 3 -0.1268 27.502510876496412 4.677025148922302 6.189388056190707 0 1 1
3672 6 4 0.1268 25.0220575490128 9.270799882086857 8.840185722707815 0 0 0
4358 7 4 0.1268 27.541940123737863 6.660136527907982 7.03887396549866 0 1 1
4356 7 4 0.1268 28.063095494436585 4.36002790196359 7.1124427352999575 0 1 1
6081 10 3 -0.1268 29.361758749692502 11.750096388715292 6.51282324544772 0 1 0
6058 10 4 0.1268 31.0431015113699 10.674556160419808 9.852450879272867 0 1 0
6057 10 3 -0.1268 32.12501796675222 10.446732694240524 9.775969031718196 0 1 0
6073 10 3 -0.1268 29.004823235907832 9.690474608812751 5.433305611931272 0 1 0
6072 10 3 0 29.931429544042466 10.599731656822728 6.012790201987732 0 1 0
6070 10 2 -0.053 31.49519557794231 10.458774771807393 5.881142271033553 0 1 0
6056 10 3 0 32.7004910885842 9.648271169554913 8.80521770333019 0 1 0
6065 10 3 -0.1268 34.09901402298122 9.721057099278344 8.651444198495911 0 1 0
6039 10 4 0.053 32.585426967366615 7.705810431641069 10.429968834302391 0 1 0
6040 10 3 0 30.52185012672589 7.114790681268142 10.367028807961143 0 1 0
4344 7 4 0.1268 33.42443208376595 4.403370878719701 5.835996447454093 0 1 1
6035 10 1 -0.106 32.421129725592635 5.570768380894552 10.36183905632446 0 1 0
6042 10 4 0.1268 29.495561469550527 5.907068470341157 8.819742739240821 0 1 0
6041 10 3 -0.1268 29.361578220395725 6.454958095235626 9.812328737025819 0 1 0
6069 10 4 0.053 31.692049569959508 8.282943162538004 5.810776411329512 0 1 0
6067 10 1 -0.106 32.10648748421989 9.109214682463739 6.379852317651413 0 1 0
6038 10 2 -0.053 31.907962516867983 6.985534804191758 9.947108328778143 0 1 0
6053 10 4 0.053 31.587429495138647 6.5955786814348905 7.663845856613155 0 1 0
6068 10 4 0.053 33.12652139416041 8.926736333648286 6.166159728555483 0 1 0
6055 10 4 0.053 30.806805355586214 9.062074415029183 8.09469332756612 0 1 0
6052 10 4 0.053 33.190866448821765 6.840592603789885 8.052543109735998 0 1 0
6054 10 2 -0.053 31.867448749511745 8.786746539206636 7.949226073958847 0 1 0
6051 10 1 -0.106 32.182857309135926 7.255672377612973 8.364147161600165 0 1 0
6176 10 4 0.1268 37.25641756127515 4.807412822199168 7.725485760672457 0 1 0
6188 10 4 0.1268 41.53348816942148 7.126126089305957 45.795295457465144 0 1 -1
6063 10 3 -0.1268 34.839707400546445 10.546697410423281 9.487534654880163 0 1 0
6066 10 4 0.1268 34.677920640776335 9.426432517577995 7.78605995666406 0 1 0
6064 10 4 0.1268 35.93281040638252 10.655882034076248 9.282563429093004 0 1 0
6186 10 4 0.1268 40.3650740795874 5.088756658417736 4.468473425831422 0 1 0
3026 5 4 0.1268 38.872094619409694 6.506889523472016 6.896601735178326 -1 0 0
2997 5 3 -0.1268 36.09202074520691 9.682062774956169 5.114506074639086 -1 0 0
2987 5 4 0.053 38.208206299509065 10.438679313283666 8.90636208180518 -1 0 0
2999 5 3 -0.1268 37.1487603122705 9.733701051227154 6.11031375990553 -1 0 0
3000 5 4 0.1268 37.01801781096042 9.089257010093856 6.982791836327001 -1 0 0
3002 5 4 0.053 40.14672052620156 9.504573211628799 8.005990501400497 -1 0 0
3001 5 1 -0.106 40.14510458344675 10.145756746929134 7.060360728063957 -1 0 0
3003 5 4 0.053 40.06772261436053 9.473089460177864 6.251526773787114 -1 0 0
3025 5 3 -0.1268 39.759373986726004 6.553267203884529 7.526252527216616 -1 0 0
6025 10 3 -0.1268 35.361606770658554 5.168502345830136 11.77030283958917 0 1 0
6027 10 3 -0.1268 36.68126867848718 5.536730458380722 11.875142595884991 0 1 0
3028 5 4 0.1268 38.786062066325904 5.84231462067711 9.17622156261433 -1 0 0
3027 5 3 -0.1268 39.75096212393319 6.126810477973171 8.858787510324438 -1 0 0
3048 5 4 0.1268 4.357127877694538 7.775685614723822 4.938615187537336 0 0 0
3018 5 4 0.053 42.86668386711225 9.674549924962626 8.507243792808138 -1 0 0
3019 5 4 0.053 43.753117473513655 10.420355570827237 7.130179218970362 -1 0 0
3032 5 4 0.1268 43.03415692942504 6.936381038079844 9.361452282681087 -1 0 0
3051 5 4 0.053 46.1526131392802 6.3478174399758975 8.755388099415324 -1 0 0
3049 5 1 -0.106 46.269658404206496 6.266233497775026 7.5557642120235355 -1 0 0
3031 5 3 -0.1268 42.04400726270634 6.906371153077339 8.895475658526342 -1 0 0
3039 5 3 -0.1268 44.049928553653196 5.564217020735548 4.687877621674392 -1 0 0
3017 5 1 -0.106 42.81144811033565 9.785113729326566 7.361723147468567 -1 0 0
3033 5 1 -0.106 44.556042291898635 7.855349538276291 7.240599828563997 -1 0 0
3034 5 4 0.053 44.718447367385515 8.183910946370432 8.280590414042631 -1 0 0
3038 5 3 0 45.03954167059349 6.274088360583907 5.344494630495572 -1 0 0
3035 5 4 0.053 45.34782855064662 8.438293274832784 6.646885164069264 -1 0 0
3021 5 4 0.053 42.90854002104469 8.204416916438912 5.896761582045932 -1 0 0
3022 5 3 0 41.96273247944226 7.412845170270963 7.579009557711961 -1 0 0
3020 5 2 -0.053 43.067721974961714 8.307276832250686 6.920078653524107 -1 0 0
3036 5 2 -0.053 44.97716329716121 6.470580040135609 6.8168875442368995 -1 0 0
3023 5 3 -0.1268 40.817396964267886 7.143592811744949 6.93348314911411 -1 0 0
3024 5 4 0.1268 40.71963924744225 7.386292114042263 5.8871455223275975 -1 0 0
3037 5 4 0.053 44.363321261083286 5.654611837287754 7.208228064216165 -1 0 0
3029 5 3 -0.1268 40.956746091823554 6.270794227655373 9.52655856038006 -1 0 0
3030 5 4 0.1268 41.079506156463495 5.882114194984815 10.541803879988446 -1 0 0
2880 5 4 0.1268 9.246935006220207 13.518534560052437 6.969161883902511 0 0 0
2874 5 4 0.053 9.8534237919427 15.499610864453356 8.83198103650386 0 0 0
2903 5 3 -0.1268 5.2430049390338755 13.801648412744802 7.80792647216061 0 0 0
2894 5 3 0 5.074897962831048 15.06207917376468 7.520507836788586 0 0 0
2904 5 4 0.1268 5.786442840815395 13.371343661128758 8.657206147521315 0 0 0
2889 5 1 -0.106 7.153868575164873 15.908807397196638 8.654972474438061 0 0 0
2891 5 4 0.053 7.2440771996307 14.827005726258708 9.148765034093142 0 0 0
2879 5 3 -0.1268 8.826087522654717 14.192025670536285 6.147761814324244 0 0 0
2693 5 3 -0.1268 10.74051271717729 8.615719961583654 7.921068500096328 0 0 0
2694 5 4 0.1268 10.051357385625357 7.811104248594556 7.435821536383127 0 0 0
2695 5 3 -0.1268 10.96167677423774 8.573108147298107 9.289000178001867 0 0 0
2907 5 4 0.053 4.324598465996172 15.787811662546904 10.098624252037832 0 0 0
2896 5 4 0.1268 46.52060831933196 16.400909700292438 5.969116694435801 -1 0 0
2895 5 3 -0.1268 4.266347257321338 15.323037797417307 6.354019995014884 0 0 0
2890 5 4 0.053 7.460637913311876 16.520621039761785 9.594571200823012 0 0 0
2892 5 2 -0.053 5.607840693367773 16.27471924264229 8.419774407682533 0 0 0
2852 5 4 0.1268 14.818770690529483 12.437321207147962 6.105368319672035 0 0 0
2686 5 3 0 11.471396982588153 9.705544718700342 9.882615461223017 0 0 0
2691 5 3 -0.1268 10.970207480471418 9.70111243613588 7.123004646864513 0 0 0
2692 5 4 0.1268 10.617208931981555 9.710163669674486 6.169948308703073 0 0 0
2861 5 4 0.053 11.250060359533133 16.134540978672145 6.742402183404673 0 0 0
2855 5 3 -0.1268 14.294030900244381 15.776338579285941 5.961249331960793 0 0 0
2847 5 3 -0.1268 13.395369148011072 14.809601555636853 8.04662830856411 0 0 0
2688 5 4 0.1268 12.143320594368415 11.666085989772641 9.72327606656541 0 0 0
2690 5 4 0.1268 11.802271814610837 11.654528556371403 7.150124847253248 0 0 0
2850 5 4 0.1268 13.617959722953158 12.711827070868443 8.412354548956781 0 0 0
2849 5 3 -0.1268 13.847779104192256 13.522914032251137 7.719959698193974 0 0 0
2687 5 3 -0.1268 11.761867389060427 10.784801080660486 9.106900523173284 0 0 0
2848 5 4 0.1268 12.663452522173044 14.927942651096801 8.97033782242251 0 0 0
2858 5 4 0.053 12.049107554749696 16.98916940059125 9.30612030175022 0 0 0
2689 5 3 -0.1268 11.582708610642104 10.800546252710799 7.7209530966215265 0 0 0
2846 5 3 0 13.684913916449085 15.868696720393707 7.199724027479582 0 0 0
5107 8 4 0.053 13.365303749167552 11.216886586075773 46.45172562248995 1 1 0
2851 5 3 -0.1268 14.584165236957825 13.436589049711293 6.48434170685169 0 0 0
2853 5 3 -0.1268 14.730798753184503 14.512203766552553 5.592309940533447 0 0 0
5105 8 4 0.053 11.07829381481132 11.206992916451266 46.28931444701848 1 1 0
5129 8 3 -0.1268 16.153833037812973 9.760087308033647 7.308076261838884 1 1 1
5128 8 4 0.1268 14.555445427183237 8.824775648062586 8.317337673471618 1 1 1
54 1 3 0 19.841319702224872 16.418358946499517 5.038461901492575 0 0 1
56 1 4 0.1268 17.944705828082725 15.41344289203818 4.8702722501965034 0 0 1
2783 5 3 -0.1268 16.783157776993672 14.00006915935828 11.195801606096445 0 0 0
2784 5 4 0.1268 15.965992016648201 14.257255496136658 11.847940686558374 0 0 0
63 1 3 -0.1268 20.731900153510935 16.98508287898212 5.949880103711573 0 0 1
2786 5 4 0.1268 15.10175466683706 13.486247325309513 9.811852640465947 0 0 0
57 1 3 -0.1268 18.28537169961237 16.024035282958394 6.907963742545679 0 0 1
2785 5 3 -0.1268 16.203044434739947 13.298374879473121 10.082642581446184 0 0 0
2788 5 4 0.1268 16.621609827771465 12.384661343056536 8.269726624377626 0 0 0
2791 5 3 -0.1268 19.021502437669376 13.565408402739035 10.567251567191812 0 0 0
58 1 4 0.1268 17.398856699757744 15.487238071421723 7.089362009022472 0 0 1
55 1 3 -0.1268 18.660438814514904 15.852116706878043 5.556261162917245 0 0 1
2789 5 3 -0.1268 18.510840915715995 12.967588290371513 9.42290829709934 0 0 0
2787 5 3 -0.1268 17.11917383612872 12.848962272074917 9.157629409203961 0 0 0
2790 5 4 0.1268 19.104917418476123 12.926244404815845 8.541187534030673 0 0 0
39 1 3 -0.1268 20.427614763277408 12.27768698506678 5.739566164215488 0 0 1
40 1 4 0.1268 20.533912616038698 13.069703090257523 6.477737417587388 0 0 1
5131 8 3 -0.1268 16.612129237481284 10.34875416320186 6.116304078653712 1 1 1
5130 8 4 0.1268 16.64244260097684 10.073356093094286 8.215169495331978 1 1 1
5132 8 4 0.1268 17.312043377704732 11.143419751390162 6.232476672035705 1 1 1
3632 6 3 0 24.863179267018445 15.112219705185083 10.998685904272474 0 0 0
3640 6 4 0.1268 25.842637261661245 15.680825218878503 7.8123854009855 0 0 0
3636 6 4 0.1268 21.956937556639367 14.648095784100617 9.177441388532282 0 0 0
3642 6 4 0.1268 26.676583607196036 15.569213539915925 10.254329039919181 0 0 0
3639 6 3 -0.1268 25.181567766423445 15.471001166360994 8.593584289694391 0 0 0
3633 6 3 -0.1268 23.492331511810058 14.784507420928158 10.713733311574478 0 0 0
3635 6 3 -0.1268 23.05325248547084 14.860256327525535 9.406813961192315 0 0 0
3638 6 4 0.1268 23.397657298457673 15.322695344532159 7.330729551776531 0 0 0
27 1 3 -0.1268 26.34681638826304 16.351475982953474 5.161991218322191 0 0 1
3641 6 3 -0.1268 25.645793234422428 15.49282391283687 9.949190295497804 0 0 0
3637 6 3 -0.1268 23.861709084147645 15.126829809443594 8.301015779297526 0 0 0
3658 6 4 0.1268 27.209314878627445 12.812262612194926 10.27144945454834 0 0 0
30 1 4 0.1268 27.32161179111082 14.534894291724136 5.303714873150813 0 0 1
6080 10 4 0.1268 27.678562090191804 12.839644175423498 7.185487714139315 0 1 0
6096 10 4 0.1268 29.091561573736232 15.941697806651053 4.717188443913109 0 1 0
6097 10 3 -0.1268 30.191453464399725 14.233572399566542 4.383400230915239 0 1 0
6095 10 3 -0.1268 29.904229659682777 15.365877873399663 5.185835903715232 0 1 0
6088 10 3 0 31.19242211080673 13.350055516761728 4.670582289807642 0 1 0
6083 10 1 -0.106 31.91548678094654 10.801346527169468 4.411071044043466 0 1 0
6084 10 4 0.053 32.99915731480568 10.927372223520617 4.330981107510408 0 1 0
3656 6 4 0.1268 29.660185723708373 13.44405875139433 10.099582130572529 0 0 0
6082 10 4 0.1268 29.9097055162864 12.397074418179345 7.146345528282329 0 1 0
6089 10 3 -0.1268 31.97795869711545 13.729664684234724 5.810478129883367 0 1 0
6093 10 3 -0.1268 30.64990159123303 15.699766427034662 6.298458870167077 0 1 0
6094 10 4 0.1268 30.482531449513875 16.659423730167546 6.814418113532434 0 1 0
6090 10 4 0.1268 32.82626006343793 13.158280146428645 6.125357830644293 0 1 0
6059 10 3 -0.1268 32.94874884214252 11.22521808438881 10.545325714447985 0 1 0
6091 10 3 -0.1268 31.67108271986243 14.783881249710772 6.702096520221918 0 1 0
6092 10 4 0.1268 32.114280783374824 14.666442827829785 7.692330030411287 0 1 0
6071 10 4 0.053 31.885541180912497 11.38041930011491 6.460268441123528 0 1 0
2148 4 4 0.1268 34.80938136608572 13.072080748617442 4.641692172008314 -1 0 1
2147 4 3 -0.1268 35.42454125587635 13.667517125347935 5.44735669223079 -1 0 1
2149 4 3 -0.1268 36.18140162685056 14.840047154848454 5.277430195268165 -1 0 1
2150 4 4 0.1268 36.41753410001476 15.239938065355853 4.285146993408154 -1 0 1
2956 5 2 -0.053 39.774476232653846 14.603428264227245 10.633018901158096 -1 0 0
2146 4 4 0.1268 34.56683183003362 12.34714066319781 6.941496277196056 -1 0 1
2153 4 4 0.053 39.071028915418346 16.20809626987518 6.552881046354853 -1 0 1
2145 4 3 -0.1268 35.112260991632624 13.328228228305464 6.750834696548996 -1 0 1
2143 4 3 -0.1268 35.61485157932995 14.035494248641182 7.8742019089889865 -1 0 1
2144 4 4 0.1268 35.30437894015101 13.60300003225905 8.843283494657625 -1 0 1
2141 4 3 -0.1268 36.25133512713931 15.268761850233869 7.68437376752431 -1 0 1
2140 4 3 0 36.579109488714344 15.628446275963993 6.394522580082317 -1 0 1
2972 5 2 -0.053 39.366026967753136 12.361375027450254 9.312818077710252 -1 0 0
2142 4 4 0.1268 36.61917416943091 15.85259388182737 8.453440996752429 -1 0 1
2971 5 4 0.053 37.80733608433463 13.855436149396976 9.849891976535254 -1 0 0
2969 5 1 -0.106 38.853351140194356 13.839565233074623 9.701943009947204 -1 0 0
2970 5 4 0.053 38.77812037486142 14.287189184997125 8.672689355433683 -1 0 0
2973 5 4 0.053 40.39521811277475 12.444956970197502 8.815397708293476 -1 0 0
2989 5 4 0.053 39.36795850282447 12.176683462291656 6.748316720157626 -1 0 0
2986 5 4 0.053 37.37184819991972 11.857605691907214 8.492901773043718 -1 0 0
2985 5 1 -0.106 38.41447942285424 11.398905364619871 8.470955608967323 -1 0 0
2988 5 2 -0.053 38.945390082647336 11.211764169472307 7.091712818178861 -1 0 0
2990 5 3 0 38.036430733130864 10.81338231062488 6.043271054413746 -1 0 0
2949 5 3 -0.1268 44.457704781159634 12.462599455841364 9.91892913859277 -1 0 0
2951 5 3 -0.1268 43.702771919778975 13.696301967115943 9.77613787817009 -1 0 0
2950 5 4 0.1268 44.61376180151237 11.891256094500484 8.993814077796666 -1 0 0
2901 5 3 -0.1268 4.832448598781122 12.698511330816357 7.023746502594078 0 0 0
2902 5 4 0.1268 4.811689730725232 11.659889372966472 7.266185605243081 0 0 0
2900 5 4 0.1268 46.10489496266352 12.067020441121555 5.278439066643478 -1 0 0
2938 5 4 0.053 42.48068579727812 17.626610520284054 10.115081966623176 -1 0 0
3016 5 4 0.1268 41.72232172811492 13.082329300825736 6.5411216476617495 -1 0 0
2158 4 4 0.1268 41.736851339576724 17.315479494375463 7.158674346273921 -1 0 1
2160 4 4 0.1268 43.95935837804165 16.413261420110835 6.220950541907655 -1 0 1
2953 5 1 -0.106 40.98923365627131 15.23202177968165 9.938819648796036 -1 0 0
2955 5 4 0.053 40.5823989039073 16.093260195340353 9.367634150711677 -1 0 0
2937 5 1 -0.106 43.10983138183409 16.690341728687827 10.232108692397215 -1 0 0
3015 5 3 -0.1268 41.74299779214413 12.709833557653187 5.504853398509563 -1 0 0
2952 5 4 0.1268 43.456613065885115 13.996742480094204 8.745849941410217 -1 0 0
2898 5 4 0.1268 45.63060460835456 14.590866509608736 4.475238767645711 -1 0 0
2897 5 3 -0.1268 46.1888352848032 14.348220601545172 5.440461689804653 -1 0 0
2954 5 4 0.053 41.37166337486528 14.684028802911609 9.025804593178869 -1 0 0
2899 5 3 -0.1268 4.214434931749317 12.993281779566825 5.756924761339199 0 0 0
2939 5 4 0.053 43.49720464116854 16.365996135724064 9.17799816828691 -1 0 0
3006 5 3 0 41.701803855657516 11.321028383445743 5.598276477332476 -1 0 0
3005 5 4 0.053 41.56568406550043 11.480560277248443 7.739269639127625 -1 0 0
3004 5 2 -0.053 41.55114125046635 10.698452056784923 6.979776002980175 -1 0 0
2867 5 3 -0.1268 9.187326058444834 19.691412308533614 4.367131831351441 0 0 0
2916 5 4 0.1268 5.889649651877822 22.32670175237702 7.380102625235096 0 0 0
2915 5 3 -0.1268 5.4614077153906 21.37070458942867 7.739991483029045 0 0 0
2919 5 3 -0.1268 5.183959420091594 19.968327401730207 9.60377937493426 0 0 0
2868 5 4 0.1268 8.581724366149071 20.2170940055166 45.93111652257439 0 0 -1
2893 5 4 0.053 5.588575215795743 17.116243270146754 7.735146625257551 0 0 0
2910 5 3 0 4.276448655188026 19.046710448777485 8.910034516341623 0 0 0
2878 5 3 0 8.171242067527483 15.422281357969663 6.447878961045769 0 0 0
2913 5 3 -0.1268 4.559462541492598 20.57156237085428 6.939256262980076 0 0 0
2905 5 1 -0.106 4.850888266783833 16.737707006778827 9.705070032588422 0 0 0
2917 5 3 -0.1268 5.623216086043534 21.130120826540413 9.089732593867225 0 0 0
2906 5 4 0.053 5.603789433598438 17.081406431805576 10.499878834035618 0 0 0
2870 5 4 0.1268 8.24551264487959 20.745190302347446 6.038675497716179 0 0 0
2887 5 3 -0.1268 7.457853843381963 15.940195149907298 5.332543729888292 0 0 0
2920 5 4 0.1268 5.567204338682103 19.69608612429248 10.607729402418137 0 0 0
2918 5 4 0.1268 6.5338686454208705 21.500299354357566 9.722848169633513 0 0 0
2914 5 4 0.1268 46.53230071210887 20.859360216191384 5.94609046371434 -1 0 0
2911 5 3 -0.1268 46.3737317186673 19.37906894362945 7.572160414869778 -1 0 0
2877 5 4 0.053 7.909608964864779 17.340247339487433 7.429801020229852 0 0 0
2888 5 4 0.1268 6.992601239019134 16.914207351084123 5.272816924594018 0 0 0
2875 5 4 0.053 9.513606561516138 17.056293504190872 9.184556267464828 0 0 0
2873 5 1 -0.106 9.64514637162996 16.485874479123027 8.317132473443367 0 0 0
2876 5 2 -0.053 8.246049049375593 16.298836097955494 7.666146583381679 0 0 0
2865 5 3 -0.1268 9.928413924178777 18.54341451003512 46.316817167248516 0 0 -1
2869 5 3 -0.1268 8.867565687806014 19.871984261667755 5.722379847349706 0 0 0
2863 5 3 -0.1268 10.43956139143942 17.682717228703407 4.9169786071744745 0 0 0
2864 5 4 0.1268 11.011208828130236 16.711296532562656 4.57955628645404 0 0 0
2871 5 3 -0.1268 9.527283608858685 19.048239673959873 6.650690557022493 0 0 0
2862 5 3 0 10.368513170186773 17.973811596609913 6.305074610567657 0 0 0
2839 5 3 -0.1268 14.029376044893489 21.17600380506755 8.591443838371907 0 0 0
2856 5 4 0.1268 14.322598512525943 16.583940210854806 5.326279600849143 0 0 0
2841 5 1 -0.106 14.537607621718047 17.5015275692974 8.871582925241109 0 0 0