units real
atom_style full
boundary p p p

# --- Force Field Styles ---
pair_style lj/class2/coul/long 9.5 9.5
kspace_style pppm 1e-6
dielectric 1.000000
bond_style class2
angle_style class2
dihedral_style class2
improper_style class2
special_bonds lj/coul 0 0 1
pair_modify mix sixthpower tail yes
neighbor 2.0 bin
neigh_modify delay 0 every 1 check yes
neigh_modify one 4000
# KOKKOS: package loaded via -pk kokkos on the command line

read_data /home/alexzhao/PolyJarvis/data/PMMA4/lammps/equil/npt_pppm/npt_pppm_out.data
Reading data file ...
  orthogonal box = (4.2164569 4.2164569 4.2164569) to (47.534541 47.534541 47.534541)
  1 by 1 by 1 MPI processor grid
  reading atoms ...
  7520 atoms
  reading velocities ...
  7520 velocities
  scanning bonds ...
  4 = max bonds/atom
  scanning angles ...
  17 = max angles/atom
  scanning dihedrals ...
  40 = max dihedrals/atom
  scanning impropers ...
  14 = max impropers/atom
  orthogonal box = (4.2164569 4.2164569 4.2164569) to (47.534541 47.534541 47.534541)
  1 by 1 by 1 MPI processor grid
  reading bonds ...
  7510 bonds
  reading angles ...
  14000 angles
  reading dihedrals ...
  18910 dihedrals
  reading impropers ...
  8500 impropers
Finding 1-2 1-3 1-4 neighbors ...
  special bond factors lj:    0        0        1       
  special bond factors coul:  0        0        1       
     4 = max # of 1-2 neighbors
    11 = max # of 1-3 neighbors
    15 = max # of special neighbors
  special bonds CPU = 0.004 seconds
  read_data CPU = 0.283 seconds
include /home/alexzhao/PolyJarvis/data/PMMA4/lammps/equil/emc_build.params
# LAMMPS parameters created by EMC v9.4.4, build Jul 31 2025 20:33:44

# Variables

variable	seed		index	734812
variable	ntotal		index	7520
variable	fshape		index	1
variable	output		index	emc_build
variable	field		index	pcff/pcff
variable	location1	index	~/emc/field/
variable	nav		index	0.6022141179
variable	temperature	index	300
variable	radius		index	5
variable	nrelax		index	100
variable	weight_nonbond	index	0.0001
variable	weight_bond	index	0.0001
variable	weight_focus	index	1
variable	cutoff		index	9.5
variable	charge_cutoff	index	9.5
variable	kappa		index	4
variable	density1	index	0.6
variable	lprevious	index	0
variable	lphase		index	51.7509981335
variable	f_poly		index	10
variable	chem_repeat	index	*CC(C)(C(=O)OC)*
variable	chem_cap	index	*[H]
variable	lg_repeat	index	15
variable	lg_cap		index	1
variable	norm_poly	index	100
variable	l_poly		index	752
variable	mg_repeat	index	88.10716
variable	mg_cap		index	1.00797
variable	m_poly		index	4407.37394
variable	n_poly		index	10
variable	mtotal		index	50079.3144
variable	nphase1		index	7520
variable	mphase1		index	50079.3144
variable	vphase1		index	138597.753721
variable	lbox		index	51.7509981335
variable	lphase1		index	51.7509981335
variable	lxx		index	51.7509981335
variable	lyy		index	51.7509981335
variable	lzz		index	51.7509981335
variable	lzy		index	0
variable	lzx		index	0
variable	lyx		index	0
variable	vtotal		index	138597.753721
variable	nl_poly		index	10

# Types

variable	type_c		index	1
variable	type_c1		index	2
variable	type_c_1	index	3
variable	type_hc		index	4
variable	type_o_1	index	5
variable	type_o_2	index	6

variable	type_bond_c_c	index	1
variable	type_bond_c_c1	index	2
variable	type_bond_c_c_1	index	3
variable	type_bond_c_hc	index	4
variable	type_bond_c_o_2	index	5
variable	type_bond_c1_c_1 index	6
variable	type_bond_c1_hc	index	7
variable	type_bond_c_1_o_1 index	8
variable	type_bond_c_1_o_2 index	9

variable	type_angle_c_c_c index	1
variable	type_angle_c_c_c1 index	2
variable	type_angle_c_c_c_1 index	3
variable	type_angle_c_c_hc index	4
variable	type_angle_c_c1_c index	5
variable	type_angle_c_c1_c_1 index	6
variable	type_angle_c_c1_hc index	7
variable	type_angle_c_c_1_o_1 index	8
variable	type_angle_c_c_1_o_2 index	9
variable	type_angle_c_o_2_c_1 index	10
variable	type_angle_c1_c_hc index	11
variable	type_angle_c1_c_1_o_1 index	12
variable	type_angle_c1_c_1_o_2 index	13
variable	type_angle_c_1_c1_hc index	14
variable	type_angle_hc_c_hc index	15
variable	type_angle_hc_c_o_2 index	16
variable	type_angle_o_1_c_1_o_2 index	17

# Clusters

variable	n0_poly		index	1
variable	n1_poly		index	10
variable	nl_poly		index	10

# Flags

variable	flag_charged	index	1

# Masses

mass		1    12.01115  # c
mass		2    12.01115  # c1
mass		3    12.01115  # c_1
mass		4     1.00797  # hc
mass		5    15.99940  # o_1
mass		6    15.99940  # o_2

# Potentials

pair_modify	mix sixthpower tail yes
special_bonds	lj/coul 0 0 1

# Pair Coeffs

pair_coeff	 1  1    0.05400    4.01000  # c,c
pair_coeff	 2  2    0.05400    4.01000  # c1,c1
pair_coeff	 3  3    0.12000    3.81000  # c_1,c_1
pair_coeff	 4  4    0.02000    2.99500  # hc,hc
pair_coeff	 5  5    0.26700    3.30000  # o_1,o_1
pair_coeff	 6  6    0.24000    3.42000  # o_2,o_2

# Bond Coeffs

bond_coeff	1    1.53000  299.67000 -501.77000  679.81000  # c,c
bond_coeff	2    1.53000  299.67000 -501.77000  679.81000  # c,c1
bond_coeff	3    1.52020  253.70670 -423.03700  396.90000  # c,c_1
bond_coeff	4    1.10100  345.00000 -691.89000  844.60000  # c,hc
bond_coeff	5    1.43000  326.72730 -608.53060  689.03330  # c,o_2
bond_coeff	6    1.52020  253.70670 -423.03700  396.90000  # c1,c_1
bond_coeff	7    1.10100  345.00000 -691.89000  844.60000  # c1,hc
bond_coeff	8    1.20200  851.14030 -1918.48820 2160.76590  # c_1,o_1
bond_coeff	9    1.36830  367.14810 -794.79080 1055.23190  # c_1,o_2

# Angle Coeffs

angle_coeff	 1  112.67000   39.51600   -7.44300   -9.55830  # c,c,c
angle_coeff	 2  112.67000   39.51600   -7.44300   -9.55830  # c,c,c1
angle_coeff	 3  108.52950   51.97470   -9.48510  -10.99850  # c,c,c_1
angle_coeff	 4  110.77000   41.45300  -10.60400    5.12900  # c,c,hc
angle_coeff	 5  112.67000   39.51600   -7.44300   -9.55830  # c,c1,c
angle_coeff	 6  108.52950   51.97470   -9.48510  -10.99850  # c,c1,c_1
angle_coeff	 7  110.77000   41.45300  -10.60400    5.12900  # c,c1,hc
angle_coeff	 8  123.14510   55.54310  -17.21230    0.13480  # c,c_1,o_1
angle_coeff	 9  100.31820   38.86310   -3.83230   -7.98020  # c,c_1,o_2
angle_coeff	10  113.28800   61.28680  -28.97860    7.99290  # c,o_2,c_1
angle_coeff	11  110.77000   41.45300  -10.60400    5.12900  # c1,c,hc
angle_coeff	12  123.14510   55.54310  -17.21230    0.13480  # c1,c_1,o_1
angle_coeff	13  100.31820   38.86310   -3.83230   -7.98020  # c1,c_1,o_2
angle_coeff	14  107.73360   40.60990  -28.81210    0.00000  # c_1,c1,hc
angle_coeff	15  107.66000   39.64100  -12.92100   -2.43180  # hc,c,hc
angle_coeff	16  107.68800   65.48010  -10.34980    5.88660  # hc,c,o_2
angle_coeff	17  120.79700   95.34460  -32.28690    6.37780  # o_1,c_1,o_2

# BondBond Coeffs

angle_coeff	 1 bb    0.00000    1.53000    1.53000  # c,c,c
angle_coeff	 2 bb    0.00000    1.53000    1.53000  # c,c,c1
angle_coeff	 3 bb    5.41990    1.53000    1.52020  # c,c,c_1
angle_coeff	 4 bb    3.38720    1.53000    1.10100  # c,c,hc
angle_coeff	 5 bb    0.00000    1.53000    1.53000  # c,c1,c
angle_coeff	 6 bb    5.41990    1.53000    1.52020  # c,c1,c_1
angle_coeff	 7 bb    3.38720    1.53000    1.10100  # c,c1,hc
angle_coeff	 8 bb   46.06850    1.52020    1.20200  # c,c_1,o_1
angle_coeff	 9 bb   19.10690    1.52020    1.36830  # c,c_1,o_2
angle_coeff	10 bb   45.45030    1.43000    1.36830  # c,o_2,c_1
angle_coeff	11 bb    3.38720    1.53000    1.10100  # c1,c,hc
angle_coeff	12 bb   46.06850    1.52020    1.20200  # c1,c_1,o_1
angle_coeff	13 bb   19.10690    1.52020    1.36830  # c1,c_1,o_2
angle_coeff	14 bb    0.71150    1.52020    1.10100  # c_1,c1,hc
angle_coeff	15 bb    5.33160    1.10100    1.10100  # hc,c,hc
angle_coeff	16 bb    5.64540    1.10100    1.43000  # hc,c,o_2
angle_coeff	17 bb  121.48800    1.20200    1.36830  # o_1,c_1,o_2

# BondAngle Coeffs

angle_coeff	 1 ba    8.01600    8.01600    1.53000    1.53000  # c,c,c
angle_coeff	 2 ba    8.01600    8.01600    1.53000    1.53000  # c,c,c1
angle_coeff	 3 ba   18.16780   15.87580    1.53000    1.52020  # c,c,c_1
angle_coeff	 4 ba   20.75400   11.42100    1.53000    1.10100  # c,c,hc
angle_coeff	 5 ba    8.01600    8.01600    1.53000    1.53000  # c,c1,c
angle_coeff	 6 ba   18.16780   15.87580    1.53000    1.52020  # c,c1,c_1
angle_coeff	 7 ba   20.75400   11.42100    1.53000    1.10100  # c,c1,hc
angle_coeff	 8 ba   34.99820   37.12980    1.52020    1.20200  # c,c_1,o_1
angle_coeff	 9 ba    1.34350    4.69780    1.52020    1.36830  # c,c_1,o_2
angle_coeff	10 ba   41.91160   46.46080    1.43000    1.36830  # c,o_2,c_1
angle_coeff	11 ba   20.75400   11.42100    1.53000    1.10100  # c1,c,hc
angle_coeff	12 ba   34.99820   37.12980    1.52020    1.20200  # c1,c_1,o_1
angle_coeff	13 ba    1.34350    4.69780    1.52020    1.36830  # c1,c_1,o_2
angle_coeff	14 ba   12.46320    9.17650    1.52020    1.10100  # c_1,c1,hc
angle_coeff	15 ba   18.10300   18.10300    1.10100    1.10100  # hc,c,hc
angle_coeff	16 ba    8.68640   57.49750    1.10100    1.43000  # hc,c,o_2
angle_coeff	17 ba   76.26140   71.87610    1.20200    1.36830  # o_1,c_1,o_2

# Dihedral Coeffs

dihedral_coeff	 1    0.00000    0.00000    0.05140    0.00000   -0.14300    0.00000  # c,c,c,c
dihedral_coeff	 2    0.00000    0.00000    0.05140    0.00000   -0.14300    0.00000  # c,c,c,c1
dihedral_coeff	 3    0.09720    0.00000    0.07220    0.00000   -0.25810    0.00000  # c,c,c,c_1
dihedral_coeff	 4    0.00000    0.00000    0.03160    0.00000   -0.16810    0.00000  # c,c,c,hc
dihedral_coeff	 5    0.00000    0.00000    0.05140    0.00000   -0.14300    0.00000  # c,c,c1,c
dihedral_coeff	 6    0.09720    0.00000    0.07220    0.00000   -0.25810    0.00000  # c,c,c1,c_1
dihedral_coeff	 7    0.00000    0.00000    0.03160    0.00000   -0.16810    0.00000  # c,c,c1,hc
dihedral_coeff	 8    0.04420    0.00000    0.02920    0.00000    0.05620    0.00000  # c,c,c_1,o_1
dihedral_coeff	 9    1.83410    0.00000    2.06030    0.00000   -0.01950    0.00000  # c,c,c_1,o_2
dihedral_coeff	10    0.00000    0.00000    0.03160    0.00000   -0.16810    0.00000  # c,c1,c,hc
dihedral_coeff	11    0.04420    0.00000    0.02920    0.00000    0.05620    0.00000  # c,c1,c_1,o_1
dihedral_coeff	12    1.83410    0.00000    2.06030    0.00000   -0.01950    0.00000  # c,c1,c_1,o_2
dihedral_coeff	13   -2.55940    0.00000    2.20130    0.00000    0.03250    0.00000  # c,c_1,o_2,c
dihedral_coeff	14   -2.55940    0.00000    2.20130    0.00000    0.03250    0.00000  # c,o_2,c_1,c1
dihedral_coeff	15    0.00000    0.00000    2.20890    0.00000    0.00000    0.00000  # c,o_2,c_1,o_1
dihedral_coeff	16    0.09720    0.00000    0.07220    0.00000   -0.25810    0.00000  # c1,c,c,c_1
dihedral_coeff	17   -0.02280    0.00000    0.02800    0.00000   -0.18630    0.00000  # c_1,c,c,hc
dihedral_coeff	18   -0.02280    0.00000    0.02800    0.00000   -0.18630    0.00000  # c_1,c1,c,hc
dihedral_coeff	19    0.00000    0.00000    0.00000    0.00000   -0.19320    0.00000  # c_1,o_2,c,hc
dihedral_coeff	20   -0.14320    0.00000    0.06170    0.00000   -0.10830    0.00000  # hc,c,c1,hc
dihedral_coeff	21   -0.18040    0.00000    0.00120    0.00000    0.03710    0.00000  # hc,c1,c_1,o_1
dihedral_coeff	22   -0.63590    0.00000    1.48070    0.00000   -0.04380    0.00000  # hc,c1,c_1,o_2

# MiddleBondTorsion Coeffs

dihedral_coeff	 1 mbt  -17.78700   -7.18770    0.00000    1.53000  # c,c,c,c
dihedral_coeff	 2 mbt  -17.78700   -7.18770    0.00000    1.53000  # c,c,c,c1
dihedral_coeff	 3 mbt   -1.59450    0.22670   -0.69110    1.53000  # c,c,c,c_1
dihedral_coeff	 4 mbt  -14.87900   -3.65810   -0.31380    1.53000  # c,c,c,hc
dihedral_coeff	 5 mbt  -17.78700   -7.18770    0.00000    1.53000  # c,c,c1,c
dihedral_coeff	 6 mbt   -1.59450    0.22670   -0.69110    1.53000  # c,c,c1,c_1
dihedral_coeff	 7 mbt  -14.87900   -3.65810   -0.31380    1.53000  # c,c,c1,hc
dihedral_coeff	 8 mbt    0.33880   -0.10960    0.12190    1.52020  # c,c,c_1,o_1
dihedral_coeff	 9 mbt  -17.32800   -5.79000   -3.21140    1.52020  # c,c,c_1,o_2
dihedral_coeff	10 mbt  -14.87900   -3.65810   -0.31380    1.53000  # c,c1,c,hc
dihedral_coeff	11 mbt    0.33880   -0.10960    0.12190    1.52020  # c,c1,c_1,o_1
dihedral_coeff	12 mbt  -17.32800   -5.79000   -3.21140    1.52020  # c,c1,c_1,o_2
dihedral_coeff	13 mbt    1.34450    3.55150   -4.92020    1.36830  # c,c_1,o_2,c
dihedral_coeff	14 mbt    1.34450    3.55150   -4.92020    1.36830  # c,o_2,c_1,c1
dihedral_coeff	15 mbt    4.26000    0.00000    0.00000    1.36830  # c,o_2,c_1,o_1
dihedral_coeff	16 mbt   -1.59450    0.22670   -0.69110    1.53000  # c1,c,c,c_1
dihedral_coeff	17 mbt   -3.50390    1.24580   -0.76100    1.53000  # c_1,c,c,hc
dihedral_coeff	18 mbt   -3.50390    1.24580   -0.76100    1.53000  # c_1,c1,c,hc
dihedral_coeff	19 mbt    0.00000    0.00000    0.00000    1.43000  # c_1,o_2,c,hc
dihedral_coeff	20 mbt  -14.26100   -0.53220   -0.48640    1.53000  # hc,c,c1,hc
dihedral_coeff	21 mbt    0.23590    0.91390    0.95940    1.52020  # hc,c1,c_1,o_1
dihedral_coeff	22 mbt  -13.76860   -2.59590    1.19340    1.52020  # hc,c1,c_1,o_2

# EndBondTorsion Coeffs

dihedral_coeff	 1 ebt   -0.07320    0.00000    0.00000   -0.07320    0.00000    0.00000    1.53000    1.53000  # c,c,c,c
dihedral_coeff	 2 ebt   -0.07320    0.00000    0.00000   -0.07320    0.00000    0.00000    1.53000    1.53000  # c,c,c,c1
dihedral_coeff	 3 ebt    0.00620   -0.00020    0.00360    0.00550    0.00600   -0.00090    1.53000    1.52020  # c,c,c,c_1
dihedral_coeff	 4 ebt    0.24860    0.24220   -0.09250    0.08140    0.05910    0.22190    1.53000    1.10100  # c,c,c,hc
dihedral_coeff	 5 ebt   -0.07320    0.00000    0.00000   -0.07320    0.00000    0.00000    1.53000    1.53000  # c,c,c1,c
dihedral_coeff	 6 ebt    0.00620   -0.00020    0.00360    0.00550    0.00600   -0.00090    1.53000    1.52020  # c,c,c1,c_1
dihedral_coeff	 7 ebt    0.24860    0.24220   -0.09250    0.08140    0.05910    0.22190    1.53000    1.10100  # c,c,c1,hc
dihedral_coeff	 8 ebt    0.26540    0.05030    0.10460   -0.28100    0.08160   -0.15220    1.53000    1.20200  # c,c,c_1,o_1
dihedral_coeff	 9 ebt    0.00000    0.00000    0.00000    0.00000    0.00000    0.00000    1.53000    1.36830  # c,c,c_1,o_2
dihedral_coeff	10 ebt    0.24860    0.24220   -0.09250    0.08140    0.05910    0.22190    1.53000    1.10100  # c,c1,c,hc
dihedral_coeff	11 ebt    0.26540    0.05030    0.10460   -0.28100    0.08160   -0.15220    1.53000    1.20200  # c,c1,c_1,o_1
dihedral_coeff	12 ebt    0.00000    0.00000    0.00000    0.00000    0.00000    0.00000    1.53000    1.36830  # c,c1,c_1,o_2
dihedral_coeff	13 ebt    0.00000    0.00000    0.00000    0.00000    0.00000    0.00000    1.52020    1.43000  # c,c_1,o_2,c
dihedral_coeff	14 ebt    0.00000    0.00000    0.00000    0.00000    0.00000    0.00000    1.43000    1.52020  # c,o_2,c_1,c1
dihedral_coeff	15 ebt    0.00000    0.00000    0.00000    0.00000    0.00000    0.00000    1.43000    1.20200  # c,o_2,c_1,o_1
dihedral_coeff	16 ebt    0.00620   -0.00020    0.00360    0.00550    0.00600   -0.00090    1.53000    1.52020  # c1,c,c,c_1
dihedral_coeff	17 ebt   -0.02040    0.36280   -0.44260   -0.00970   -0.03150   -0.07550    1.52020    1.10100  # c_1,c,c,hc
dihedral_coeff	18 ebt   -0.02040    0.36280   -0.44260   -0.00970   -0.03150   -0.07550    1.52020    1.10100  # c_1,c1,c,hc
dihedral_coeff	19 ebt    0.00000    0.00000    0.00000    0.00000    0.00000    0.00000    1.36830    1.10100  # c_1,o_2,c,hc
dihedral_coeff	20 ebt    0.21300    0.31200    0.07770    0.21300    0.31200    0.07770    1.10100    1.10100  # hc,c,c1,hc
dihedral_coeff	21 ebt    1.21430    0.28310    0.39160   -0.22980    0.03540    0.38530    1.10100    1.20200  # hc,c1,c_1,o_1
dihedral_coeff	22 ebt    0.00000    0.00000    0.00000    0.00000    0.00000    0.00000    1.10100    1.36830  # hc,c1,c_1,o_2

# AngleTorsion Coeffs

dihedral_coeff	 1 at    0.38860   -0.31390    0.13890    0.38860   -0.31390    0.13890  112.67000  112.67000  # c,c,c,c
dihedral_coeff	 2 at    0.38860   -0.31390    0.13890    0.38860   -0.31390    0.13890  112.67000  112.67000  # c,c,c,c1
dihedral_coeff	 3 at   -0.26070    0.32030   -0.22830    0.05150   -0.06740   -0.04740  112.67000  108.52950  # c,c,c,c_1
dihedral_coeff	 4 at   -0.24540    0.00000   -0.11360    0.31130    0.45160   -0.19880  112.67000  110.77000  # c,c,c,hc
dihedral_coeff	 5 at    0.38860   -0.31390    0.13890    0.38860   -0.31390    0.13890  112.67000  112.67000  # c,c,c1,c
dihedral_coeff	 6 at   -0.26070    0.32030   -0.22830    0.05150   -0.06740   -0.04740  112.67000  108.52950  # c,c,c1,c_1
dihedral_coeff	 7 at   -0.24540    0.00000   -0.11360    0.31130    0.45160   -0.19880  112.67000  110.77000  # c,c,c1,hc
dihedral_coeff	 8 at    0.08850   -1.37030   -0.54520    0.67500    0.59650    0.67250  108.52950  123.14510  # c,c,c_1,o_1
dihedral_coeff	 9 at    0.00000    0.00000    0.00000    0.00000    0.00000    0.00000  108.52950  100.31820  # c,c,c_1,o_2
dihedral_coeff	10 at   -0.24540    0.00000   -0.11360    0.31130    0.45160   -0.19880  112.67000  110.77000  # c,c1,c,hc
dihedral_coeff	11 at    0.08850   -1.37030   -0.54520    0.67500    0.59650    0.67250  108.52950  123.14510  # c,c1,c_1,o_1
dihedral_coeff	12 at    0.00000    0.00000    0.00000    0.00000    0.00000    0.00000  108.52950  100.31820  # c,c1,c_1,o_2
dihedral_coeff	13 at    0.00000    0.00000    0.00000    0.00000    0.00000    0.00000  100.31820  113.28800  # c,c_1,o_2,c
dihedral_coeff	14 at    0.00000    0.00000    0.00000    0.00000    0.00000    0.00000  113.28800  100.31820  # c,o_2,c_1,c1
dihedral_coeff	15 at    0.00000    0.00000    0.00000    0.00000    0.00000    0.00000  113.28800  120.79700  # c,o_2,c_1,o_1
dihedral_coeff	16 at   -0.26070    0.32030   -0.22830    0.05150   -0.06740   -0.04740  112.67000  108.52950  # c1,c,c,c_1
dihedral_coeff	17 at   -0.74660   -0.94480   -0.63210    0.01620    1.42110   -1.40920  108.52950  110.77000  # c_1,c,c,hc
dihedral_coeff	18 at   -0.74660   -0.94480   -0.63210    0.01620    1.42110   -1.40920  108.52950  110.77000  # c_1,c1,c,hc
dihedral_coeff	19 at    0.00000    0.00000    0.00000    0.00000    0.00000    0.00000  113.28800  107.68800  # c_1,o_2,c,hc
dihedral_coeff	20 at   -0.80850    0.55690   -0.24660   -0.80850    0.55690   -0.24660  110.77000  110.77000  # hc,c,c1,hc
dihedral_coeff	21 at    9.12990   -0.48470    0.35820   -1.49460    0.73080   -0.20830  107.73360  123.14510  # hc,c1,c_1,o_1
dihedral_coeff	22 at    0.00000    0.00000    0.00000    0.00000    0.00000    0.00000  107.73360  100.31820  # hc,c1,c_1,o_2

# AngleAngleTorsion Coeffs

dihedral_coeff	 1 aat  -22.04500  112.67000  112.67000  # c,c,c,c
dihedral_coeff	 2 aat  -22.04500  112.67000  112.67000  # c,c,c,c1
dihedral_coeff	 3 aat   -0.38010  112.67000  108.52950  # c,c,c,c_1
dihedral_coeff	 4 aat  -16.16400  112.67000  110.77000  # c,c,c,hc
dihedral_coeff	 5 aat  -22.04500  112.67000  112.67000  # c,c,c1,c
dihedral_coeff	 6 aat   -0.38010  112.67000  108.52950  # c,c,c1,c_1
dihedral_coeff	 7 aat  -16.16400  112.67000  110.77000  # c,c,c1,hc
dihedral_coeff	 8 aat   -8.01900  108.52950  123.14510  # c,c,c_1,o_1
dihedral_coeff	 9 aat    0.00000  108.52950  100.31820  # c,c,c_1,o_2
dihedral_coeff	10 aat  -16.16400  112.67000  110.77000  # c,c1,c,hc
dihedral_coeff	11 aat   -8.01900  108.52950  123.14510  # c,c1,c_1,o_1
dihedral_coeff	12 aat    0.00000  108.52950  100.31820  # c,c1,c_1,o_2
dihedral_coeff	13 aat    0.00000  100.31820  113.28800  # c,c_1,o_2,c
dihedral_coeff	14 aat    0.00000  113.28800  100.31820  # c,o_2,c_1,c1
dihedral_coeff	15 aat    0.00000  113.28800  120.79700  # c,o_2,c_1,o_1
dihedral_coeff	16 aat   -0.38010  112.67000  108.52950  # c1,c,c,c_1
dihedral_coeff	17 aat   -5.36240  108.52950  110.77000  # c_1,c,c,hc
dihedral_coeff	18 aat   -5.36240  108.52950  110.77000  # c_1,c1,c,hc
dihedral_coeff	19 aat    0.00000  113.28800  107.68800  # c_1,o_2,c,hc
dihedral_coeff	20 aat  -12.56400  110.77000  110.77000  # hc,c,c1,hc
dihedral_coeff	21 aat  -15.34960  107.73360  123.14510  # hc,c1,c_1,o_1
dihedral_coeff	22 aat    0.00000  107.73360  100.31820  # hc,c1,c_1,o_2

# BondBond13 Coeffs

dihedral_coeff	 1 bb13    0.00000    1.53000    1.53000  # c,c,c,c
dihedral_coeff	 2 bb13    0.00000    1.53000    1.53000  # c,c,c,c1
dihedral_coeff	 3 bb13    0.00000    1.53000    1.52020  # c,c,c,c_1
dihedral_coeff	 4 bb13    0.00000    1.53000    1.10100  # c,c,c,hc
dihedral_coeff	 5 bb13    0.00000    1.53000    1.53000  # c,c,c1,c
dihedral_coeff	 6 bb13    0.00000    1.53000    1.52020  # c,c,c1,c_1
dihedral_coeff	 7 bb13    0.00000    1.53000    1.10100  # c,c,c1,hc
dihedral_coeff	 8 bb13    0.00000    1.53000    1.20200  # c,c,c_1,o_1
dihedral_coeff	 9 bb13    0.00000    1.53000    1.36830  # c,c,c_1,o_2
dihedral_coeff	10 bb13    0.00000    1.53000    1.10100  # c,c1,c,hc
dihedral_coeff	11 bb13    0.00000    1.53000    1.20200  # c,c1,c_1,o_1
dihedral_coeff	12 bb13    0.00000    1.53000    1.36830  # c,c1,c_1,o_2
dihedral_coeff	13 bb13    0.00000    1.52020    1.43000  # c,c_1,o_2,c
dihedral_coeff	14 bb13    0.00000    1.43000    1.52020  # c,o_2,c_1,c1
dihedral_coeff	15 bb13    0.00000    1.43000    1.20200  # c,o_2,c_1,o_1
dihedral_coeff	16 bb13    0.00000    1.53000    1.52020  # c1,c,c,c_1
dihedral_coeff	17 bb13    0.00000    1.52020    1.10100  # c_1,c,c,hc
dihedral_coeff	18 bb13    0.00000    1.52020    1.10100  # c_1,c1,c,hc
dihedral_coeff	19 bb13    0.00000    1.36830    1.10100  # c_1,o_2,c,hc
dihedral_coeff	20 bb13    0.00000    1.10100    1.10100  # hc,c,c1,hc
dihedral_coeff	21 bb13    0.00000    1.10100    1.20200  # hc,c1,c_1,o_1
dihedral_coeff	22 bb13    0.00000    1.10100    1.36830  # hc,c1,c_1,o_2

# Improper Coeffs

improper_coeff	 1    0.00000    0.00000  # c,c,c,c
improper_coeff	 2    0.00000    0.00000  # c,c,c,c_1
improper_coeff	 3    0.00000    0.00000  # c,c,c,hc
improper_coeff	 4    0.00000    0.00000  # c,c,c1,hc
improper_coeff	 5    0.00000    0.00000  # c,c,hc,hc
improper_coeff	 6    0.00000    0.00000  # c,c1,hc,hc
improper_coeff	 7    0.00000    0.00000  # c,hc,hc,hc
improper_coeff	 8    0.00000    0.00000  # c,hc,hc,o_2
improper_coeff	 9    0.00000    0.00000  # c1,c,c,c_1
improper_coeff	10    0.00000    0.00000  # c1,c,c,hc
improper_coeff	11    0.00000    0.00000  # c1,c,c_1,hc
improper_coeff	12    0.00000    0.00000  # c1,c,hc,c_1
improper_coeff	13   46.92640    0.00000  # c_1,c,o_2,o_1
improper_coeff	14   46.92640    0.00000  # c_1,c1,o_2,o_1

# AngleAngle Coeffs

improper_coeff	 1 aa   -0.17290   -0.17290   -0.17290  112.67000  112.67000  112.67000  # c,c,c,c
improper_coeff	 2 aa    0.00000    0.00000    0.00000  112.67000  108.52950  108.52950  # c,c,c,c_1
improper_coeff	 3 aa   -1.31990   -1.31990    0.11840  112.67000  110.77000  110.77000  # c,c,c,hc
improper_coeff	 4 aa   -1.31990   -1.31990    0.11840  112.67000  110.77000  110.77000  # c,c,c1,hc
improper_coeff	 5 aa    0.27380   -0.48250    0.27380  110.77000  110.77000  107.66000  # c,c,hc,hc
improper_coeff	 6 aa    0.27380   -0.48250    0.27380  110.77000  110.77000  107.66000  # c,c1,hc,hc
improper_coeff	 7 aa   -0.31570   -0.31570   -0.31570  107.66000  107.66000  107.66000  # c,hc,hc,hc
improper_coeff	 8 aa    0.00000    0.00000    0.00000  107.66000  107.68800  107.68800  # c,hc,hc,o_2
improper_coeff	 9 aa    0.00000    0.00000    0.00000  112.67000  108.52950  108.52950  # c1,c,c,c_1
improper_coeff	10 aa   -1.31990   -1.31990    0.11840  112.67000  110.77000  110.77000  # c1,c,c,hc
improper_coeff	11 aa    2.04030   -1.82020    1.08270  108.52950  110.77000  107.73360  # c1,c,c_1,hc
improper_coeff	12 aa    1.08270   -1.82020    2.04030  110.77000  108.52950  107.73360  # c1,c,hc,c_1
improper_coeff	13 aa    0.00000    0.00000    0.00000  100.31820  123.14510  120.79700  # c_1,c,o_2,o_1
improper_coeff	14 aa    0.00000    0.00000    0.00000  100.31820  123.14510  120.79700  # c_1,c1,o_2,o_1


# --- Thermo Output ---
thermo_style custom step time temp press enthalpy etotal ke pe ebond eangle edihed eimp evdwl ecoul elong etail vol lx ly lz density pxx pyy pzz
thermo_modify flush yes
thermo 1000

# --- Trajectory ---
dump dump_npt all custom 1000 npt_cool.dump id type mol x y z ix iy iz vx vy vz

# --- Restart Checkpointing ---
restart 10000 npt_1.rst npt_2.rst

# --- Initial Velocities (optional) ---
# Velocities read from data file

# --- SHAKE Constraints ---
# SHAKE disabled

# --- NPT Thermostat + Barostat (Nose-Hoover) ---
# T_damp = 100.0 fs  (heat bath coupling)
# P_damp = 1000.0 fs  (pressure bath coupling, ~10x T_damp typical)
# Ramp: T=630.0->550.0K  P=1.0->1.0atm
timestep 1.0
fix npt_fix all npt temp 630.0 550.0 100.0 iso 1.0 1.0 1000.0

run 2000000
PPPM Kokkos initialization ...
  using 12-bit tables for long-range coulomb
  G vector (1/distance) = 0.33069724
  grid = 45 45 45
  stencil order = 5
  estimated absolute RMS force accuracy = 0.00031706128
  estimated relative force accuracy = 9.5482061e-07
  using double precision cuFFT
  3d grid and FFT values/proc = 140608 91125
Generated 15 of 15 mixed pair_coeff terms from sixthpower/sixthpower mixing rule
Neighbor list info ...
  update: every = 1 steps, delay = 0 steps, check = yes
  max neighbors/atom: 4000, page size: 100000
  master list distance cutoff = 11.5
  ghost atom cutoff = 11.5
  binsize = 11.5, bins = 4 4 4
  1 neighbor lists, perpetual/occasional/extra = 1 0 0
  (1) pair lj/class2/coul/long/kk, perpetual
      attributes: full, newton off, kokkos_device
      pair build: full/bin/kk/device
      stencil: full/bin/3d
      bin: kk/device
Per MPI rank memory allocation (min/avg/max) = 61.55 | 61.55 | 61.55 Mbytes
   Step          Time           Temp          Press         Enthalpy        TotEng         KinEng         PotEng         E_bond        E_angle        E_dihed        E_impro         E_vdwl         E_coul         E_long         E_tail         Volume           Lx             Ly             Lz          Density          Pxx            Pyy            Pzz      
         0   0              631.72154      456.28636      43663.086      43122.181      14158.592      28963.588      6792.336       9882.4531     -1324.9093      392.9266       891.36283      42867.515     -30538.096     -482.86242      81284.498      43.318084      43.318084      43.318084      1.0230567      1831.7289     -1386.2213      923.35142    
      1000   1000           644.03333     -1081.8157      42292.254      43582.529      14434.533      29147.996      6932.0517      9761.8848     -1195.4141      409.28153      912.0251       42859.979     -30531.812     -479.93014      81781.129      43.406127      43.406127      43.406127      1.016844      -1536.9941     -2294.1362      585.68332    
      2000   2000           627.50052     -667.63021      42256.243      43055.335      14063.988      28991.347      6946.4212      9705.9886     -1290.6721      384.82853      884.0961       42876.279     -30515.594     -478.24069      82070.033      43.45718       43.45718       43.45718       1.0132645      696.76909     -1295.6079     -1404.0519    
      3000   3000           628.1649      -666.75597      42596.751      43401.912      14078.878      29323.034      6979.6253      9880.9373     -1201.871       393.67775      902.71002      42886.603     -30518.648     -474.01372      82801.884      43.585972      43.585972      43.585972      1.0043087      179.06763     -2881.8744      702.53886    
      4000   4000           631.83026      142.80242      43291.522      43120.469      14161.029      28959.44       6764.2142      9807.7396     -1243.5216      346.45322      929.17969      42866.742     -30511.367     -477.87381      82133.042      43.468298      43.468298      43.468298      1.0124872      645.4968      -596.27291      379.18336    
      5000   5000           630.00407      306.32651      43844.378      43473.024      14120.099      29352.925      6872.8858      9926.2437     -1210.1822      378.75673      1012.6347      42893.358     -30520.772     -472.17476      83124.37       43.642483      43.642483      43.642483      1.0004124      674.2936      -1576.0652      1820.7512    
      6000   6000           628.65761      1314.7983      44656.478      43074.532      14089.921      28984.611      6862.5616      9814.6755     -1232.5476      333.83704      865.0992       42866.932     -30525.947     -475.74551      82500.473      43.533022      43.533022      43.533022      1.0079779      2923.6512      724.34034      296.40345    
      7000   7000           636.90386     -35.643289      43344.221      43387.539      14274.742      29112.797      6933.9818      9722.7856     -1274.6989      381.71816      967.7913       42900.737     -30519.518     -470.99074      83333.336      43.679024      43.679024      43.679024      0.99790378    -984.4222       507.74464      369.74769    
      8000   8000           634.68036     -247.13475      43142.105      43442.441      14224.907      29217.533      7060.5624      9782.3598     -1298.6838      374.37744      947.00581      42882.662     -30530.751     -471.01383      83329.25       43.67831       43.67831       43.67831       0.9979527      896.63723     -1437.9435     -200.09798    
      9000   9000           626.74286     -761.67897      42272.064      43181.186      14047.007      29134.18       7011.9167      9796.6506     -1293.2816      373.67756      906.70615      42863.906     -30525.395     -479.57527      81841.646      43.416831      43.416831      43.416831      1.0160921      330.05509     -1556.9167     -1058.1753    
     10000   10000          628.73753      1733.7883      45341.895      43264.031      14091.713      29172.319      6995.175       9865.0952     -1315.9276      400.50089      872.37722      42890.762     -30535.664     -477.6238       82176.033      43.475881      43.475881      43.475881      1.0119575      3181.7533     -654.61392      2674.2254    
     11000   11000          622.76601     -1361.5455      41240.555      42873.76       13957.875      28915.885      6818.2277      9960.6307     -1335.0903      368.08984      772.04275      42855.536     -30523.551     -477.19794      82249.369      43.48881       43.48881       43.48881       1.0110552     -1260.372      -1714.9947     -1109.2698    
     12000   12000          627.1621      -551.74062      42441.703      43098.608      14056.403      29042.205      7007.8741      9641.0304     -1231.8728      381.00032      904.78566      42872.239     -30532.852     -480.77218      81637.897      43.380771      43.380771      43.380771      1.018628      -540.80355     -556.31251     -558.10581    
     13000   13000          622.07278     -174.81571      42829.626      43038.557      13942.337      29096.22       6941.6763      9965.7294     -1389.4346      351.88206      832.42714      42901.988     -30508.048     -478.94236      81949.798      43.435947      43.435947      43.435947      1.0147511      379.77898     -866.85806     -37.368055    
     14000   14000          623.22596     -187.11151      42725.375      42953.89       13968.183      28985.706      6901.9843      9778.494      -1339.828       393.96558      882.75965      42890.442     -30522.111     -468.69787      83741.002      43.750134      43.750134      43.750134      0.99304581    -121.14095      1029.9106     -1470.1042    
     15000   15000          633.63381      1032.7477      44683.831      43444.027      14201.451      29242.576      6967.8789      9878.414      -1297.4843      367.16701      960.82987      42885.602     -30519.831     -476.81338      82315.705      43.500499      43.500499      43.500499      1.0102404      2044.3402      139.88071      914.02228    
     16000   16000          631.21654      991.79972      44212.739      43020.527      14147.274      28873.253      6907.4636      9755.3469     -1293.8675      355.64357      806.98864      42871.971     -30530.294     -476.18699      82423.985      43.519564      43.519564      43.519564      1.0089133      1845.4056      634.55179      495.44177    
     17000   17000          615.71833     -25.316593      42782.659      42813.039      13799.917      29013.122      6906.6102      9773.7127     -1359.9151      348.7511       992.8036       42878.194     -30527.035     -477.01767      82280.451      43.494288      43.494288      43.494288      1.0106732     -610.60813      744.96611     -210.30776    
     18000   18000          632.26671      199.70423      43388.54       43151.393      14170.811      28980.582      7059.1894      9743.6355     -1258.4609      371.1253       730.30068      42859.47      -30524.678     -482.03173      81424.575      43.342953      43.342953      43.342953      1.0212967      660.2626      -514.6409       453.49098    
     19000   19000          622.69893     -149.69978      42685.139      42865.802      13956.371      28909.431      6921.6351      9771.9578     -1357.2806      357.6239       867.55005      42880.178     -30532.233     -474.30703      82750.679      43.576986      43.576986      43.576986      1.0049301      643.3237      -425.14444     -667.27861    
     20000   20000          629.23063      1481.5253      44946.493      43197.952      14102.764      29095.188      6929.9576      9915.4861     -1330.7417      371.73346      840.18741      42885.931     -30517.366     -484.99853      80926.491      43.254394      43.254394      43.254394      1.0275826      77.43453       1819.9432      2547.1983    
     21000   21000          621.41778     -961.88854      41810.51       42967.737      13927.657      29040.08       7176.3417      9712.908      -1275.0456      381.25278      716.20624      42851.939     -30523.522     -475.7876       82493.175      43.531738      43.531738      43.531738      1.008067       84.871343     -1457.3659     -1513.171     
     22000   22000          626.4073      -350.47352      42579.828      42998.64       14039.486      28959.154      6950.2031      9779.399      -1294.7951      385.07616      812.97999      42856.874     -30530.583     -479.00877      81938.435      43.433939      43.433939      43.433939      1.0148919     -1323.333      -2270.0445      2541.9569    
     23000   23000          639.34594     -165.6542       42904.168      43101.196      14329.476      28771.721      6870.4616      9744.8141     -1310.0263      386.80215      766.60955      42832.949     -30519.889     -481.26197      81554.811      43.36605       43.36605       43.36605       1.0196658     -618.00659      660.103       -539.05902    
     24000   24000          637.56042      56.873916      43188.19       43120.106      14289.457      28830.648      6795.8498      9708.4429     -1300.9308      376.77063      906.12091      42864.522     -30520.128     -478.15766      82084.283      43.459695      43.459695      43.459695      1.0130886      1528.8506     -1048.6406     -309.58824    
     25000   25000          630.1116      -1532.5898      40978.592      42816.617      14122.509      28694.108      6961.1374      9603.0248     -1342.1618      364.94828      787.33038      42846.542     -30526.713     -477.28904      82233.669      43.486043      43.486043      43.486043      1.0112482     -1030.8913     -1052.2222     -2514.6561    
     26000   26000          620.31399     -983.54365      41864.439      43046.221      13902.918      29143.303      7033.3054      9878.8796     -1246.0995      328.99644      823.92552      42857.9       -30533.604     -476.39067      82388.745      43.513361      43.513361      43.513361      1.0093448     -1501.0796     -326.81858     -1122.7328    
     27000   27000          628.19617     -1180.4035      41658.395      43065.647      14079.579      28986.068      6840.5333      9917.2939     -1234.9851      380.02714      759.14236      42860.505     -30536.449     -480.1375       81745.811      43.399877      43.399877      43.399877      1.0172833      736.9412      -1496.6469     -2781.5049    
     28000   28000          625.3736       1285.5336      44390.089      42846.887      14016.318      28830.569      6722.0558      9850.2235     -1325.8914      353.56475      894.3952       42876.386     -30540.165     -476.83455      82312.051      43.499855      43.499855      43.499855      1.0102853      2788.5914     -858.38498      1926.3945    
     29000   29000          633.08082     -1008.2083      42104.901      43307.632      14189.057      29118.574      6999.5422      9890.9872     -1283.8569      399.45885      826.90701      42832.35      -30546.814     -479.83169      81797.91       43.409095      43.409095      43.409095      1.0166354     -1381.4944     -1363.3108     -279.81965    
     30000   30000          624.15986      592.43239      43591.726      42881.639      13989.114      28892.524      6876.1676      9793.3976     -1255.721       350.74994      805.05756      42858.189     -30535.316     -477.56654      82185.887      43.477619      43.477619      43.477619      1.0118361     -846.33722     -373.08033      2996.7147    
     31000   31000          638.77106      1194.0186      44762.947      43335.555      14316.591      29018.964      6839.4083      9841.0187     -1257.3587      396.35685      878.07379      42865.707     -30544.242     -478.82289      81970.244      43.439559      43.439559      43.439559      1.014498       645.51612      960.97824      1975.5614    
     32000   32000          626.62963     -1858.8604      40848.211      43060.21       14044.469      29015.741      7045.6487      9723.0428     -1225.7106      367.99432      773.19952      42864.354     -30532.787     -481.02632      81594.765      43.37313       43.37313       43.37313       1.0191665     -2358.6142     -1113.4646     -2104.5023    
     33000   33000          620.26049      191.35929      43033.891      42804.732      13901.719      28903.013      6976.383       9762.633      -1291.9621      335.99072      792.06935      42868.368     -30540.469     -477.99097      82112.91       43.464746      43.464746      43.464746      1.0127354     -281.38327     -1259.3668      2114.828     
     34000   34000          630.39752      543.816        43879.044      43233.79       14128.917      29104.873      7023.223       9842.0593     -1311.7533      359.94645      896.60123      42840.487     -30545.69      -482.42329      81358.487      43.331224      43.331224      43.331224      1.0221263      1.3420728      492.04989      1138.056     
     35000   35000          636.09533     -1093.9108      41956.774      43259.893      14256.621      29003.272      7132.6662      9832.453      -1282.8813      377.77232      655.93257      42829.052     -30541.722     -480.51262      81681.994      43.388581      43.388581      43.388581      1.0180781     -3519.981       632.23409     -393.98545    
     36000   36000          626.98513      22.966745      42673.967      42646.754      14052.436      28594.318      6898.1755      9593.4087     -1293.6691      332.20357      754.11141      42849.901     -30539.813     -483.09638      81245.132      43.31109       43.31109       43.31109       1.0235524      668.78772      536.41431     -1136.3018    
     37000   37000          625.3575      -526.89579      42472.315      43094.211      14015.957      29078.254      6969.2143      9925.2234     -1364.1116      404.66006      833.53859      42841.468     -30531.739     -484.96894      80931.429      43.255274      43.255274      43.255274      1.0275199      434.46254      224.73803     -2239.8879    
     38000   38000          627.53782     -73.411209      43028.828      43117.471      14064.824      29052.647      7066.8342      9639.9579     -1357.402       347.13505      1034.1977      42854.112     -30532.188     -474.05431      82794.794      43.584728      43.584728      43.584728      1.0043947      947.24909     -1465.4164      297.9337     
     39000   39000          637.92253     -861.52951      42344.27       43374.764      14297.573      29077.191      6900.436       9858.271      -1277.0064      339.08503      917.54067      42869.974     -30531.11      -478.55511      82016.112      43.44766       43.44766       43.44766       1.0139307      430.47208     -1058.7893     -1956.2713    
     40000   40000          623.09828      635.52589      43634.285      42878.957      13965.322      28913.635      6848.9854      9752.9016     -1255.7519      381.39786      865.92891      42847.698     -30527.525     -481.62015      81494.159      43.355297      43.355297      43.355297      1.0204247      2853.7813     -470.63844     -476.56518    
     41000   41000          626.83391     -2198.981       40608.96       43253.558      14049.047      29204.511      7258.0585      9866.9705     -1307.4198      366.16862      733.40368      42819.022     -30531.692     -475.95811      82463.621      43.526539      43.526539      43.526539      1.0084283     -1494.4576     -1991.0143     -3111.4711    
     42000   42000          622.61597      244.96767      43346.539      43055.242      13954.512      29100.73       6899.083       9926.4851     -1249.3554      349.13978      864.8513       42849.735     -30539.208     -481.37146      81536.261      43.362761      43.362761      43.362761      1.0198978      424.99319      292.27871      17.631116    
     43000   43000          626.74846      665.50281      43894.833      43094.744      14047.132      29047.612      6958.861       9846.9322     -1358.9722      379.58138      873.07664      42876.435     -30528.302     -476.1225       82435.149      43.521529      43.521529      43.521529      1.0087766      1627.3171      160.05319      209.13814    
     44000   44000          626.11193      1612.9449      44873.445      42943.368      14032.866      28910.503      7012.876       9822.2655     -1411.5371      350.01032      855.59676      42828.027     -30546.736     -478.3569       82050.094      43.45366       43.45366       43.45366       1.0135107      1392.4903      1975.802       1470.5422    
     45000   45000          628.30845     -2099.2862      40733.03       43278.167      14082.096      29196.071      7173.4051      9902.8035     -1337.6534      389.61823      763.28963      42834.835     -30530.227     -472.13643      83131.118      43.643664      43.643664      43.643664      1.0003312     -905.54104     -1612.3281     -3779.9896    
     46000   46000          622.33602     -723.77801      41962.905      42827.99       13948.237      28879.753      6920.7491      9690.8558     -1275.1213      382.83264      831.68499      42858.165     -30529.414     -478.90975      81955.377      43.436933      43.436933      43.436933      1.0146821      1857.1854     -1313.4386     -2715.0807    
     47000   47000          633.71047      240.39054      43444.107      43155.607      14203.17       28952.437      6971.2429      9857.7847     -1362.5394      363.1744       812.43551      42848.845     -30538.506     -476.95668      82290.973      43.496142      43.496142      43.496142      1.010544       68.798755     -767.68688      1420.0597    
     48000   48000          619.13746     -401.95953      42289.151      42769.884      13876.549      28893.336      7019.5048      9761.0934     -1268.1221      358.2958       681.33144      42876.064     -30534.832     -478.61406      82006.01       43.445876      43.445876      43.445876      1.0140556      990.14877     -1448.45       -747.5774     
     49000   49000          623.77552     -492.02535      42446.009      43033.397      13980.5        29052.897      7083.2121      9818.3109     -1334.7712      334.45053      767.46995      42901.19      -30516.965     -479.47886      81858.102      43.41974       43.41974       43.41974       1.0158878      745.3922      -663.82429     -1557.644     
     50000   50000          632.21694     -1111.9642      41918.89       43265.568      14169.695      29095.873      7060.8415      9691.8623     -1225.9741      372.59477      868.08188      42870.284     -30541.817     -472.64387      83041.867      43.62804       43.62804       43.62804       1.0014063     -3342.3237     -818.63869      825.06993    
     51000   51000          636.36798     -346.53875      42620.504      43036.64       14262.731      28773.909      6815.852       9792.7916     -1332.5672      384.01317      751.88269      42876.081     -30514.144     -476.67575      82339.471      43.504685      43.504685      43.504685      1.0099488      601.90914     -971.66216     -669.86323    
     52000   52000          614.29272     -245.89181      42441.841      42737.714      13767.965      28969.749      6913.3911      9895.8294     -1385.2407      375.89638      852.00958      42843.448     -30525.584     -475.71376      82505.979      43.53399       43.53399       43.53399       1.0079106      1051.3809     -1840.5094      51.453075    
     53000   53000          622.71233      330.42301      43423.34       43021.289      13956.671      29064.617      7014.3345      9789.7096     -1322.1412      349.76207      907.07292      42847.439     -30521.559     -470.43094      83432.5        43.696342      43.696342      43.696342      0.99671771     998.83921      1328.6798     -1336.25      
     54000   54000          636.1671       709.64811      43982.235      43132.314      14258.229      28874.085      6840.7899      9797.2942     -1335.1079      355.90987      875.64708      42873.729     -30534.178     -477.93778      82122.048      43.466358      43.466358      43.466358      1.0126227      645.20726     -669.307        2153.0441    
     55000   55000          621.62184      1274.6806      44352.09       42808.982      13932.231      28876.751      7005.8769      9557.3835     -1360.36        361.69401      939.65502      42897.028     -30524.527     -472.83745      83007.87       43.622085      43.622085      43.622085      1.0018165      1739.0588      828.05067      1256.9323    
     56000   56000          636.76664      134.5565       43602.357      43440.807      14271.667      29169.141      6926.0402      9951.4243     -1341.9295      354.54727      954.24656      42862.015     -30537.203     -476.76699      82323.714      43.501909      43.501909      43.501909      1.0101421     -41.108266      899.91354     -455.13575    
     57000   57000          619.42508     -1246.4749      41387.83       42884.511      13882.995      29001.516      6858.7475      9783.4613     -1206.5542      381.24668      861.09021      42851.437     -30527.913     -476.71801      82332.172      43.503399      43.503399      43.503399      1.0100383     -1774.3538     -1779.391      -185.67988    
     58000   58000          628.89474      618.16976      43731.681      42987.781      14095.236      28892.546      6895.6568      9724.075      -1298.9499      352.18317      850.4773       42895.379     -30526.276     -475.66407      82514.597      43.535506      43.535506      43.535506      1.0078053      422.26923      1169.0036      263.23645    
     59000   59000          637.60494      648.94964      44158.266      43375.876      14290.455      29085.42       6880.2958      9975.5489     -1295.8927      332.49251      833.76637      42888.566     -30529.357     -474.78215      82667.87       43.562445      43.562445      43.562445      1.0059368      1180.3458     -324.20865      1090.7117    
     60000   60000          636.09781     -649.24932      42261.659      43040.352      14256.676      28783.676      6939.6302      9735.1672     -1352.791       386.21079      730.04957      42878.823     -30533.414     -477.25684      82239.218      43.487021      43.487021      43.487021      1.01118       -207.88512     -37.991156     -1701.8717    
     61000   61000          612.63394      1028.0424      43940.646      42695.926      13730.787      28965.138      6890.3172      9792.2377     -1417.7151      386.32046      968.4521       42878.344     -30532.818     -472.76611      83020.394      43.624279      43.624279      43.624279      1.0016653      2211.3692      1154.7688     -282.01074    
     62000   62000          623.70808      938.79595      44232.18       43099.435      13978.989      29120.446      6921.6013      9927.4363     -1462.8358      380.76836      991.79731      42888.969     -30527.291     -474.40169      82734.168      43.574088      43.574088      43.574088      1.0051307      819.75985      339.00114      1657.6269    
     63000   63000          627.352       -1098.0685      41718.049      43032.011      14060.659      28971.352      7028.8405      9785.8479     -1295.329       392.60435      715.28031      42871.29      -30527.182     -478.35842      82049.834      43.453614      43.453614      43.453614      1.0135139     -2104.8087     -1712.8572      523.46049    
     64000   64000          635.37298     -430.00711      42751.969      43271.475      14240.431      29031.045      7026.8307      9676.3372     -1268.9923      344.66831      946.28479      42848.369     -30542.453     -473.79633      82839.876      43.592638      43.592638      43.592638      1.0038481     -336.87678      551.60769     -1504.7522    
     65000   65000          629.5709       501.15523      43870.004      43267.914      14110.391      29157.523      6894.5051      9879.7955     -1230.4628      364.09791      921.84218      42859.255     -30531.509     -476.45061      82378.379      43.511536      43.511536      43.511536      1.0094718      1870.6142     -933.27116      566.12266    
     66000   66000          637.00342      486.25586      43792.846      43209.163      14276.973      28932.189      6921.9214      9671.7287     -1282.7901      392.0426       864.69319      42889.17      -30524.577     -476.86426      82306.922      43.498951      43.498951      43.498951      1.0103482      364.08723      1644.6764     -549.996      
     67000   67000          632.92481     -158.95395      42843.093      43035.017      14185.561      28849.457      6945.1663      9741.7602     -1285.3177      368.15713      715.55807      42887.433     -30523.3       -474.07584      82791.034      43.584069      43.584069      43.584069      1.0044403     -246.6112       392.24944     -622.5001     
     68000   68000          630.48691      889.70795      44069.278      42990.885      14130.921      28859.964      6762.3689      9850.1063     -1272.9436      367.24997      813.10453      42871.753     -30531.674     -472.2559       83110.088      43.639984      43.639984      43.639984      1.0005843      438.56651     -704.06292      2934.6202    
     69000   69000          634.11247     -401.10304      42560.202      43039.757      14212.179      28827.578      6853.9537      9710.7134     -1279.2938      352.38932      851.28816      42873.055     -30534.528     -478.76742      81979.742      43.441237      43.441237      43.441237      1.0143805      866.95685     -1621.1147     -449.15132    
     70000   70000          626.56038      1539.3274      44906.519      43059.135      14042.917      29016.218      6839.8194      9768.8958     -1265.9891      363.63215      945.0404       42897.618     -30532.798     -476.95869      82290.626      43.49608       43.49608       43.49608       1.0105483      3319.4722      1090.8021      207.7079     
     71000   71000          627.20196     -1076.1252      41764.086      43070.103      14057.296      29012.807      7073.1687      9730.4215     -1190.7222      365.81531      718.71715      42851.207     -30535.801     -471.65137      83216.612      43.658621      43.658621      43.658621      0.99930349    -2038.0267     -1102.7648     -87.584248    
     72000   72000          636.25812      394.66778      43762.795      43288.114      14260.269      29027.845      7001.9737      9688.7385     -1202.3325      352.62293      836.8437       42876.002     -30526.003     -475.92332      82469.649      43.527599      43.527599      43.527599      1.0083546      538.81948      234.05392      411.12994    
     73000   73000          628.56214     -3.5712527      42928.984      42933.276      14087.781      28845.494      6857.1292      9693.5609     -1323.2209      360.37606      914.65536      42873.012     -30530.018     -476.32993      82399.25       43.51521       43.51521       43.51521       1.0092161      1137.7224     -156.65515     -991.78098    
     74000   74000          631.80456      1422.058       44914.719      43195.611      14160.453      29035.158      6892.1605      9776.1031     -1285.5309      355.22979      999.46199      42839.901     -30542.168     -473.50125      82891.5        43.601691      43.601691      43.601691      1.0032229      1824.9001      87.740631      2353.5333    
     75000   75000          621.37093      265.16094      43108.926      42791.615      13926.607      28865.008      6833.5648      9764.5556     -1347.0005      356.06588      909.36123      42882.748     -30534.286     -478.33501      82053.851      43.454323      43.454323      43.454323      1.0134643     -1051.0947      367.04245      1479.5351    
     76000   76000          629.54515      1075.8444      44240.048      42949.942      14109.813      28840.129      6858.5579      9728.7639     -1288.2943      364.65896      832.05251      42880.511     -30536.121     -477.34377      82224.241      43.484381      43.484381      43.484381      1.0113642     -442.69289      580.68989      3089.5362    
     77000   77000          631.76943     -1813.3157      40876.977      43075.023      14159.666      28915.357      7004.5492      9700.3348     -1309.2593      368.30048      850.30661      42849.864     -30548.738     -472.2192       83116.548      43.641114      43.641114      43.641114      1.0005066     -976.3349      -1909.4805     -2554.1318    
     78000   78000          628.04213      2479.6108      46098.124      43132.04       14076.127      29055.914      6953.6448      9772.134      -1278.0343      368.7892       893.9477       42873.604     -30528.172     -478.52779      82020.794      43.448487      43.448487      43.448487      1.0138728      1438.9908      4135.5781      1864.2633    
     79000   79000          615.4543       410.2501       43337.568      42839.418      13793.999      29045.419      7029.7106      9717.8666     -1336.2917      355.38685      934.17494      42873.118     -30528.546     -471.4065       83259.838      43.666179      43.666179      43.666179      0.99878468    -1919.965       1102.1351      2048.5802    
     80000   80000          628.13969     -205.38371      42831.965      43078.418      14078.313      29000.104      7026.4523      9700.1918     -1227.9733      348.08928      833.81411      42850.1       -30530.57      -477.02369      82279.414      43.494105      43.494105      43.494105      1.010686       1271.8232     -1149.0637     -738.91065    
     81000   81000          629.69906     -1585.3112      41122.752      43045.876      14113.263      28932.613      7186.049       9661.0385     -1347.2408      357.77982      730.10271      42860.135     -30515.251     -471.86132      83179.586      43.652145      43.652145      43.652145      0.99974832    -578.13908     -1715.0416     -2462.7531    
     82000   82000          630.72269      153.54565      43318.422      43134.1        14136.205      28997.894      6808.828       9786.7567     -1282.1058      378.78046      921.69131      42907.371     -30523.427     -476.83358      82312.217      43.499884      43.499884      43.499884      1.0102832      68.000092     -652.93935      1045.5762    
     83000   83000          620.42027     -2272.5965      40445.278      43219.455      13905.3        29314.155      6988.09        10081.479     -1377.0982      401.10897      883.99734      42868.106     -30531.528     -468.91623      83702.007      43.743342      43.743342      43.743342      0.99350844    -1363.0307     -2001.6292     -3453.1296    
     84000   84000          628.85079      757.28498      43855.644      42945.988      14094.251      28851.738      6822.2165      9797.7834     -1317.9789      351.03573      875.77846      42857.797     -30534.894     -476.52884      82364.857      43.509155      43.509155      43.509155      1.0096375      135.17092      446.3404       1690.3436    
     85000   85000          622.82971      603.08462      43510.419      42785.017      13959.302      28825.715      6911.2615      9598.0659     -1288.1565      374.89208      885.70451      42873.406     -30529.458     -475.89005      82475.415      43.528614      43.528614      43.528614      1.0082841      160.43123      965.75505      683.06758    
     86000   86000          624.51233     -58.415899      43155.019      43225.083      13997.014      29228.069      7038.1778      9882.9882     -1285.7541      380.19039      855.4574       42880.166     -30523.156     -477.24303      82241.598      43.48744       43.48744       43.48744       1.0111507     -857.19657      1159.1433     -477.1944     
     87000   87000          621.83943     -153.34569      42785.599      42969.137      13937.107      29032.03       6982.9671      9785.721      -1301.0193      400.65656      833.79373      42859.289     -30529.379     -478.24671      82069          43.456997      43.456997      43.456997      1.0132773     -788.01529      1012.4336     -684.45538    
     88000   88000          638.37877      1283.1729      44884.249      43350.371      14307.799      29042.573      6965.7573      9773.6498     -1279.7412      371.0808       871.83802      42875.653     -30535.665     -478.85232      81965.207      43.438669      43.438669      43.438669      1.0145604      725.20134      1102.6145      2021.7028    
     89000   89000          620.03549     -206.55322      42709.809      42960.186      13896.676      29063.51       6833.0978      9902.6885     -1326.9645      394.85657      951.99916      42848.928     -30541.095     -472.2201       83116.388      43.641086      43.641086      43.641086      1.0005085     -1026.0725     -347.7289       754.14173    
     90000   90000          627.08275     -217.05948      42734.103      42997.273      14054.624      28942.648      6912.0763      9791.9513     -1324.5975      365.51971      889.2898       42846.223     -30537.814     -472.11672      83134.588      43.644272      43.644272      43.644272      1.0002894     -855.19139      241.10198     -37.089038    
     91000   91000          630.62499      130.15803      43170.864      43014.971      14134.015      28880.955      7016.9551      9658.0577     -1399.1427      382.54772      882.61517      42875.298     -30535.376     -477.91341      82126.235      43.467097      43.467097      43.467097      1.0125711     -724.40981     -90.478724      1205.3626    
     92000   92000          623.57958     -624.35946      41962.929      42708.25       13976.109      28732.142      6947.7302      9680.2271     -1356.0662      362.41765      796.86773      42842.228     -30541.262     -479.51071      81852.664      43.418779      43.418779      43.418779      1.0159553     -887.65225     -46.196407     -939.22972    
     93000   93000          619.56915     -529.15537      42464.061      43100.747      13886.224      29214.523      6948.2063      9873.4183     -1322.1418      370.38991      1029.2962      42841.215     -30525.861     -475.73495      82502.303      43.533344      43.533344      43.533344      1.0079555      1171.4742     -1428.3072     -1330.633     
     94000   94000          624.00047      164.37625      43067.731      42866.456      13985.542      28880.913      6950.928       9676.5377     -1362.5188      348.10856      936.98173      42862.243     -30531.367     -467.4718       83960.635      43.788349      43.788349      43.788349      0.99044809     337.69335      804.99062     -649.55522    
     95000   95000          632.28549      72.863087      43121.671      43033.312      14171.232      28862.08       6856.468       9659.7525     -1301.7486      356.16722      932.34219      42886.48      -30527.382     -472.02089      83151.467      43.647225      43.647225      43.647225      1.0000864     -284.18625      1876.1352     -1373.3597    
     96000   96000          630.80561      1698.9861      45273.001      43234.632      14138.064      29096.568      6957.107       9779.4398     -1240.9655      413.70774      842.67527      42873.225     -30528.621     -477.10502      82265.387      43.491633      43.491633      43.491633      1.0108583      496.05069      3073.1523      1527.7554    
     97000   97000          633.63941     -1648.8309      41357.241      43368.425      14201.577      29166.848      6937.2391      9849.787      -1270.159       379.11861      927.49267      42868.599     -30525.229     -469.27922      83637.262      43.73206       43.73206       43.73206       0.99427754    -1152.4904     -1622.832      -2171.1702    
     98000   98000          629.14799      1462.1083      44704.931      42936.263      14100.912      28835.351      6783.7067      9716.093      -1316.3944      366.25191      942.67692      42881.879     -30538.862     -473.19505      82945.139      43.611094      43.611094      43.611094      1.0025741      2886.3048     -143.5724       1643.5923    
     99000   99000          623.62329     -1118.9045      41534.771      42880.854      13977.088      28903.765      7076.3421      9707.6383     -1367.7082      375.04387      788.46027      42864.278     -30540.289     -475.80415      82490.305      43.531233      43.531233      43.531233      1.0081021     -1190.3904     -1669.0137     -497.30926    
    100000   100000         627.75443      290.58814      43720.208      43364.948      14069.679      29295.27       7073.152       9984.4195     -1306.8178      377.5603       850.64822      42850.321     -30534.013     -468.20829      83828.566      43.765378      43.765378      43.765378      0.99200851     372.19841      1714.7679     -1215.2019    
    101000   101000         619.74981     -987.03572      41628.201      42808.48       13890.273      28918.206      6869.6124      9799.6132     -1348.5152      367.84695      873.66222      42892.834     -30536.847     -478.69114      81992.805      43.443544      43.443544      43.443544      1.0142189     -2755.8755     -612.07863      406.84702    
    102000   102000         619.56915     -2630.0267      39378.93       42555.341      13886.224      28669.117      6985.6878      9627.7217     -1340.8426      349.21683      731.20169      42845.776     -30529.644     -473.94768      82813.421      43.587997      43.587997      43.587997      1.0041688     -2121.0714     -3134.4447     -2634.5641    
    103000   103000         627.40749      1781.991       45036.586      42913.162      14061.903      28851.259      6810.9649      9788.8272     -1372.4407      370.20009      925.40983      42862.755     -30534.458     -480.36975      81706.288      43.392882      43.392882      43.392882      1.0177754      171.51106      1452.2505      3722.2116    
    104000   104000         621.55249      642.3888       43668.951      42890.696      13930.676      28960.02       6823.4499      9832.647      -1295.1229      347.84156      874.67937      42888.384     -30511.859     -472.4796       83070.739      43.633095      43.633095      43.633095      1.0010583      639.9307      -26.652773      1313.8885    
    105000   105000         615.12324     -273.23361      42316.264      42645.821      13786.579      28859.242      6869.1675      9703.8626     -1306.1351      397.12295      848.64835      42872.812     -30526.236     -474.58143      82702.834      43.568586      43.568586      43.568586      1.0055115      48.293765     -780.69701     -87.297571    
    106000   106000         628.54965      1608.0523      45024.257      43084.882      14087.502      28997.38       6844.1888      9873.837      -1364.8897      374.09331      910.50135      42884.656     -30525.007     -474.61925      82696.245      43.567429      43.567429      43.567429      1.0055916      2509.2294      1119.854       1195.0736    
    107000   107000         620.73596      1878.5524      44940.207      42699.127      13912.376      28786.751      7052.3552      9655.5975     -1403.6028      367.37018      796.45865      42858.954     -30540.381     -479.8141       81800.908      43.409626      43.409626      43.409626      1.0165981      1021.9781      2771.4422      1842.2368    
    108000   108000         627.91994     -1446.6647      41441.113      43169.07       14073.388      29095.682      7032.841       9913.9348     -1310.6379      349.13276      797.97654      42850.856     -30538.421     -479.22788      81900.971      43.427319      43.427319      43.427319      1.0153561     -1003.6975     -505.54107     -2830.7556    
    109000   109000         619.01528     -234.8922       42453.68       42736.466      13873.811      28862.656      6878.0642      9634.6316     -1281.5995      361.20162      917.98364      42885.71      -30533.336     -475.46398      82549.322      43.541612      43.541612      43.541612      1.0073814     -219.96543     -152.80953     -331.90164    
    110000   110000         625.75496      895.08583      44149.731      43069.057      14024.865      29044.192      6843.8829      9853.9951     -1279.7884      340.35543      935.31499      42877.188     -30526.756     -474.10771      82785.47       43.583092      43.583092      43.583092      1.0045078      478.57368      1217.9862      988.69757    
    111000   111000         619.39032      1844.2032      45108.569      42866.763      13882.216      28984.547      6825.9853      9784.0215     -1370.9248      382.31783      1016.449       42880.511     -30533.813     -470.88799      83351.52       43.6822        43.6822        43.6822        0.99768608     2502.2879      980.43654      2049.885     
    112000   112000         628.05342      1200.8411      44560.891      43115.622      14076.38       29039.242      6971.9823      9703.7921     -1304.6975      368.08707      969.76314      42860.16      -30529.846     -475.602        82525.365      43.5374        43.5374        43.5374        1.0076738      1970.4453      1172.3196      459.75827    
    113000   113000         625.90577     -411.75256      42336.653      42835.742      14028.245      28807.497      6861.0316      9633.3088     -1336.8657      379.44892      925.62538      42869.928     -30524.98      -472.24304      83112.352      43.64038       43.64038       43.64038       1.0005571      1378.7993     -88.039698     -2526.0173    
    114000   114000         625.52138     -2.5582071      42961.582      42964.681      14019.63       28945.052      6894.4577      9820.0363     -1326.6576      385.71261      848.9944       42854.188     -30531.68      -472.48571      83069.664      43.632907      43.632907      43.632907      1.0010712      1072.4258      163.49569     -1243.5962    
    115000   115000         620.50712     -702.66614      41829.238      42679.265      13907.247      28772.019      6784.9527      9836.6485     -1353.1912      364.85188      775.82889      42880.082     -30517.154     -473.1762       82948.444      43.611673      43.611673      43.611673      1.0025342     -470.04262      521.6796      -2159.6354    
    116000   116000         634.3291       299.03491      43534.11       43172.443      14217.035      28955.409      6803.7189      9873.0252     -1324.664       375.99366      915.2158       42841.605     -30529.486     -473.28312      82929.704      43.608389      43.608389      43.608389      1.0027607      522.91192      495.7881      -121.59529    
    117000   117000         620.23775      1018.6175      44151.104      42910.663      13901.209      29009.453      6840.9571      9895.1315     -1423.3466      329.38715      972.1395       42905.338     -30510.153     -470.04774      83500.516      43.708213      43.708213      43.708213      0.99590583     2724.5235      353.25663     -21.927703    
    118000   118000         626.30815     -81.537264      43194.617      43293.282      14037.263      29256.018      6921.2208      9956.2387     -1355.877       376.71479      1014.7262      42882.005     -30539.01      -473.04166      82972.035      43.615807      43.615807      43.615807      1.0022491      262.07995     -1172.8561      666.16431    
    119000   119000         625.17883     -239.46646      42619.57       42908.11       14011.952      28896.158      6873.9646      9782.8424     -1266.1775      365.72385      812.01847      42856.762     -30528.976     -475.05711      82620.023      43.554039      43.554039      43.554039      1.0065193     -315.7372      -427.69459      25.032419    
    120000   120000         628.78334     -685.54406      42244.719      43073.909      14092.739      28981.17       6852.1512      9905.8288     -1322.5624      356.31565      814.59312      42899.277     -30524.433     -473.24753      82935.941      43.609482      43.609482      43.609482      1.0026853      424.97287     -1069.2502     -1412.3549    
    121000   121000         638.86569      67.413598      43263.579      43182.34       14318.712      28863.628      6950.2658      9697.6285     -1416.8236      362.31809      987.4231       42822.501     -30539.685     -474.99402      82630.997      43.555967      43.555967      43.555967      1.0063857      667.84555     -65.751589     -399.85317    
    122000   122000         616.56503     -847.53307      41860.246      42887.54       13818.894      29068.646      6962.5403      9759.6151     -1376.5294      375.80644      986.50562      42892.177     -30531.469     -472.24668      83111.711      43.640268      43.640268      43.640268      1.0005648      1250.7636     -1476.224      -2317.1388    
    123000   123000         626.71783      1450.0677      44756.235      42991.044      14046.446      28944.599      7084.1192      9674.7317     -1376.9957      353.13596      882.53671      42859.008     -30531.937     -470.22282      83469.426      43.702788      43.702788      43.702788      0.99627678     3578.7806      1587.7888     -816.36633    
    124000   124000         628.40297     -381.10596      42503.621      42964.472      14084.214      28880.258      7068.5144      9787.1927     -1459.6196      351.69291      790.56325      42868.917     -30527.003     -473.36059      82916.132      43.606009      43.606009      43.606009      1.0029249     -245.88838     -1139.8098      242.38028    
    125000   125000         627.22409     -462.9415       42309.562      42871.268      14057.792      28813.476      6770.4608      9646.8052     -1292.827       347.62665      985.09158      42881.928     -30525.609     -471.76312      83196.9        43.655173      43.655173      43.655173      0.99954026    -669.19474      116.83645     -836.46622    
    126000   126000         631.39504      201.23215      43355.68       43113.004      14151.274      28961.729      6947.0906      9726.0597     -1338.4787      388.88887      898.54125      42863.62      -30523.992     -474.65424      82690.147      43.566358      43.566358      43.566358      1.0056658      207.57089      876.61425     -480.4887     
    127000   127000         627.41488     -1021.4163      41849.158      43097.19       14062.068      29035.122      7010.7923      9847.6314     -1404.9908      398.9094       831.93262      42879.178     -30528.331     -468.4724       83781.305      43.757151      43.757151      43.757151      0.9925681     -333.48993     -1440.5497     -1290.2093    
    128000   128000         625.41262     -1827.2827      40429.482      42639.467      14017.192      28622.274      6700.9986      9790.4227     -1359.0433      378.55003      778.33919      42859.689     -30526.682     -473.28579      82929.236      43.608307      43.608307      43.608307      1.0027664     -2854.1696     -1019.1683     -1608.5101    
    129000   129000         627.2399       519.24972      43669.174      43045.384      14058.146      28987.238      6936.8155      9920.093      -1366.7515      346.84233      829.80031      42844.088     -30523.65      -476.48063      82373.189      43.510622      43.510622      43.510622      1.0095354      1703.1941     -2092.125       1946.6801    
    130000   130000         638.91918      314.6155       43568.571      43196.308      14319.911      28876.397      6884.2107      9778.3978     -1344.2263      369.49805      834.1431       42877.5       -30523.127     -483.76768      81132.392      43.291047      43.291047      43.291047      1.0249747     -1844.2998      2241.0528      547.09347    
    131000   131000         627.64604      1029.4716      43974.441      42729.937      14067.249      28662.688      6885.6203      9513.3518     -1305.4355      395.87597      851.48654      42848.63      -30526.841     -473.50544      82890.767      43.601562      43.601562      43.601562      1.0032318      1490.8671      785.04563      812.502      
    132000   132000         638.72273     -807.50869      42391.103      43359.037      14315.508      29043.53       6983.798       9726.1359     -1326.642       404.34965      898.18637      42882.296     -30524.594     -477.53845      82190.72       43.478471      43.478471      43.478471      1.0117766     -743.67214     -8.8091441     -1670.0448    
    133000   133000         623.09164     -455.42936      42249.31       42798.785      13965.173      28833.613      6898.3872      9792.7748     -1371.6954      362.57932      800.96412      42873.023     -30522.42      -474.43798      82727.84       43.572977      43.572977      43.572977      1.0052076      1082.2193     -1079.052      -1369.4553    
    134000   134000         629.85764     -539.54933      42391.059      43040.325      14116.817      28923.508      7112.0841      9776.9094     -1412.5786      380.61669      726.26149      42858.54      -30518.325     -475.68048      82511.75       43.535005      43.535005      43.535005      1.0078401     -744.52795     -1290.0545      415.93447    
    135000   135000         623.06216     -652.94848      41925.523      42703.691      13964.512      28739.179      6823.7716      9784.4078     -1323.8153      379.83807      710.71542      42883.34      -30519.079     -480.30016      81718.127      43.394978      43.394978      43.394978      1.017628      -1088.8416     -324.86618     -545.13766    
    136000   136000         630.65685      3.3025315      42772.623      42768.657      14134.73       28633.927      6813.4854      9688.0927     -1401.9638      377.72734      806.04294      42877.755     -30527.212     -476.61209      82350.469      43.506621      43.506621      43.506621      1.0098139      1776.4365     -1146.6534     -619.87551    
    137000   137000         626.0066       1648.0247      44860.104      42892.554      14030.505      28862.049      6662.5558      9880.8184     -1373.7175      350.38329      981.34002      42884.314     -30523.645     -479.45173      81862.733      43.420559      43.420559      43.420559      1.0158304      3044.3061      761.76394      1138.0042    
    138000   138000         634.24631      411.10532      43442.68       42953.615      14215.179      28738.436      6886.9007      9660.1542     -1309.0298      362.62918      788.31654      42867.085     -30517.62      -481.16451      81571.33       43.368977      43.368977      43.368977      1.0194593     -659.17321      917.42719      975.06197    
    139000   139000         628.90432      51.744384      43035.013      42972.813      14095.451      28877.363      6927.3223      9806.3739     -1357.6941      362.45282      798.20985      42865.69      -30524.992     -476.19598      82422.43       43.51929       43.51929       43.51929       1.0089323      1094.7287     -965.88349      26.387919    
    140000   140000         630.15205     -852.18781      42002.547      43021.663      14123.416      28898.248      6967.7531      9793.7604     -1392.0724      392.39578      803.65491      42855.226     -30522.47      -478.65082      81999.712      43.444764      43.444764      43.444764      1.0141334      1079.0019     -2574.9933     -1060.5721    
    141000   141000         624.55043      604.94861      43458.587      42732.77       13997.868      28734.902      6833.9109      9657.3694     -1335.0824      343.76975      889.76833      42868.691     -30523.525     -477.08801      82268.32       43.49215       43.49215       43.49215       1.0108223      1067.0109      1233.8974     -486.06249    
    142000   142000         620.19602     -788.12517      41883.655      42824.293      13900.274      28924.019      6882.6808      9880.773      -1349.2153      413.17733      748.41603      42868.067     -30519.881     -479.60092      81837.269      43.416057      43.416057      43.416057      1.0161465     -403.50906     -375.29561     -1585.5708    
    143000   143000         621.38643      1067.7926      43888.007      42619.341      13926.954      28692.387      6759.8228      9718.4051     -1399.952       354.01949      898.43403      42875.516     -30513.858     -481.77771      81467.508      43.35057       43.35057       43.35057       1.0207585      3073.2646     -1055.0862      1185.1995    
    144000   144000         615.1014       761.43205      43163.924      42258.04       13786.09       28471.95       6658.1249      9585.6137     -1328.1051      355.84639      868.7951       42858.355     -30526.679     -481.13375      81576.546      43.369902      43.369902      43.369902      1.0193941      1315.3673      519.19727      449.73158    
    145000   145000         619.91649      872.35856      43719.97       42686.326      13894.009      28792.317      6906.115       9753.1379     -1423.9295      393.49454      814.63269      42869.48      -30520.614     -483.09342      81245.629      43.311179      43.311179      43.311179      1.0235461      806.46005      303.68948      1506.9262    
    146000   146000         624.40278     -480.49247      42165.898      42746.919      13994.559      28752.36       6843.5225      9662.8777     -1309.4304      363.74621      815.29349      42890.452     -30514.102     -473.37066      82914.368      43.6057        43.6057        43.6057        1.0029462      263.96411     -1113.2238     -592.21775    
    147000   147000         618.70426     -1617.5103      40817.328      42743.961      13866.84       28877.121      7043.4903      9687.3537     -1336.952       347.22709      757.05439      42893.686     -30514.738     -480.56814      81672.558      43.38691       43.38691       43.38691       1.0181957      62.965216     -2671.6492     -2243.8469    
    148000   148000         628.81087      1211.1909      44535.354      43077.95       14093.356      28984.594      6962.0628      9828.9491     -1412.5413      403.7534       848.9083       42882.636     -30529.175     -475.70705      82507.143      43.534195      43.534195      43.534195      1.0078964      2289.7839     -1128.8563      2472.6452    
    149000   149000         622.80989     -1248.0655      41244.477      42744.322      13958.858      28785.465      6930.8564      9771.7893     -1430.4618      374.9052       805.78357      42854.358     -30521.766     -476.31885      82401.167      43.515548      43.515548      43.515548      1.0091926     -191.65878     -1628.0752     -1924.4625    
    150000   150000         614.73008     -95.785724      42450.501      42565.414      13777.767      28787.647      6861.6829      9680.3228     -1333.8975      354.55131      877.63823      42879.941     -30532.593     -477.13079      82260.944      43.49085       43.49085       43.49085       1.0109129      365.68785      314.53744     -967.58247    
[...]
   1955000   1955000        546.37119      988.90122      40114.24       38976.757      12245.659      26731.098      6075.2294      9075.5867     -1499.4645      314.99116      439.91552      42869.251     -30544.412     -497.63985      78870.752      42.884991      42.884991      42.884991      1.0543661      1530.3034      635.77514      800.62509    
   1956000   1956000        553.63293     -460.69392      38560.684      39088.405      12408.415      26679.99       5967.7525      9096.6095     -1539.1854      347.17673      520.11912      42835.188     -30547.671     -499.70718      78544.457      42.82577       42.82577       42.82577       1.0587463     -1274.9964     -1105.897       998.81165    
   1957000   1957000        550.14626      296.52191      39277.439      38932.46       12330.269      26602.191      6167.6283      8862.9673     -1593.0083      316.92604      552.32559      42848.093     -30552.741     -492.00715      79773.696      43.048026      43.048026      43.048026      1.042432      -472.54137      732.87281      629.2343     
   1958000   1958000        552.20813      215.76157      39769.332      39520.548      12376.481      27144.067      6340.7316      9248.631      -1582.372       346.18483      475.4954       42858.652     -30543.257     -496.42949      79063.049      42.919816      42.919816      42.919816      1.0518017      227.13824      222.2242       197.92228    
   1959000   1959000        547.69199      1710.7123      40878.25       38915.284      12275.262      26640.022      6067.758       9016.0407     -1597.4173      319.63911      528.17694      42855.136     -30549.311     -498.85157      78679.174      42.85024       42.85024       42.85024       1.0569335      3307.59       -493.02658      2317.5736    
   1960000   1960000        555.3203      -1251.5545      37706.194      39153.9        12446.233      26707.667      6093.2147      9106.6426     -1535.6847      299.76677      447.39503      42840.278     -30543.945     -494.85305      79314.919      42.965344      42.965344      42.965344      1.0484617     -2232.5461     -864.52389     -657.59339    
   1961000   1961000        544.22529      292.93213      39291.709      38954.915      12197.564      26757.351      6057.5096      9028.956      -1453.2711      308.46969      505.55452      42856.084     -30545.952     -497.86237      78835.5        42.878601      42.878601      42.878601      1.0548376      1819.6447     -1069.4762      128.62788    
   1962000   1962000        550.36813      597.51807      39916.865      39231.714      12335.242      26896.472      6075.3477      9184.0854     -1533.3222      350.40315      499.26258      42857.281     -30536.585     -499.19691      78624.744      42.840357      42.840357      42.840357      1.0576651      917.76336      879.40386     -4.6130056    
   1963000   1963000        548.05504      1111.9376      40077.569      38805.551      12283.399      26522.152      6005.8398      9002.714      -1556.1362      350.95376      448.1343       42822.971     -30552.325     -500.37326      78439.902      42.806759      42.806759      42.806759      1.0601575      727.44556      2052.8648      555.50229    
   1964000   1964000        550.39276      320.59861      39361.117      38991.571      12335.794      26655.777      6031.0576      9020.9223     -1528.9272      325.09013      520.41804      42835.643     -30548.426     -496.59208      79037.163      42.915131      42.915131      42.915131      1.0521462      1139.3833     -781.60155      604.01411    
   1965000   1965000        556.25433      104.15549      39414.84       39295.165      12467.167      26827.998      6172.9504      9092.6223     -1457.9999      342.17373      404.23893      42831.767     -30557.754     -498.17884      78785.42       42.86952       42.86952       42.86952       1.0555081      130.53137      740.92347     -558.98838    
   1966000   1966000        541.3987      -2039.5397      36607.824      38943.073      12134.213      26808.861      6258.1192      9038.3294     -1556.361       327.233        443.36518      42843.723     -30545.547     -499.92619      78510.049      42.819516      42.819516      42.819516      1.0592103     -2383.8372     -1252.0269     -2482.7551    
   1967000   1967000        545.43974     -121.65191      38842.118      38982.607      12224.783      26757.824      6109.9591      9032.0554     -1493.874       324.58126      508.0505       42829.054     -30552.002     -495.66039      79185.728      42.942004      42.942004      42.942004      1.0501722      2136.0348     -1975.5443     -525.44628    
   1968000   1968000        554.60461     -286.06605      38934.544      39264.798      12430.193      26834.605      6140.9053      9081.7438     -1562.8713      315.09168      565.25792      42844.551     -30550.073     -495.82078      79160.114      42.937373      42.937373      42.937373      1.050512      -1847.1968      1542.6307     -553.63204    
   1969000   1969000        550.24218      418.58663      39541.185      39059.863      12332.419      26727.445      6164.3476      8936.0931     -1555.8996      327.05613      543.83677      42859.679     -30547.668     -497.80262      78844.962      42.880317      42.880317      42.880317      1.054711      -1647.227      -727.98566      3630.9725    
   1970000   1970000        556.24165      2064.7884      41486.568      39102.55       12466.883      26635.667      6047.786       9060.1676     -1520.3261      326.82682      425.25091      42840.259     -30544.297     -495.76175      79169.539      42.939077      42.939077      42.939077      1.050387       1080.5516      2266.6513      2847.1622    
   1971000   1971000        551.89302     -496.46107      38572.672      39141.523      12369.419      26772.104      6312.4953      8868.3687     -1537.7783      357.58299      451.61421      42867.919     -30548.098     -499.5668       78566.529      42.829781      42.829781      42.829781      1.0584488      613.88963     -1239.8658     -863.40705    
   1972000   1972000        554.94859      1091.8485      40680.848      39425.182      12437.902      26987.28       6247.5513      9115.3828     -1511.1937      331.37027      553.3986       42807.99      -30557.219     -497.73175      78856.189      42.882352      42.882352      42.882352      1.0545609      3013.7338      674.6908      -412.87918    
   1973000   1973000        556.23589     -495.76988      38416.623      38987.072      12466.754      26520.318      6042.4578      9032.1283     -1586.6461      304.96698      435.99641      42839.3       -30547.885     -497.47325      78897.165      42.889778      42.889778      42.889778      1.0540132      122.01435     -1043.1192     -566.2048     
   1974000   1974000        554.51193      782.19115      40254.572      39351.714      12428.116      26923.599      6243.6896      9083.2119     -1556.4081      321.53249      529.77437      42862.181     -30560.382     -495.90727      79146.307      42.934877      42.934877      42.934877      1.0506953      81.5533        1286.718       978.3022     
   1975000   1975000        545.98093      348.24247      39518.297      39117.077      12236.913      26880.164      6136.6099      9093.1885     -1494.9502      313.54018      480.42073      42890.921     -30539.566     -496.82821      78999.599      42.908332      42.908332      42.908332      1.0526465      72.18986      -61.077033      1033.6146    
   1976000   1976000        551.86025      279.17276      39391.567      39069.793      12368.684      26701.109      6139.792       9049.2676     -1535.7907      320.26736      450.57501      42827.375     -30550.377     -496.62553      79031.84       42.914168      42.914168      42.914168      1.0522171      1065.7632     -551.85155      323.60664    
   1977000   1977000        550.87513     -1764.3038      37102.185      39128.701      12346.605      26782.096      6184.9632      8925.4521     -1455.8431      323.25229      478.55756      42868.087     -30542.373     -498.34522      78759.117      42.864748      42.864748      42.864748      1.0558606     -3527.157       1191.707      -2957.4616    
   1978000   1978000        554.60072      197.24082      39317.761      39088.284      12430.106      26658.179      6238.7617      8930.2318     -1596.5329      300.21229      490.69411      42840.005     -30545.194     -491.99994      79774.866      43.048236      43.048236      43.048236      1.0424167      1634.6194      468.67421     -1511.5712    
   1979000   1979000        546.0143      -1513.9488      37119.916      38860.273      12237.66       26622.612      6121.9301      9086.5972     -1630.5556      329.36204      434.47828      42833.392     -30552.592     -497.94344      78822.666      42.876274      42.876274      42.876274      1.0550094     -2570.5818      850.87946     -2822.1441    
   1980000   1980000        558.63639     -668.77138      38509.372      39283.506      12520.556      26762.95       6185.2094      9056.1841     -1558.7345      358.23774      460.44239      42822.25      -30560.639     -494.50238      79371.163      42.975498      42.975498      42.975498      1.0477187      585.65815     -846.37693     -1745.5954    
   1981000   1981000        550.68705      1869.0356      41149.6        39004.313      12342.39       26661.923      6157.4598      8939.2977     -1547.091       275.98079      549.32709      42836.031     -30549.082     -498.69963      78703.145      42.854592      42.854592      42.854592      1.0566115      2633.6001      1023.093       1950.4137    
   1982000   1982000        542.84525      1267.6793      40308.605      38862.179      12166.634      26695.545      6018.3029      9094.526      -1542.3229      329.7379       478.41762      42855.856     -30538.972     -501.67244      78236.765      42.769775      42.769775      42.769775      1.0629101      1624.1898      1298.7533      880.09492    
   1983000   1983000        550.77828      347.19138      39605.743      39206.695      12344.434      26862.261      6045.0239      9133.9053     -1466.9549      333.07838      494.23227      42853.931     -30530.955     -498.02454      78809.83       42.873947      42.873947      42.873947      1.0551812      1275.3682     -1129.0041      895.21001    
   1984000   1984000        549.14592      34.808194      39312.19       39271.919      12307.849      26964.07       6375.4849      8960.5717     -1521.3465      318.0043       536.93598      42840.027     -30545.607     -494.76713      79328.692      42.967831      42.967831      42.967831      1.0482796      2154.4938     -1761.7063     -288.36296    
   1985000   1985000        549.78051     -1308.2019      37511.824      39006.096      12322.071      26684.025      6094.7572      9087.6211     -1544.9105      324.87894      443.33882      42819.268     -30540.929     -501.13207      78321.129      42.785142      42.785142      42.785142      1.0617652     -1946.0891     -1553.5065     -425.01015    
   1986000   1986000        548.99391     -976.11627      37879.672      39005.492      12304.442      26701.051      6255.4786      9083.6252     -1625.03        288.7862       392.13601      42847.62      -30541.565     -496.29467      79084.526      42.923702      42.923702      42.923702      1.0515161     -2321.8389      1049.68       -1656.1899    
   1987000   1987000        557.06989      2151.9475      41567.98       39113.458      12485.446      26628.012      5982.8248      9070.7281     -1522.5417      329.0499       474.11761      42840.143     -30546.309     -501.84759      78209.46       42.764798      42.764798      42.764798      1.0632812      3441.6471      2300.2557      713.93951    
   1988000   1988000        551.04309     -517.73414      38380.501      38974.871      12350.369      26624.501      6065.4715      8989.0049     -1494.728       316.59644      475.4891       42827.598     -30554.931     -498.60546      78718.009      42.85729       42.85729       42.85729       1.056412      -722.00618     -1164.0262      332.82995    
   1989000   1989000        554.18517      1334.2318      40649.516      39117.308      12420.792      26696.516      6191.8014      8975.4387     -1505.3743      321.92398      374.62006      42871.19      -30533.084     -498.44893      78742.729      42.861775      42.861775      42.861775      1.0560804      161.01298      1436.9019      2404.7807    
   1990000   1990000        550.88931     -58.765835      38954.433      39022.117      12346.923      26675.194      6137.4222      8880.4384     -1474.1609      357.87531      450.69247      42866.847     -30543.921     -496.98937      78973.981      42.903693      42.903693      42.903693      1.052988       130.28405      1158.6732     -1465.2547    
   1991000   1991000        548.5152       339.3753       39340.373      38952.424      12293.713      26658.712      6119.4365      9020.0908     -1490.7683      304.80374      406.75009      42838.64      -30540.241     -500.74103      78382.291      42.796276      42.796276      42.796276      1.0609367      121.73991      657.44664      238.93935    
   1992000   1992000        552.26144     -777.44381      38325.222      39211.451      12377.676      26833.775      6231.1189      9047.2787     -1553.3358      359.73967      437.64891      42856.889     -30545.564     -502.14609      78162.968      42.756323      42.756323      42.756323      1.0639137      94.792499     -1476.5853     -950.53864    
   1993000   1993000        553.56106      69.417764      39175.631      39096.753      12406.804      26689.949      6324.0606      8987.1578     -1536.3481      339.2172       259.0774       42860.108     -30543.324     -503.76025      77912.517      42.710607      42.710607      42.710607      1.0673336      438.53628     -858.70616      628.42317    
   1994000   1994000        550.33947     -467.44454      38503.514      39040.851      12334.599      26706.252      6205.9423      8972.6158     -1527.7091      311.99261      421.16689      42864.441     -30542.197     -497.95494      78820.846      42.875944      42.875944      42.875944      1.0550337      1558.5481     -3028.1134      67.231692    
   1995000   1995000        549.00997      17.559194      39107.023      39086.884      12304.802      26782.083      6182.6416      9127.6541     -1570.3965      340.80992      408.7726       42833.613     -30541.012     -499.09341      78641.048      42.843318      42.843318      42.843318      1.0574459     -771.24262      1196.669      -372.74876    
   1996000   1996000        553.58844     -1212.9248      37822.263      39213.541      12407.418      26806.123      6196.1961      9034.4507     -1542.4091      313.9644       519.87347      42826.138     -30542.09      -499.03031      78650.992      42.845124      42.845124      42.845124      1.0573122     -2190.7136     -620.28878     -827.77204    
   1997000   1997000        547.32029     -122.31541      38835.997      38975.247      12266.931      26708.316      6149.9276      8986.9379     -1483.632       319.84815      423.79545      42857.343     -30545.904     -502.79721      78061.748      42.737858      42.737858      42.737858      1.0652932     -240.63307     -87.081612     -39.231543    
   1998000   1998000        545.30881      675.71233      39630.135      38855.532      12221.849      26633.684      6120.9888      9022.7122     -1548.2606      339.23887      394.69941      42846.453     -30542.148     -499.33246      78603.4        42.83648       42.83648       42.83648       1.0579523     -535.81119      1166.843       1396.1052    
   1999000   1999000        555.33184      1682.2729      41046.04       39117.458      12446.492      26670.967      6120.1475      8825.0605     -1583.9166      339.785        639.22485      42874.719     -30544.053     -499.30446      78607.809      42.837281      42.837281      42.837281      1.057893       1810.5965      111.36286      3124.8594    
   2000000   2000000        553.12421     -739.9092       38071.793      38920.808      12397.013      26523.795      6091.8453      8913.0515     -1586.2113      349.59369      435.19345      42866.533     -30546.21      -498.8502       78679.39       42.85028       42.85028       42.85028       1.0569306      403.68697     -2876.9974      253.58287    
Loop time of 4877.69 on 1 procs for 2000000 steps with 7520 atoms

Performance: 35.427 ns/day, 0.677 hours/ns, 410.030 timesteps/s, 3.083 Matom-step/s
99.9% CPU use with 1 MPI tasks x 1 OpenMP threads

MPI task timing breakdown:
Section |  min time  |  avg time  |  max time  |%varavg| %total
---------------------------------------------------------------
Pair    | 564.7      | 564.7      | 564.7      |   0.0 | 11.58
Bond    | 534.2      | 534.2      | 534.2      |   0.0 | 10.95
Kspace  | 2166.2     | 2166.2     | 2166.2     |   0.0 | 44.41
Neigh   | 760.68     | 760.68     | 760.68     |   0.0 | 15.59
Comm    | 90.816     | 90.816     | 90.816     |   0.0 |  1.86
Output  | 21.817     | 21.817     | 21.817     |   0.0 |  0.45
Modify  | 643.93     | 643.93     | 643.93     |   0.0 | 13.20
Other   |            | 95.38      |            |       |  1.96

Nlocal:           7520 ave        7520 max        7520 min
Histogram: 1 0 0 0 0 0 0 0 0 0
Nghost:          19822 ave       19822 max       19822 min
Histogram: 1 0 0 0 0 0 0 0 0 0
Neighs:              0 ave           0 max           0 min
Histogram: 1 0 0 0 0 0 0 0 0 0
FullNghs:  4.57901e+06 ave 4.57901e+06 max 4.57901e+06 min
Histogram: 1 0 0 0 0 0 0 0 0 0

Total # of neighbors = 4579014
Ave neighs/atom = 608.91144
Ave special neighs/atom = 5.7207447
Neighbor list builds = 114961
Dangerous builds = 0

# --- Cleanup ---
unfix npt_fix

undump dump_npt

# --- Write Output ---
write_dump all custom npt_cool_last.dump id type mol x y z xu yu zu vx vy vz modify sort id
write_data /home/alexzhao/PolyJarvis/data/PMMA4/lammps/equil/npt_cool/npt_cool_out.data
System init for write_data ...
PPPM Kokkos initialization ...
  using 12-bit tables for long-range coulomb
  G vector (1/distance) = 0.33150457
  grid = 45 45 45
  stencil order = 5
  estimated absolute RMS force accuracy = 0.00030702658
  estimated relative force accuracy = 9.2460142e-07
  using double precision cuFFT
  3d grid and FFT values/proc = 140608 91125
Generated 15 of 15 mixed pair_coeff terms from sixthpower/sixthpower mixing rule

print "STAGE COMPLETE: NPT T=630.0->550.0K P=1.0->1.0atm steps=2000000"
STAGE COMPLETE: NPT T=630.0->550.0K P=1.0->1.0atm steps=2000000
quit
  |       |  1.96

Nlocal:           7520 ave        7520 max        7520 min
Histogram: 1 0 0 0 0 0 0 0 0 0
Nghost:          19822 ave       19822 max       19822 min
Histogram: 1 0 0 0 0 0 0 0 0 0
Neighs:              0 ave           0 max           0 min
Histogram: 1 0 0 0 0 0 0 0 0 0
FullNghs:  4.57901e+06 ave 4.57901e+06 max 4.57901e+06 min
Histogram: 1 0 0 0 0 0 0 0 0 0

Total # of neighbors = 4579014
Ave neighs/atom = 608.91144
Ave special neighs/atom = 5.7207447
Neighbor list builds = 114961
Dangerous builds = 0
System init for write_data ...
PPPM Kokkos initialization ...
  using 12-bit tables for long-range coulomb
  G vector (1/distance) = 0.33150457
  grid = 45 45 45
  stencil order = 5
  estimated absolute RMS force accuracy = 0.00030702658
  estimated relative force accuracy = 9.2460142e-07
  using double precision cuFFT
  3d grid and FFT values/proc = 140608 91125
Generated 15 of 15 mixed pair_coeff terms from sixthpower/sixthpower mixing rule
STAGE COMPLETE: NPT T=630.0->550.0K P=1.0->1.0atm steps=2000000
