units real
atom_style full
boundary p p p

# --- Force Field Styles ---
pair_style lj/class2/coul/long 9.5 9.5
kspace_style pppm 1e-6
dielectric 1.000000
bond_style class2
angle_style class2
dihedral_style class2
improper_style class2
special_bonds lj/coul 0 0 1
pair_modify mix sixthpower tail yes
neighbor 2.0 bin
neigh_modify delay 0 every 1 check yes
neigh_modify one 4000
# KOKKOS: package loaded via -pk kokkos on the command line

read_data /home/arz2/PolyJarvis/data/PMMA3/lammps/equil/npt_pppm/npt_pppm_out.data
Reading data file ...
  orthogonal box = (4.2656625 4.2656625 4.2656625) to (47.485336 47.485336 47.485336)
  1 by 1 by 1 MPI processor grid
  reading atoms ...
  7520 atoms
  reading velocities ...
  7520 velocities
  scanning bonds ...
  4 = max bonds/atom
  scanning angles ...
  17 = max angles/atom
  scanning dihedrals ...
  40 = max dihedrals/atom
  scanning impropers ...
  14 = max impropers/atom
  orthogonal box = (4.2656625 4.2656625 4.2656625) to (47.485336 47.485336 47.485336)
  1 by 1 by 1 MPI processor grid
  reading bonds ...
  7510 bonds
  reading angles ...
  14000 angles
  reading dihedrals ...
  18910 dihedrals
  reading impropers ...
  8500 impropers
Finding 1-2 1-3 1-4 neighbors ...
  special bond factors lj:    0        0        1       
  special bond factors coul:  0        0        1       
     4 = max # of 1-2 neighbors
    11 = max # of 1-3 neighbors
    15 = max # of special neighbors
  special bonds CPU = 0.006 seconds
  read_data CPU = 0.423 seconds
include /home/arz2/PolyJarvis/data/PMMA3/lammps/equil/emc_build.params
# LAMMPS parameters created by EMC v9.4.4, build Jul 31 2025 20:33:44

# Variables

variable	seed		index	555781
variable	ntotal		index	7520
variable	fshape		index	1
variable	output		index	emc_build
variable	field		index	pcff/pcff
variable	location1	index	/home/arz2/emc/field/
variable	nav		index	0.6022141179
variable	temperature	index	300
variable	radius		index	5
variable	nrelax		index	100
variable	weight_nonbond	index	0.0001
variable	weight_bond	index	0.0001
variable	weight_focus	index	1
variable	cutoff		index	9.5
variable	charge_cutoff	index	9.5
variable	kappa		index	4
variable	density1	index	0.6
variable	lprevious	index	0
variable	lphase		index	51.7509981335
variable	f_poly		index	10
variable	chem_repeat	index	*CC(C)(C(=O)OC)*
variable	chem_cap	index	*[H]
variable	lg_repeat	index	15
variable	lg_cap		index	1
variable	norm_poly	index	100
variable	l_poly		index	752
variable	mg_repeat	index	88.10716
variable	mg_cap		index	1.00797
variable	m_poly		index	4407.37394
variable	n_poly		index	10
variable	mtotal		index	50079.3144
variable	nphase1		index	7520
variable	mphase1		index	50079.3144
variable	vphase1		index	138597.753721
variable	lbox		index	51.7509981335
variable	lphase1		index	51.7509981335
variable	lxx		index	51.7509981335
variable	lyy		index	51.7509981335
variable	lzz		index	51.7509981335
variable	lzy		index	0
variable	lzx		index	0
variable	lyx		index	0
variable	vtotal		index	138597.753721
variable	nl_poly		index	10

# Types

variable	type_c		index	1
variable	type_c1		index	2
variable	type_c_1	index	3
variable	type_hc		index	4
variable	type_o_1	index	5
variable	type_o_2	index	6

variable	type_bond_c_c	index	1
variable	type_bond_c_c1	index	2
variable	type_bond_c_c_1	index	3
variable	type_bond_c_hc	index	4
variable	type_bond_c_o_2	index	5
variable	type_bond_c1_c_1 index	6
variable	type_bond_c1_hc	index	7
variable	type_bond_c_1_o_1 index	8
variable	type_bond_c_1_o_2 index	9

variable	type_angle_c_c_c index	1
variable	type_angle_c_c_c1 index	2
variable	type_angle_c_c_c_1 index	3
variable	type_angle_c_c_hc index	4
variable	type_angle_c_c1_c index	5
variable	type_angle_c_c1_c_1 index	6
variable	type_angle_c_c1_hc index	7
variable	type_angle_c_c_1_o_1 index	8
variable	type_angle_c_c_1_o_2 index	9
variable	type_angle_c_o_2_c_1 index	10
variable	type_angle_c1_c_hc index	11
variable	type_angle_c1_c_1_o_1 index	12
variable	type_angle_c1_c_1_o_2 index	13
variable	type_angle_c_1_c1_hc index	14
variable	type_angle_hc_c_hc index	15
variable	type_angle_hc_c_o_2 index	16
variable	type_angle_o_1_c_1_o_2 index	17

# Clusters

variable	n0_poly		index	1
variable	n1_poly		index	10
variable	nl_poly		index	10

# Flags

variable	flag_charged	index	1

# Masses

mass		1    12.01115  # c
mass		2    12.01115  # c1
mass		3    12.01115  # c_1
mass		4     1.00797  # hc
mass		5    15.99940  # o_1
mass		6    15.99940  # o_2

# Potentials

pair_modify	mix sixthpower tail yes
special_bonds	lj/coul 0 0 1

# Pair Coeffs

pair_coeff	 1  1    0.05400    4.01000  # c,c
pair_coeff	 2  2    0.05400    4.01000  # c1,c1
pair_coeff	 3  3    0.12000    3.81000  # c_1,c_1
pair_coeff	 4  4    0.02000    2.99500  # hc,hc
pair_coeff	 5  5    0.26700    3.30000  # o_1,o_1
pair_coeff	 6  6    0.24000    3.42000  # o_2,o_2

# Bond Coeffs

bond_coeff	1    1.53000  299.67000 -501.77000  679.81000  # c,c
bond_coeff	2    1.53000  299.67000 -501.77000  679.81000  # c,c1
bond_coeff	3    1.52020  253.70670 -423.03700  396.90000  # c,c_1
bond_coeff	4    1.10100  345.00000 -691.89000  844.60000  # c,hc
bond_coeff	5    1.43000  326.72730 -608.53060  689.03330  # c,o_2
bond_coeff	6    1.52020  253.70670 -423.03700  396.90000  # c1,c_1
bond_coeff	7    1.10100  345.00000 -691.89000  844.60000  # c1,hc
bond_coeff	8    1.20200  851.14030 -1918.48820 2160.76590  # c_1,o_1
bond_coeff	9    1.36830  367.14810 -794.79080 1055.23190  # c_1,o_2

# Angle Coeffs

angle_coeff	 1  112.67000   39.51600   -7.44300   -9.55830  # c,c,c
angle_coeff	 2  112.67000   39.51600   -7.44300   -9.55830  # c,c,c1
angle_coeff	 3  108.52950   51.97470   -9.48510  -10.99850  # c,c,c_1
angle_coeff	 4  110.77000   41.45300  -10.60400    5.12900  # c,c,hc
angle_coeff	 5  112.67000   39.51600   -7.44300   -9.55830  # c,c1,c
angle_coeff	 6  108.52950   51.97470   -9.48510  -10.99850  # c,c1,c_1
angle_coeff	 7  110.77000   41.45300  -10.60400    5.12900  # c,c1,hc
angle_coeff	 8  123.14510   55.54310  -17.21230    0.13480  # c,c_1,o_1
angle_coeff	 9  100.31820   38.86310   -3.83230   -7.98020  # c,c_1,o_2
angle_coeff	10  113.28800   61.28680  -28.97860    7.99290  # c,o_2,c_1
angle_coeff	11  110.77000   41.45300  -10.60400    5.12900  # c1,c,hc
angle_coeff	12  123.14510   55.54310  -17.21230    0.13480  # c1,c_1,o_1
angle_coeff	13  100.31820   38.86310   -3.83230   -7.98020  # c1,c_1,o_2
angle_coeff	14  107.73360   40.60990  -28.81210    0.00000  # c_1,c1,hc
angle_coeff	15  107.66000   39.64100  -12.92100   -2.43180  # hc,c,hc
angle_coeff	16  107.68800   65.48010  -10.34980    5.88660  # hc,c,o_2
angle_coeff	17  120.79700   95.34460  -32.28690    6.37780  # o_1,c_1,o_2

# BondBond Coeffs

angle_coeff	 1 bb    0.00000    1.53000    1.53000  # c,c,c
angle_coeff	 2 bb    0.00000    1.53000    1.53000  # c,c,c1
angle_coeff	 3 bb    5.41990    1.53000    1.52020  # c,c,c_1
angle_coeff	 4 bb    3.38720    1.53000    1.10100  # c,c,hc
angle_coeff	 5 bb    0.00000    1.53000    1.53000  # c,c1,c
angle_coeff	 6 bb    5.41990    1.53000    1.52020  # c,c1,c_1
angle_coeff	 7 bb    3.38720    1.53000    1.10100  # c,c1,hc
angle_coeff	 8 bb   46.06850    1.52020    1.20200  # c,c_1,o_1
angle_coeff	 9 bb   19.10690    1.52020    1.36830  # c,c_1,o_2
angle_coeff	10 bb   45.45030    1.43000    1.36830  # c,o_2,c_1
angle_coeff	11 bb    3.38720    1.53000    1.10100  # c1,c,hc
angle_coeff	12 bb   46.06850    1.52020    1.20200  # c1,c_1,o_1
angle_coeff	13 bb   19.10690    1.52020    1.36830  # c1,c_1,o_2
angle_coeff	14 bb    0.71150    1.52020    1.10100  # c_1,c1,hc
angle_coeff	15 bb    5.33160    1.10100    1.10100  # hc,c,hc
angle_coeff	16 bb    5.64540    1.10100    1.43000  # hc,c,o_2
angle_coeff	17 bb  121.48800    1.20200    1.36830  # o_1,c_1,o_2

# BondAngle Coeffs

angle_coeff	 1 ba    8.01600    8.01600    1.53000    1.53000  # c,c,c
angle_coeff	 2 ba    8.01600    8.01600    1.53000    1.53000  # c,c,c1
angle_coeff	 3 ba   18.16780   15.87580    1.53000    1.52020  # c,c,c_1
angle_coeff	 4 ba   20.75400   11.42100    1.53000    1.10100  # c,c,hc
angle_coeff	 5 ba    8.01600    8.01600    1.53000    1.53000  # c,c1,c
angle_coeff	 6 ba   18.16780   15.87580    1.53000    1.52020  # c,c1,c_1
angle_coeff	 7 ba   20.75400   11.42100    1.53000    1.10100  # c,c1,hc
angle_coeff	 8 ba   34.99820   37.12980    1.52020    1.20200  # c,c_1,o_1
angle_coeff	 9 ba    1.34350    4.69780    1.52020    1.36830  # c,c_1,o_2
angle_coeff	10 ba   41.91160   46.46080    1.43000    1.36830  # c,o_2,c_1
angle_coeff	11 ba   20.75400   11.42100    1.53000    1.10100  # c1,c,hc
angle_coeff	12 ba   34.99820   37.12980    1.52020    1.20200  # c1,c_1,o_1
angle_coeff	13 ba    1.34350    4.69780    1.52020    1.36830  # c1,c_1,o_2
angle_coeff	14 ba   12.46320    9.17650    1.52020    1.10100  # c_1,c1,hc
angle_coeff	15 ba   18.10300   18.10300    1.10100    1.10100  # hc,c,hc
angle_coeff	16 ba    8.68640   57.49750    1.10100    1.43000  # hc,c,o_2
angle_coeff	17 ba   76.26140   71.87610    1.20200    1.36830  # o_1,c_1,o_2

# Dihedral Coeffs

dihedral_coeff	 1    0.00000    0.00000    0.05140    0.00000   -0.14300    0.00000  # c,c,c,c
dihedral_coeff	 2    0.00000    0.00000    0.05140    0.00000   -0.14300    0.00000  # c,c,c,c1
dihedral_coeff	 3    0.09720    0.00000    0.07220    0.00000   -0.25810    0.00000  # c,c,c,c_1
dihedral_coeff	 4    0.00000    0.00000    0.03160    0.00000   -0.16810    0.00000  # c,c,c,hc
dihedral_coeff	 5    0.00000    0.00000    0.05140    0.00000   -0.14300    0.00000  # c,c,c1,c
dihedral_coeff	 6    0.09720    0.00000    0.07220    0.00000   -0.25810    0.00000  # c,c,c1,c_1
dihedral_coeff	 7    0.00000    0.00000    0.03160    0.00000   -0.16810    0.00000  # c,c,c1,hc
dihedral_coeff	 8    0.04420    0.00000    0.02920    0.00000    0.05620    0.00000  # c,c,c_1,o_1
dihedral_coeff	 9    1.83410    0.00000    2.06030    0.00000   -0.01950    0.00000  # c,c,c_1,o_2
dihedral_coeff	10    0.00000    0.00000    0.03160    0.00000   -0.16810    0.00000  # c,c1,c,hc
dihedral_coeff	11    0.04420    0.00000    0.02920    0.00000    0.05620    0.00000  # c,c1,c_1,o_1
dihedral_coeff	12    1.83410    0.00000    2.06030    0.00000   -0.01950    0.00000  # c,c1,c_1,o_2
dihedral_coeff	13   -2.55940    0.00000    2.20130    0.00000    0.03250    0.00000  # c,c_1,o_2,c
dihedral_coeff	14   -2.55940    0.00000    2.20130    0.00000    0.03250    0.00000  # c,o_2,c_1,c1
dihedral_coeff	15    0.00000    0.00000    2.20890    0.00000    0.00000    0.00000  # c,o_2,c_1,o_1
dihedral_coeff	16    0.09720    0.00000    0.07220    0.00000   -0.25810    0.00000  # c1,c,c,c_1
dihedral_coeff	17   -0.02280    0.00000    0.02800    0.00000   -0.18630    0.00000  # c_1,c,c,hc
dihedral_coeff	18   -0.02280    0.00000    0.02800    0.00000   -0.18630    0.00000  # c_1,c1,c,hc
dihedral_coeff	19    0.00000    0.00000    0.00000    0.00000   -0.19320    0.00000  # c_1,o_2,c,hc
dihedral_coeff	20   -0.14320    0.00000    0.06170    0.00000   -0.10830    0.00000  # hc,c,c1,hc
dihedral_coeff	21   -0.18040    0.00000    0.00120    0.00000    0.03710    0.00000  # hc,c1,c_1,o_1
dihedral_coeff	22   -0.63590    0.00000    1.48070    0.00000   -0.04380    0.00000  # hc,c1,c_1,o_2

# MiddleBondTorsion Coeffs

dihedral_coeff	 1 mbt  -17.78700   -7.18770    0.00000    1.53000  # c,c,c,c
dihedral_coeff	 2 mbt  -17.78700   -7.18770    0.00000    1.53000  # c,c,c,c1
dihedral_coeff	 3 mbt   -1.59450    0.22670   -0.69110    1.53000  # c,c,c,c_1
dihedral_coeff	 4 mbt  -14.87900   -3.65810   -0.31380    1.53000  # c,c,c,hc
dihedral_coeff	 5 mbt  -17.78700   -7.18770    0.00000    1.53000  # c,c,c1,c
dihedral_coeff	 6 mbt   -1.59450    0.22670   -0.69110    1.53000  # c,c,c1,c_1
dihedral_coeff	 7 mbt  -14.87900   -3.65810   -0.31380    1.53000  # c,c,c1,hc
dihedral_coeff	 8 mbt    0.33880   -0.10960    0.12190    1.52020  # c,c,c_1,o_1
dihedral_coeff	 9 mbt  -17.32800   -5.79000   -3.21140    1.52020  # c,c,c_1,o_2
dihedral_coeff	10 mbt  -14.87900   -3.65810   -0.31380    1.53000  # c,c1,c,hc
dihedral_coeff	11 mbt    0.33880   -0.10960    0.12190    1.52020  # c,c1,c_1,o_1
dihedral_coeff	12 mbt  -17.32800   -5.79000   -3.21140    1.52020  # c,c1,c_1,o_2
dihedral_coeff	13 mbt    1.34450    3.55150   -4.92020    1.36830  # c,c_1,o_2,c
dihedral_coeff	14 mbt    1.34450    3.55150   -4.92020    1.36830  # c,o_2,c_1,c1
dihedral_coeff	15 mbt    4.26000    0.00000    0.00000    1.36830  # c,o_2,c_1,o_1
dihedral_coeff	16 mbt   -1.59450    0.22670   -0.69110    1.53000  # c1,c,c,c_1
dihedral_coeff	17 mbt   -3.50390    1.24580   -0.76100    1.53000  # c_1,c,c,hc
dihedral_coeff	18 mbt   -3.50390    1.24580   -0.76100    1.53000  # c_1,c1,c,hc
dihedral_coeff	19 mbt    0.00000    0.00000    0.00000    1.43000  # c_1,o_2,c,hc
dihedral_coeff	20 mbt  -14.26100   -0.53220   -0.48640    1.53000  # hc,c,c1,hc
dihedral_coeff	21 mbt    0.23590    0.91390    0.95940    1.52020  # hc,c1,c_1,o_1
dihedral_coeff	22 mbt  -13.76860   -2.59590    1.19340    1.52020  # hc,c1,c_1,o_2

# EndBondTorsion Coeffs

dihedral_coeff	 1 ebt   -0.07320    0.00000    0.00000   -0.07320    0.00000    0.00000    1.53000    1.53000  # c,c,c,c
dihedral_coeff	 2 ebt   -0.07320    0.00000    0.00000   -0.07320    0.00000    0.00000    1.53000    1.53000  # c,c,c,c1
dihedral_coeff	 3 ebt    0.00620   -0.00020    0.00360    0.00550    0.00600   -0.00090    1.53000    1.52020  # c,c,c,c_1
dihedral_coeff	 4 ebt    0.24860    0.24220   -0.09250    0.08140    0.05910    0.22190    1.53000    1.10100  # c,c,c,hc
dihedral_coeff	 5 ebt   -0.07320    0.00000    0.00000   -0.07320    0.00000    0.00000    1.53000    1.53000  # c,c,c1,c
dihedral_coeff	 6 ebt    0.00620   -0.00020    0.00360    0.00550    0.00600   -0.00090    1.53000    1.52020  # c,c,c1,c_1
dihedral_coeff	 7 ebt    0.24860    0.24220   -0.09250    0.08140    0.05910    0.22190    1.53000    1.10100  # c,c,c1,hc
dihedral_coeff	 8 ebt    0.26540    0.05030    0.10460   -0.28100    0.08160   -0.15220    1.53000    1.20200  # c,c,c_1,o_1
dihedral_coeff	 9 ebt    0.00000    0.00000    0.00000    0.00000    0.00000    0.00000    1.53000    1.36830  # c,c,c_1,o_2
dihedral_coeff	10 ebt    0.24860    0.24220   -0.09250    0.08140    0.05910    0.22190    1.53000    1.10100  # c,c1,c,hc
dihedral_coeff	11 ebt    0.26540    0.05030    0.10460   -0.28100    0.08160   -0.15220    1.53000    1.20200  # c,c1,c_1,o_1
dihedral_coeff	12 ebt    0.00000    0.00000    0.00000    0.00000    0.00000    0.00000    1.53000    1.36830  # c,c1,c_1,o_2
dihedral_coeff	13 ebt    0.00000    0.00000    0.00000    0.00000    0.00000    0.00000    1.52020    1.43000  # c,c_1,o_2,c
dihedral_coeff	14 ebt    0.00000    0.00000    0.00000    0.00000    0.00000    0.00000    1.43000    1.52020  # c,o_2,c_1,c1
dihedral_coeff	15 ebt    0.00000    0.00000    0.00000    0.00000    0.00000    0.00000    1.43000    1.20200  # c,o_2,c_1,o_1
dihedral_coeff	16 ebt    0.00620   -0.00020    0.00360    0.00550    0.00600   -0.00090    1.53000    1.52020  # c1,c,c,c_1
dihedral_coeff	17 ebt   -0.02040    0.36280   -0.44260   -0.00970   -0.03150   -0.07550    1.52020    1.10100  # c_1,c,c,hc
dihedral_coeff	18 ebt   -0.02040    0.36280   -0.44260   -0.00970   -0.03150   -0.07550    1.52020    1.10100  # c_1,c1,c,hc
dihedral_coeff	19 ebt    0.00000    0.00000    0.00000    0.00000    0.00000    0.00000    1.36830    1.10100  # c_1,o_2,c,hc
dihedral_coeff	20 ebt    0.21300    0.31200    0.07770    0.21300    0.31200    0.07770    1.10100    1.10100  # hc,c,c1,hc
dihedral_coeff	21 ebt    1.21430    0.28310    0.39160   -0.22980    0.03540    0.38530    1.10100    1.20200  # hc,c1,c_1,o_1
dihedral_coeff	22 ebt    0.00000    0.00000    0.00000    0.00000    0.00000    0.00000    1.10100    1.36830  # hc,c1,c_1,o_2

# AngleTorsion Coeffs

dihedral_coeff	 1 at    0.38860   -0.31390    0.13890    0.38860   -0.31390    0.13890  112.67000  112.67000  # c,c,c,c
dihedral_coeff	 2 at    0.38860   -0.31390    0.13890    0.38860   -0.31390    0.13890  112.67000  112.67000  # c,c,c,c1
dihedral_coeff	 3 at   -0.26070    0.32030   -0.22830    0.05150   -0.06740   -0.04740  112.67000  108.52950  # c,c,c,c_1
dihedral_coeff	 4 at   -0.24540    0.00000   -0.11360    0.31130    0.45160   -0.19880  112.67000  110.77000  # c,c,c,hc
dihedral_coeff	 5 at    0.38860   -0.31390    0.13890    0.38860   -0.31390    0.13890  112.67000  112.67000  # c,c,c1,c
dihedral_coeff	 6 at   -0.26070    0.32030   -0.22830    0.05150   -0.06740   -0.04740  112.67000  108.52950  # c,c,c1,c_1
dihedral_coeff	 7 at   -0.24540    0.00000   -0.11360    0.31130    0.45160   -0.19880  112.67000  110.77000  # c,c,c1,hc
dihedral_coeff	 8 at    0.08850   -1.37030   -0.54520    0.67500    0.59650    0.67250  108.52950  123.14510  # c,c,c_1,o_1
dihedral_coeff	 9 at    0.00000    0.00000    0.00000    0.00000    0.00000    0.00000  108.52950  100.31820  # c,c,c_1,o_2
dihedral_coeff	10 at   -0.24540    0.00000   -0.11360    0.31130    0.45160   -0.19880  112.67000  110.77000  # c,c1,c,hc
dihedral_coeff	11 at    0.08850   -1.37030   -0.54520    0.67500    0.59650    0.67250  108.52950  123.14510  # c,c1,c_1,o_1
dihedral_coeff	12 at    0.00000    0.00000    0.00000    0.00000    0.00000    0.00000  108.52950  100.31820  # c,c1,c_1,o_2
dihedral_coeff	13 at    0.00000    0.00000    0.00000    0.00000    0.00000    0.00000  100.31820  113.28800  # c,c_1,o_2,c
dihedral_coeff	14 at    0.00000    0.00000    0.00000    0.00000    0.00000    0.00000  113.28800  100.31820  # c,o_2,c_1,c1
dihedral_coeff	15 at    0.00000    0.00000    0.00000    0.00000    0.00000    0.00000  113.28800  120.79700  # c,o_2,c_1,o_1
dihedral_coeff	16 at   -0.26070    0.32030   -0.22830    0.05150   -0.06740   -0.04740  112.67000  108.52950  # c1,c,c,c_1
dihedral_coeff	17 at   -0.74660   -0.94480   -0.63210    0.01620    1.42110   -1.40920  108.52950  110.77000  # c_1,c,c,hc
dihedral_coeff	18 at   -0.74660   -0.94480   -0.63210    0.01620    1.42110   -1.40920  108.52950  110.77000  # c_1,c1,c,hc
dihedral_coeff	19 at    0.00000    0.00000    0.00000    0.00000    0.00000    0.00000  113.28800  107.68800  # c_1,o_2,c,hc
dihedral_coeff	20 at   -0.80850    0.55690   -0.24660   -0.80850    0.55690   -0.24660  110.77000  110.77000  # hc,c,c1,hc
dihedral_coeff	21 at    9.12990   -0.48470    0.35820   -1.49460    0.73080   -0.20830  107.73360  123.14510  # hc,c1,c_1,o_1
dihedral_coeff	22 at    0.00000    0.00000    0.00000    0.00000    0.00000    0.00000  107.73360  100.31820  # hc,c1,c_1,o_2

# AngleAngleTorsion Coeffs

dihedral_coeff	 1 aat  -22.04500  112.67000  112.67000  # c,c,c,c
dihedral_coeff	 2 aat  -22.04500  112.67000  112.67000  # c,c,c,c1
dihedral_coeff	 3 aat   -0.38010  112.67000  108.52950  # c,c,c,c_1
dihedral_coeff	 4 aat  -16.16400  112.67000  110.77000  # c,c,c,hc
dihedral_coeff	 5 aat  -22.04500  112.67000  112.67000  # c,c,c1,c
dihedral_coeff	 6 aat   -0.38010  112.67000  108.52950  # c,c,c1,c_1
dihedral_coeff	 7 aat  -16.16400  112.67000  110.77000  # c,c,c1,hc
dihedral_coeff	 8 aat   -8.01900  108.52950  123.14510  # c,c,c_1,o_1
dihedral_coeff	 9 aat    0.00000  108.52950  100.31820  # c,c,c_1,o_2
dihedral_coeff	10 aat  -16.16400  112.67000  110.77000  # c,c1,c,hc
dihedral_coeff	11 aat   -8.01900  108.52950  123.14510  # c,c1,c_1,o_1
dihedral_coeff	12 aat    0.00000  108.52950  100.31820  # c,c1,c_1,o_2
dihedral_coeff	13 aat    0.00000  100.31820  113.28800  # c,c_1,o_2,c
dihedral_coeff	14 aat    0.00000  113.28800  100.31820  # c,o_2,c_1,c1
dihedral_coeff	15 aat    0.00000  113.28800  120.79700  # c,o_2,c_1,o_1
dihedral_coeff	16 aat   -0.38010  112.67000  108.52950  # c1,c,c,c_1
dihedral_coeff	17 aat   -5.36240  108.52950  110.77000  # c_1,c,c,hc
dihedral_coeff	18 aat   -5.36240  108.52950  110.77000  # c_1,c1,c,hc
dihedral_coeff	19 aat    0.00000  113.28800  107.68800  # c_1,o_2,c,hc
dihedral_coeff	20 aat  -12.56400  110.77000  110.77000  # hc,c,c1,hc
dihedral_coeff	21 aat  -15.34960  107.73360  123.14510  # hc,c1,c_1,o_1
dihedral_coeff	22 aat    0.00000  107.73360  100.31820  # hc,c1,c_1,o_2

# BondBond13 Coeffs

dihedral_coeff	 1 bb13    0.00000    1.53000    1.53000  # c,c,c,c
dihedral_coeff	 2 bb13    0.00000    1.53000    1.53000  # c,c,c,c1
dihedral_coeff	 3 bb13    0.00000    1.53000    1.52020  # c,c,c,c_1
dihedral_coeff	 4 bb13    0.00000    1.53000    1.10100  # c,c,c,hc
dihedral_coeff	 5 bb13    0.00000    1.53000    1.53000  # c,c,c1,c
dihedral_coeff	 6 bb13    0.00000    1.53000    1.52020  # c,c,c1,c_1
dihedral_coeff	 7 bb13    0.00000    1.53000    1.10100  # c,c,c1,hc
dihedral_coeff	 8 bb13    0.00000    1.53000    1.20200  # c,c,c_1,o_1
dihedral_coeff	 9 bb13    0.00000    1.53000    1.36830  # c,c,c_1,o_2
dihedral_coeff	10 bb13    0.00000    1.53000    1.10100  # c,c1,c,hc
dihedral_coeff	11 bb13    0.00000    1.53000    1.20200  # c,c1,c_1,o_1
dihedral_coeff	12 bb13    0.00000    1.53000    1.36830  # c,c1,c_1,o_2
dihedral_coeff	13 bb13    0.00000    1.52020    1.43000  # c,c_1,o_2,c
dihedral_coeff	14 bb13    0.00000    1.43000    1.52020  # c,o_2,c_1,c1
dihedral_coeff	15 bb13    0.00000    1.43000    1.20200  # c,o_2,c_1,o_1
dihedral_coeff	16 bb13    0.00000    1.53000    1.52020  # c1,c,c,c_1
dihedral_coeff	17 bb13    0.00000    1.52020    1.10100  # c_1,c,c,hc
dihedral_coeff	18 bb13    0.00000    1.52020    1.10100  # c_1,c1,c,hc
dihedral_coeff	19 bb13    0.00000    1.36830    1.10100  # c_1,o_2,c,hc
dihedral_coeff	20 bb13    0.00000    1.10100    1.10100  # hc,c,c1,hc
dihedral_coeff	21 bb13    0.00000    1.10100    1.20200  # hc,c1,c_1,o_1
dihedral_coeff	22 bb13    0.00000    1.10100    1.36830  # hc,c1,c_1,o_2

# Improper Coeffs

improper_coeff	 1    0.00000    0.00000  # c,c,c,c
improper_coeff	 2    0.00000    0.00000  # c,c,c,c_1
improper_coeff	 3    0.00000    0.00000  # c,c,c,hc
improper_coeff	 4    0.00000    0.00000  # c,c,c1,hc
improper_coeff	 5    0.00000    0.00000  # c,c,hc,hc
improper_coeff	 6    0.00000    0.00000  # c,c1,hc,hc
improper_coeff	 7    0.00000    0.00000  # c,hc,hc,hc
improper_coeff	 8    0.00000    0.00000  # c,hc,hc,o_2
improper_coeff	 9    0.00000    0.00000  # c1,c,c,c_1
improper_coeff	10    0.00000    0.00000  # c1,c,c,hc
improper_coeff	11    0.00000    0.00000  # c1,c,c_1,hc
improper_coeff	12    0.00000    0.00000  # c1,c,hc,c_1
improper_coeff	13   46.92640    0.00000  # c_1,c,o_2,o_1
improper_coeff	14   46.92640    0.00000  # c_1,c1,o_2,o_1

# AngleAngle Coeffs

improper_coeff	 1 aa   -0.17290   -0.17290   -0.17290  112.67000  112.67000  112.67000  # c,c,c,c
improper_coeff	 2 aa    0.00000    0.00000    0.00000  112.67000  108.52950  108.52950  # c,c,c,c_1
improper_coeff	 3 aa   -1.31990   -1.31990    0.11840  112.67000  110.77000  110.77000  # c,c,c,hc
improper_coeff	 4 aa   -1.31990   -1.31990    0.11840  112.67000  110.77000  110.77000  # c,c,c1,hc
improper_coeff	 5 aa    0.27380   -0.48250    0.27380  110.77000  110.77000  107.66000  # c,c,hc,hc
improper_coeff	 6 aa    0.27380   -0.48250    0.27380  110.77000  110.77000  107.66000  # c,c1,hc,hc
improper_coeff	 7 aa   -0.31570   -0.31570   -0.31570  107.66000  107.66000  107.66000  # c,hc,hc,hc
improper_coeff	 8 aa    0.00000    0.00000    0.00000  107.66000  107.68800  107.68800  # c,hc,hc,o_2
improper_coeff	 9 aa    0.00000    0.00000    0.00000  112.67000  108.52950  108.52950  # c1,c,c,c_1
improper_coeff	10 aa   -1.31990   -1.31990    0.11840  112.67000  110.77000  110.77000  # c1,c,c,hc
improper_coeff	11 aa    2.04030   -1.82020    1.08270  108.52950  110.77000  107.73360  # c1,c,c_1,hc
improper_coeff	12 aa    1.08270   -1.82020    2.04030  110.77000  108.52950  107.73360  # c1,c,hc,c_1
improper_coeff	13 aa    0.00000    0.00000    0.00000  100.31820  123.14510  120.79700  # c_1,c,o_2,o_1
improper_coeff	14 aa    0.00000    0.00000    0.00000  100.31820  123.14510  120.79700  # c_1,c1,o_2,o_1


# --- Thermo Output ---
thermo_style custom step time temp press enthalpy etotal ke pe ebond eangle edihed eimp evdwl ecoul elong etail vol lx ly lz density pxx pyy pzz
thermo_modify flush yes
thermo 1000

# --- Trajectory ---
dump dump_npt all custom 1000 npt_cool.dump id type mol x y z ix iy iz vx vy vz

# --- Restart Checkpointing ---
restart 10000 npt_1.rst npt_2.rst

# --- Initial Velocities (optional) ---
# Velocities read from data file

# --- SHAKE Constraints ---
# SHAKE disabled

# --- NPT Thermostat + Barostat (Nose-Hoover) ---
# T_damp = 100.0 fs  (heat bath coupling)
# P_damp = 1000.0 fs  (pressure bath coupling, ~10x T_damp typical)
# Ramp: T=630.0->550.0K  P=1.0->1.0atm
timestep 1.0
fix npt_fix all npt temp 630.0 550.0 100.0 iso 1.0 1.0 1000.0

run 2000000
PPPM Kokkos initialization ...
  using 12-bit tables for long-range coulomb
  G vector (1/distance) = 0.33086664
  grid = 45 45 45
  stencil order = 5
  estimated absolute RMS force accuracy = 0.00031493133
  estimated relative force accuracy = 9.4840635e-07
  using double precision cuFFT
  3d grid and FFT values/proc = 140608 91125
Generated 15 of 15 mixed pair_coeff terms from sixthpower/sixthpower mixing rule
Neighbor list info ...
  update: every = 1 steps, delay = 0 steps, check = yes
  max neighbors/atom: 4000, page size: 100000
  master list distance cutoff = 11.5
  ghost atom cutoff = 11.5
  binsize = 11.5, bins = 4 4 4
  1 neighbor lists, perpetual/occasional/extra = 1 0 0
  (1) pair lj/class2/coul/long/kk, perpetual
      attributes: full, newton off, kokkos_device
      pair build: full/bin/kk/device
      stencil: full/bin/3d
      bin: kk/device
Per MPI rank memory allocation (min/avg/max) = 61.57 | 61.57 | 61.57 Mbytes
   Step          Time           Temp          Press         Enthalpy        TotEng         KinEng         PotEng         E_bond        E_angle        E_dihed        E_impro         E_vdwl         E_coul         E_long         E_tail         Volume           Lx             Ly             Lz          Density          Pxx            Pyy            Pzz      
         0   0              623.02156     -1650.3468      41208.36       43151.462      13963.602      29187.86       7164.7376      9796.3517     -1289.695       376.1732       804.68513      42890.086     -30554.479     -486.16837      80731.762      43.219673      43.219673      43.219673      1.0300611     -551.10841     -2643.9988     -1755.9331    
      1000   1000           637.03319      1458.8859      45022.159      43302.282      14277.641      29024.641      6979.2997      9652.2832     -1254.2199      378.20008      899.58897      42924.272     -30554.783     -485.54641      80835.176      43.238119      43.238119      43.238119      1.0287434      1367.7579      1577.4693      1431.4306    
      2000   2000           623.477        1102.6339      44106.028      42805.917      13973.81       28832.108      6934.0322      9778.1765     -1317.8682      382.39938      730.1694       42877.526     -30552.328     -485.46527      80848.687      43.240528      43.240528      43.240528      1.0285714      1568.5893     -141.47153      1880.7839    
      3000   3000           621.16777      810.18121      44091.149      43134.401      13922.053      29212.348      6948.8551      9892.0205     -1220.6655      378.3851       874.69154      42883.413     -30544.352     -484.72094      80972.836      43.26265       43.26265       43.26265       1.0269944      944.11697      1287.1474      199.27932    
      4000   4000           632.12769      1251.6841      44762.84       43285.296      14167.695      29117.601      7097.8994      9787.4653     -1313.2929      372.69144      817.78464      42898.636     -30543.583     -484.91006      80941.256      43.257025      43.257025      43.257025      1.0273951      1804.8607      1825.8982      124.29351    
      5000   5000           629.1653       982.51106      44293.422      43114.954      14101.3        29013.654      6785.3543      9824.2866     -1267.654       371.06837      929.06986      42909.295     -30537.766     -477.22886      82244.04       43.487871      43.487871      43.487871      1.0111207      1467.5911      1178.3296      301.61248    
      6000   6000           634.00752     -551.75627      42741.829      43396.993      14209.827      29187.166      7031.5495      9948.548      -1255.9773      390.75965      744.1107       42861.736     -30533.561     -482.063        81419.294      43.342016      43.342016      43.342016      1.021363       809.88791     -954.91763     -1510.2391    
      7000   7000           626.1534       1176.9137      44556.225      43168.109      14033.795      29134.314      7002.8896      9743.5591     -1233.0806      353.92936      930.17163      42878.86      -30542.016     -485.31739      80873.321      43.244919      43.244919      43.244919      1.0282581      1805.2417      2636.658      -911.15847    
      8000   8000           634.24677     -555.56543      42996.17       43656.136      14215.189      29440.946      7100.1266      9932.7391     -1100.5691      374.13173      772.39451      42901.681     -30539.557     -481.8595       81453.679      43.348117      43.348117      43.348117      1.0209318      25.938388     -755.80355     -936.83114    
      9000   9000           634.6849      -535.04673      42783.967      43430.279      14225.009      29205.27       7062.1018      9781.8338     -1269.8276      361.10953      866.20487      42940.276     -30536.429     -473.86736      82827.459      43.590459      43.590459      43.590459      1.0039986     -2098.2582      214.37576      278.74223    
     10000   10000          627.28413      489.02058      43773.435      43184.898      14059.138      29125.76       6863.3037      9932.2411     -1262.068       362.58066      863.95691      42901.555     -30535.809     -475.62037      82522.179      43.536839      43.536839      43.536839      1.0077127      1011.4957      215.90552      239.6605     
     11000   11000          627.80366     -566.30876      42562.17       43240.857      14070.782      29170.075      6904.9735      9928.6764     -1274.1003      366.74043      875.41463      42896.08      -30527.71      -477.62918      82175.107      43.475718      43.475718      43.475718      1.0119689     -317.88543     -674.64413     -706.39672    
     12000   12000          633.98626      710.17991      44204.87       43351.052      14209.351      29141.702      7090.2221      9780.2722     -1365.1509      370.4375       900.4601       42899.893     -30534.433     -476.11348      82436.711      43.521804      43.521804      43.521804      1.0087575      1170.4444     -672.56711      1632.6625    
     13000   13000          617.25364      415.38805      43544.043      43042.961      13834.327      29208.634      7025.4032      9788.3851     -1196.0453      341.57577      877.80259      42892.252     -30520.74      -474.51821      82713.852      43.570521      43.570521      43.570521      1.0053776     -955.99351      795.29503      1406.8626    
     14000   14000          639.20595     -597.61149      42713.262      43439.026      14326.338      29112.688      6848.1037      9835.5356     -1240.0379      391.6768       923.65935      42885.984     -30532.233     -471.33561      83272.361      43.668368      43.668368      43.668368      0.99863447    -1113.6156      400.47251     -1079.6914    
     15000   15000          634.34078      620.95254      44295.783      43544.644      14217.296      29327.348      6992.081       9916.1126     -1227.6321      389.49673      902.84151      42884.349     -30529.901     -473.2003       82944.218      43.610933      43.610933      43.610933      1.0025853     -151.93202      803.40672      1211.3829    
     16000   16000          633.94344      93.999882      43469.404      43355.486      14208.391      29147.095      7053.0453      9703.6457     -1150.5335      357.21965      821.70359      42894.013     -30531.998     -472.32746      83097.496      43.63778       43.63778       43.63778       1.0007359      431.43701     -11.049128     -138.38824    
     17000   17000          629.48348     -620.65473      42410.832      43156.551      14108.431      29048.12       7017.3702      9735.5475     -1270.731       332.0026       843.52698      42915.738     -30525.334     -476.41092      82385.243      43.512744      43.512744      43.512744      1.0093877     -382.22785     -313.01359     -1166.7228    
     18000   18000          625.68488     -1379.0934      41540.778      43205.31       14023.294      29182.015      6975.1303      9957.2626     -1251.0196      349.89471      803.72926      42881.014     -30533.996     -474.25132      82760.401      43.578692      43.578692      43.578692      1.0048121     -824.9684      -1116.302      -2196.0098    
     19000   19000          637.12208     -307.15953      43035.338      43403.384      14279.633      29123.752      6796.5336      9928.0739     -1221.7846      356.29314      896.6291       42896.848     -30528.842     -477.71509      82160.33       43.473112      43.473112      43.473112      1.0121509     -2596.4734      1126.7063      548.28852    
     20000   20000          626.40548     -720.11936      42379.332      43263.021      14039.445      29223.576      7074.8684      9896.2247     -1330.3664      347.83852      898.11726      42887.812     -30550.918     -466.45781      84143.15       43.820055      43.820055      43.820055      0.98829971     123.71938     -2051.147      -232.93049    
     21000   21000          622.4912       351.11021      43536.33       43114.539      13951.715      29162.824      7144.8144      9718.5283     -1350.7228      376.67053      899.00406      42904.411     -30529.882     -476.48922      82371.704      43.510361      43.510361      43.510361      1.0095536     -753.17477      654.51485      1151.9905    
     22000   22000          636.37828     -699.4091       42686.736      43542.077      14262.962      29279.114      7045.2302      9951.2074     -1354.9561      342.51757      909.06831      42917.521     -30531.474     -468.05746      83855.578      43.770078      43.770078      43.770078      0.99168895    -118.23869     -1103.7457     -876.24289    
     23000   23000          631.79088     -296.4454       42922.27       43278.269      14160.146      29118.123      7041.56        9865.087      -1300.6873      356.46991      794.88042      42887.253     -30526.441     -476.65414      82343.205      43.505342      43.505342      43.505342      1.009903      -1595.2836      997.07322     -291.12586    
     24000   24000          621.27666     -68.273865      42884.564      42967.332      13924.494      29042.838      6943.918       9843.8783     -1265.8867      353.04979      791.17732      42910.847     -30534.146     -472.17398      83124.506      43.642507      43.642507      43.642507      1.0004108     -1811.5897     -160.21434      1766.9825    
     25000   25000          630.00647      125.0025       43457.809      43306.56       14120.153      29186.407      6981.8528      9813.5598     -1352.74        346.70672      1047.9009      42884.418     -30535.291     -473.07957      82965.387      43.614642      43.614642      43.614642      1.0023294      2027.7795      1360.4627     -3013.2347    
     26000   26000          623.77403      1403.6306      44525.527      42836.935      13980.467      28856.468      6728.636       9824.4572     -1374.1252      373.25983      903.04628      42915.349     -30514.155     -475.81173      82488.991      43.531002      43.531002      43.531002      1.0081182      1095.5466      2394.3729      720.97226    
     27000   27000          625.90347     -1672.643       40989.056      43022.53       14028.193      28994.337      6989.6758      9761.237      -1336.1001      339.29973      902.26657      42869.663     -30531.705     -470.83805      83360.359      43.683745      43.683745      43.683745      0.99758029    -1852.9183     -245.30363     -2919.7071    
     28000   28000          627.36085      1677.2757      45288.939      43284.064      14060.857      29223.206      7034.8875      9906.6161     -1363.9061      380.83574      895.0515       42899.826     -30530.105     -478.87712      81960.962      43.437919      43.437919      43.437919      1.0146129      2146.4743      961.0154       1924.3374    
     29000   29000          626.3534      -567.37102      42735.85       43424.592      14038.278      29386.315      7125.4645      9833.6198     -1236.133       360.28958      893.76999      42930.857     -30521.553     -471.53871      83236.494      43.662097      43.662097      43.662097      0.99906479    -1194.1        -222.12002     -285.89304    
     30000   30000          624.74916      187.83538      43349.691      43124.005      14002.322      29121.682      7016.9671      9734.4865     -1256.7964      368.83879      889.49338      42889.16      -30520.467     -476.40847      82385.667      43.512819      43.512819      43.512819      1.0093825     -28.837231      257.54767      334.7957     
     31000   31000          633.4635      -599.35586      42800.649      43527.61       14197.634      29329.976      7091.733       9868.4366     -1213.8323      359.00252      892.14379      42867.558     -30535.066     -471.93337      83166.887      43.649923      43.649923      43.649923      0.99990097    -500.36235     -791.24579     -506.45943    
     32000   32000          632.34464      723.28143      44271.742      43396.798      14172.558      29224.241      7091.7303      9776.5719     -1231.1923      376.60897      871.09654      42869.841     -30530.416     -473.18838      82946.308      43.611299      43.611299      43.611299      1.00256        543.59429      500.07439      1126.1756    
     33000   33000          630.8382      -1827.8392      40824.335      43055.475      14138.794      28916.68       7088.6831      9579.4252     -1262.071       378.92798      788.72178      42872.698     -30529.705     -468.94103      83697.579      43.74257       43.74257       43.74257       0.993561      -3307.6194     -1095.3867     -1080.5116    
     34000   34000          627.60143     -773.10295      41957.033      42893.124      14066.249      28826.874      6910.1289      9663.2122     -1289.6143      346.26388      852.43888      42877.632     -30533.187     -472.74425      83024.234      43.624952      43.624952      43.624952      1.001619       393.79886      366.43085     -3079.5386    
     35000   35000          631.3644      -1252.2848      41848.286      43359.68       14150.588      29209.092      7100.5145      9848.837      -1346.4684      382.91302      881.79931      42870.146     -30528.65      -474.2774       82755.849      43.577893      43.577893      43.577893      1.0048673     -290.93738     -2275.5381     -1190.3789    
     36000   36000          632.40136      2437.3197      46688.294      43708.433      14173.829      29534.604      7106.1519      9941.4343     -1241.1302      350.12372      971.36793      42926.892     -30520.236     -468.19135      83831.599      43.765905      43.765905      43.765905      0.99197262     2256.7387      2860.1799      2195.0403    
     37000   37000          632.4092       1295.6736      44740.605      43161.449      14174.005      28987.445      6850.8736      9679.552      -1280.1536      382.08469      962.97516      42924.175     -30532.062     -469.65374      83570.567      43.720432      43.720432      43.720432      0.99507104     1174.1144      1485.13        1227.7765    
     38000   38000          628.67635     -487.96871      42687.712      43280.849      14090.341      29190.508      7117.4786      9885.3066     -1383.329       330.3225       879.50944      42887.006     -30525.787     -470.91611      83346.542      43.681331      43.681331      43.681331      0.99774566     92.979176     -1576.276       19.390719    
     39000   39000          627.41572     -33.093989      42977.278      43017.288      14062.087      28955.201      6866.4252      9744.6332     -1287.3613      394.04507      886.82025      42883.16      -30532.521     -473.46642      82897.599      43.60276       43.60276       43.60276       1.0031491      593.67509     -605.48264     -87.474415    
     40000   40000          626.39385     -1422.5572      41459.194      43172.184      14039.184      29133          6906.153       9765.1269     -1194.4479      363.48098      931.46464      42886.028     -30524.806     -475.3593       82567.501      43.544808      43.544808      43.544808      1.0071596     -2101.8832     -45.764105     -2120.0243    
     41000   41000          628.22499      1103.1063      44582.919      43252.302      14080.225      29172.077      6964.3689      9821.1703     -1326.4665      359.62755      982.85214      42891.055     -30520.53      -474.53838      82710.337      43.569903      43.569903      43.569903      1.0054203     -604.7138       1332.6397      2581.3931    
     42000   42000          625.08139      1018.4976      44507.469      43264.265      14009.768      29254.496      6980.5433      9818.8654     -1285.6972      354.5256       1047.6483      42874.69      -30536.079     -468.94788      83696.358      43.742358      43.742358      43.742358      0.99357551     865.38394      1423.3732      766.73566    
     43000   43000          636.21988      376.4807       43699.166      43244.112      14259.412      28984.7        6824.7512      9804.509      -1323.5959      326.80277      977.09522      42905.365     -30530.228     -473.57199      82879.119      43.59952       43.59952       43.59952       1.0033728      891.3057       445.72039     -207.58401    
     44000   44000          636.0379       162.47199      43750.003      43552.688      14255.333      29297.354      7222.8938      9784.1509     -1339.0694      359.08929      926.369        42889.558     -30545.637     -471.32937      83273.463      43.66856       43.66856       43.66856       0.99862126     1927.3731     -540.88903     -899.06811    
     45000   45000          626.68403     -1120.3222      41651.821      43011.003      14045.688      28965.315      7005.2701      9624.4589     -1331.9431      337.05333      990.34274      42880.604     -30540.471     -471.81583      83187.605      43.653547      43.653547      43.653547      0.99965194    -1194.8023     -1226.635      -939.52932    
     46000   46000          635.45395      427.01582      43749.643      43233.587      14242.246      28991.341      6948.1408      9737.4627     -1332.572       360.17437      942.40784      42880.863     -30545.136     -473.6457       82866.221      43.597258      43.597258      43.597258      1.0035289     -235.51989     -149.33132      1665.8986    
     47000   47000          620.32425     -568.92937      42315.667      43011.581      13903.148      29108.433      6943.3788      9795.6668     -1330.5703      383.42682      924.59699      42926.144     -30534.21      -467.96117      83872.833      43.77308       43.77308       43.77308       0.99148493     35.399658     -982.52637     -759.66142    
     48000   48000          629.15567     -92.614636      43373.558      43486.251      14101.084      29385.167      7003.7087      9972.1511     -1317.6665      400.80438      990.56334      42869.6       -30533.994     -470.42207      83434.073      43.696617      43.696617      43.696617      0.99669892     1389.187       523.3723      -2190.4032    
     49000   49000          623.52642     -592.63543      42164.13       42877.249      13974.917      28902.332      6994.2053      9764.0557     -1259.0184      349.9435       741.45631      42856.319     -30544.629     -475.69974      82508.411      43.534418      43.534418      43.534418      1.0078809     -990.46026     -1445.6898      658.24376    
     50000   50000          635.09866     -1070.9894      42035.603      43340.785      14234.283      29106.502      7156.1802      9671.8925     -1258.1049      330.16341      864.14141      42876.474     -30534.245     -469.70073      83562.206      43.718974      43.718974      43.718974      0.99517061    -1471.3774     -1887.0164      145.42574    
     51000   51000          625.47044      484.21498      43655.361      43066.234      14018.488      29047.746      6987.9097      9676.7976     -1256.2439      352.00858      913.08702      42923.33      -30549.143     -470.47444      83424.785      43.694995      43.694995      43.694995      0.99680989     322.65822     -794.95709      1924.9438    
     52000   52000          641.63617      359.5518       43973.084      43538.47       14380.806      29157.665      6922.8474      9937.4639     -1354.9339      377.31969      956.29642      42866.317     -30547.646     -473.54967      82883.026      43.600205      43.600205      43.600205      1.0033255     -1299.9527      2527.1722     -148.56412    
     53000   53000          622.68822     -1131.2034      41810.154      43189.812      13956.131      29233.681      7270.7788      9663.6161     -1218.0913      357.70312      864.43005      42839.778     -30544.535     -469.32801      83628.567      43.730545      43.730545      43.730545      0.99438091    -285.36994      299.29923     -3407.5394    
     54000   54000          632.85487      759.40159      44259.794      43337.271      14183.993      29153.278      6930.9466      9743.194      -1193.6401      365.79287      986.69731      42868.275     -30547.988     -471.19552      83297.119      43.672695      43.672695      43.672695      0.99833766     788.25592      1726.7653     -236.81648    
     55000   55000          625.47951     -1038.9438      41825.299      43077.039      14018.691      29058.347      6910.8968      9677.9317     -1283.1812      406.07431      997.60956      42880.333     -30531.316     -475.1          82612.565      43.552729      43.552729      43.552729      1.0066102     -571.03991     -461.40422     -2084.3873    
     56000   56000          627.40322      545.15974      43892.035      43227.21       14061.807      29165.403      6978.4937      9776.3273     -1265.4886      360.70229      940.53469      42914.357     -30539.523     -469.37896      83619.49       43.728962      43.728962      43.728962      0.99448885    -452.48978      1872.9835      214.98548    
     57000   57000          627.46724     -1566.4997      41397.727      43292.249      14063.242      29229.007      6951.55        9930.2074     -1307.3061      399.73814      895.70018      42900.635     -30541.518     -473.30115      82926.546      43.607835      43.607835      43.607835      1.0027989     -1380.8077     -1165.4795     -2153.2117    
     58000   58000          630.79462     -429.57718      42622.672      43142.466      14137.817      29004.649      7016.1866      9851.1736     -1311.9255      363.33799      742.6854       42881.896     -30538.705     -473.06035      82968.757      43.615233      43.615233      43.615233      1.0022887     -147.66242      926.72715     -2067.7963    
     59000   59000          635.2618      -1662.4918      41391.519      43391.953      14237.939      29154.014      7132.6052      9919.2108     -1381.6066      386.09024      757.07837      42878.735     -30538.099     -475.71006      82506.621      43.534103      43.534103      43.534103      1.0079028     -1254.768      -2131.0828     -1601.6247    
     60000   60000          616.02321     -544.16421      42251.92       42912.261      13806.75       29105.511      6968.6807      9836.3857     -1277.2856      367.66535      853.5128       42878.073     -30521.522     -471.70333      83207.446      43.657018      43.657018      43.657018      0.99941357    -1715.8778      506.00694     -422.62179    
     61000   61000          647.18008      1023.3309      44970.22       43733.478      14505.06       29228.418      6953.0739      9950.0056     -1373.2889      366.32439      956.12927      42912.907     -30536.733     -473.63535      82868.032      43.597576      43.597576      43.597576      1.003507       1288.5397     -369.16876      2150.6217    
     62000   62000          626.58967      61.535543      43073.768      42999.66       14043.573      28956.087      6981.4741      9671.9607     -1343.9235      367.36892      902.39346      42913.615     -30536.801     -475.30301      82577.279      43.546527      43.546527      43.546527      1.0070403     -712.1754       1372.3594     -475.57736    
     63000   63000          643.05147     -495.99883      42811.443      43406.627      14412.527      28994.1        6984.1214      9822.4765     -1338.5541      389.51075      785.91826      42883.468     -30532.84      -477.01979      82280.086      43.494223      43.494223      43.494223      1.0106777      1448.8997     -2331.8019     -605.09433    
     64000   64000          624.57045     -1162.3699      41586.985      42992.87       13998.317      28994.553      6870.7678      9845.2484     -1285.0652      356.084        829.83245      42903.788     -30526.103     -473.26199      82933.406      43.609037      43.609037      43.609037      1.002716      -1734.4534     -768.48283     -984.17346    
     65000   65000          629.26736      445.10059      43771.448      43233.739      14103.587      29130.152      6964.2208      9883.2592     -1310.4432      328.41848      916.44096      42891.204     -30542.948     -473.82529      82834.813      43.591749      43.591749      43.591749      1.0039094     -1179.3209      1712.217       802.40559    
     66000   66000          626.68964     -111.53449      42751.762      42885.1        14045.814      28839.286      6878.4486      9636.0479     -1285.834       377.9177       843.54605      42923.357     -30534.197     -478.81009      81972.436      43.439946      43.439946      43.439946      1.0144709      620.38328     -631.2287      -323.75806    
     67000   67000          635.56006      885.20181      44597.504      43542.127      14244.624      29297.503      7007.4239      9850.4038     -1178.7917      389.11531      852.23579      42905.087     -30527.971     -480.11067      81750.378      43.400686      43.400686      43.400686      1.0172265      1041.2083     -1490.2128      3104.61      
     68000   68000          628.61204      598.78788      43755.885      43034.466      14088.9        28945.566      6833.8004      9805.2865     -1328.7249      425.69329      867.86215      42883.061     -30541.412     -475.10818      82611.141      43.552478      43.552478      43.552478      1.0066276     -554.56096      707.49221      1643.4324    
     69000   69000          622.62744      178.62027      43087.536      42869.967      13954.769      28915.199      6891.5748      9728.8341     -1356.3725      362.76155      946.92612      42888.041     -30546.567     -469.93959      83519.733      43.711566      43.711566      43.711566      0.99567668     118.55998     -217.1473       634.44811    
     70000   70000          625.63742     -293.24217      42719.138      43079.893      14022.231      29057.663      6874.9368      9881.4509     -1396.6119      410.54379      921.31469      42906.546     -30540.518     -465.28673      84354.929      43.856788      43.856788      43.856788      0.98581852     1030.8464     -1229.477      -681.09602    
     71000   71000          640.84577     -916.23987      42388.934      43499.405      14363.091      29136.314      6998.1124      9743.4819     -1226.9152      400.15747      851.17349      42905.965     -30535.661     -472.29019      83104.053      43.638927      43.638927      43.638927      1.000657      -1350.8261     -340.18182     -1057.7117    
     72000   72000          623.89509     -52.762849      42890.368      42953.913      13983.18       28970.733      6959.0869      9828.3153     -1415.5169      363.04771      892.33727      42887.56      -30544.098     -475.28443      82580.506      43.547094      43.547094      43.547094      1.007001       1111.9935      1080.5396     -2350.8216    
     73000   73000          628.55112     -1263.3186      41744.394      43278.81       14087.535      29191.276      7023.3646      9838.9582     -1328.5367      362.6823       941.63604      42896.878     -30543.707     -471.27764      83282.605      43.670158      43.670158      43.670158      0.99851164    -114.59328      63.162577     -3738.5252    
     74000   74000          631.32976     -135.13542      43102.758      43265.563      14149.811      29115.751      6776.0274      9830.6843     -1311.9546      416.49432      996.40319      42937.169     -30529.072     -475.12617      82608.013      43.551929      43.551929      43.551929      1.0066657     -1150.2534      1403.4091     -658.56192    
     75000   75000          613.98876     -276.61766      42428.13       42767.377      13761.153      29006.224      6879.677       9763.8593     -1333.0826      412.85613      943.6832       42888.121     -30548.89      -466.73638      84092.929      43.811336      43.811336      43.811336      0.98888993    -1408.1942     -733.40753      1311.7488    
     76000   76000          630.44824     -908.47939      41982.806      43082.552      14130.054      28952.498      6998.3518      9729.391      -1376.0077      337.83266      916.7531       42891.374     -30545.197     -472.85711      83004.419      43.621481      43.621481      43.621481      1.0018581      989.42965     -1617.0928     -2097.7751    
     77000   77000          623.36669      336.29052      43182.237      42770.945      13971.337      28799.607      6681.1089      9840.4939     -1384.1054      386.72206      910.41166      42914.312     -30549.336     -468.0271       83861.019      43.771024      43.771024      43.771024      0.99162462     1896.8318      315.19884     -1203.159     
     78000   78000          615.38201     -317.67504      42554.228      42938.808      13792.379      29146.429      6867.8093      9969.2803     -1352.4279      392.57108      920.15374      42893.538     -30544.495     -472.82827      83009.481      43.622368      43.622368      43.622368      1.001797      -488.36886     -690.89         226.23373    
     79000   79000          617.64122      611.12547      43487.674      42742.299      13843.014      28899.285      6888.2413      9781.0409     -1371.1561      354.59912      901.51049      42889.742     -30544.693     -469.31312      83631.221      43.731007      43.731007      43.731007      0.99434936     689.54535      861.9643       281.86675    
     80000   80000          623.16036      98.134457      43075.584      42955.314      13966.713      28988.601      6972.6514      9860.5271     -1375.2187      346.76357      854.52677      42869.52      -30540.169     -467.0567       84035.256      43.801318      43.801318      43.801318      0.9895686     -36.866228     -880.21273      1211.4823    
     81000   81000          630.54218      1025.6299      44217.401      42978.244      14132.16       28846.084      6846.1045      9781.1259     -1436.0169      374.51316      884.97984      42909.482     -30514.104     -473.77402      82843.777      43.593322      43.593322      43.593322      1.0038008      714.5521      -191.89904      2554.2366    
     82000   82000          632.78569     -1659.0528      41122.786      43117.357      14182.443      28934.914      7054.7776      9701.1091     -1421.7697      381.48308      867.57251      42891.516     -30539.774     -476.12161      82435.303      43.521556      43.521556      43.521556      1.0087747     -2959.9552     -1653.8183     -363.38489    
     83000   83000          631.45009      504.9222       43839.479      43225.272      14152.508      29072.764      7007.5595      9881.3327     -1393.051       355.96979      889.49583      42875.214     -30543.757     -470.56172      83409.312      43.692294      43.692294      43.692294      0.9969948      779.76363     -428.1639       1163.1669    
     84000   84000          622.04454     -246.39073      42502.374      42801.219      13941.704      28859.514      6795.5785      9952.4129     -1364.6807      354.32157      716.70522      42931.578     -30526.402     -471.94003      83165.714      43.649718      43.649718      43.649718      0.99991507    -877.29206      939.4174      -801.29755    
     85000   85000          635.25258     -334.3931       42821.589      43227.423      14237.732      28989.691      6977.7819      9850.5503     -1404.1657      374.77912      876.2553       42853.905     -30539.415     -471.64527      83217.688      43.658809      43.658809      43.658809      0.99929057    -1095.5979      1484.5686     -1392.1501    
     86000   86000          627.33489      679.59676      44049.752      43224.411      14060.275      29164.135      7102.4373      9787.5043     -1328.8329      359.45857      894.97735      42883.351     -30534.76      -471.32976      83273.396      43.668549      43.668549      43.668549      0.99862207     1126.1017      897.80622      14.882333    
     87000   87000          630.47639     -685.94655      42345.283      43179.04       14130.685      29048.356      7035.7416      9829.7211     -1437.8229      373.09331      884.18371      42891.761     -30528.322     -470.93142      83343.833      43.680858      43.680858      43.680858      0.9977781     -369.40859     -277.63716     -1410.7939    
     88000   88000          620.88692      260.62239      43020.291      42705.457      13915.759      28789.698      6967.9137      9787.8313     -1475.6891      343.22128      833.43811      42875.036     -30542.053     -473.84528      82831.318      43.591136      43.591136      43.591136      1.0039518     -898.26581      1455.1043      225.02871    
     89000   89000          630.67444     -563.99094      42516.095      43207.095      14135.124      29071.971      7136.2396      9748.779      -1385.9181      362.7443       899.65541      42854.52      -30544.05      -467.19822      84009.801      43.796895      43.796895      43.796895      0.98986844     295.79121     -2514.0505      526.2865     
     90000   90000          625.89318      802.09556      43458.33       42493.569      14027.963      28465.606      6578.9539      9610.9394     -1356.3924      330.75596      931.66649      42904.39      -30534.708     -475.89714      82474.186      43.528398      43.528398      43.528398      1.0082991      880.97807      1952.7138     -427.40517    
     91000   91000          629.25331     -193.36588      42830.363      43066.791      14103.272      28963.518      7061.9356      9639.7002     -1348.9827      368.01978      874.79682      42907.164     -30539.115     -468.15413      83838.263      43.767065      43.767065      43.767065      0.99189377     1766.4149      1432.965      -3779.4776    
     92000   92000          621.41216      1714.2526      44948.98       42860.234      13927.531      28932.703      6824.7559      9941.6282     -1384.9476      368.00548      834.69549      42895.42      -30546.855     -469.7818       83547.785      43.716459      43.716459      43.716459      0.99534237     843.11253      2035.3301      2264.3151    
     93000   93000          623.54925     -1577.2902      41065.492      42975.773      13975.429      29000.344      6921.0293      9769.3706     -1334.6103      359.93897      927.17628      42899.757     -30542.318     -472.63026      83044.257      43.628458      43.628458      43.628458      1.0013775     -1062.7463     -2484.9749     -1184.1493    
     94000   94000          629.1293      -30.959115      42957.52       42995.103      14100.493      28894.61       6878.5486      9847.4895     -1350.5176      320.64737      835.89838      42894.943     -30532.4       -471.53056      83237.933      43.662349      43.662349      43.662349      0.99904752     1333.9032      1878.1707     -3304.9512    
     95000   95000          625.37544     -1025.1882      41973.643      43223.818      14016.359      29207.459      7045.5424      9974.2531     -1372.4214      350.17587      860.93335      42884.966     -30535.991     -469.39662      83616.345      43.728414      43.728414      43.728414      0.99452626    -193.03605     -562.58684     -2319.9417    
     96000   96000          630.14559     -1260.1802      41333.182      42854.778      14123.271      28731.507      6929.3968      9644.6238     -1402.4076      381.33523      815.85847      42893.063     -30530.362     -474.06774      82792.449      43.584317      43.584317      43.584317      1.0044231     -2720.9264     -621.93751     -437.67662    
     97000   97000          633.19417     -1010.1712      41730.444      42936.942      14191.598      28745.344      6880.9596      9650.0574     -1398.3057      369.51478      928.89558      42854.941     -30540.719     -479.26481      81894.661      43.426203      43.426203      43.426203      1.0154343      179.91359      467.22619     -3677.6535    
     98000   98000          628.86494     -341.62194      42815.638      43228.623      14094.568      29134.055      7165.5034      9731.9672     -1355.6064      363.97851      902.54229      42869.309     -30543.639     -473.49848      82891.986      43.601776      43.601776      43.601776      1.003217       156.4707       1026.6957     -2208.0322    
     99000   99000          621.76208      58.21115       42898.273      42827.769      13935.374      28892.395      6947.8016      9800.6236     -1398.7304      324.91362      894.46358      42873.011     -30549.688     -472.60354      83048.954      43.629281      43.629281      43.629281      1.0013209     -673.17969      1000.5897     -152.77657    
    100000   100000         628.23755      534.80444      43748.867      43100.457      14080.507      29019.95       6720.4916      9922.4076     -1335.7617      419.84102      920.60782      42905.605     -30533.241     -472.11953      83134.093      43.644185      43.644185      43.644185      1.0002954      504.65027      28.403957      1071.3591    
    101000   101000         619.95629     -526.18595      42264.025      42901.048      13894.901      29006.147      6957.3078      9728.3658     -1381.8022      396.32959      955.41363      42898.257     -30547.726     -472.81499      83011.812      43.622776      43.622776      43.622776      1.0017689     -836.65533     -311.02318     -430.87932    
    102000   102000         626.88398      6.3285979      43118.149      43110.513      14050.169      29060.344      6992.5872      9909.8307     -1362.3179      338.17881      824.69664      42894.267     -30536.899     -474.39         82736.206      43.574445      43.574445      43.574445      1.0051059      156.00323      1246.5433     -1383.5607    
    103000   103000         620.28785      419.04892      43533.108      43028.9        13902.332      29126.568      6937.1013      9874.7533     -1341.4478      381.77594      929.57554      42891.56      -30546.75      -475.73138      82502.923      43.533453      43.533453      43.533453      1.0079479     -707.95647      655.48269      1309.6205    
    104000   104000         614.86901      1251.09        43870.691      42381.902      13780.881      28601.021      6732.3597      9657.5452     -1345.5356      406.94307      805.31522      42897.927     -30553.535     -481.019        81596.006      43.37335       43.37335       43.37335       1.019151       1004.5378      2436.6372      312.09506    
    105000   105000         625.00643     -520.77229      42038.207      42666.441      14008.088      28658.352      6776.1515      9777.3822     -1352.6521      343.15899      772.22211      42895.364     -30553.274     -474.49692      82717.564      43.571172      43.571172      43.571172      1.0053324     -1376.1731      189.37331     -375.5171     
    106000   106000         638.36772      1213.4808      44541.834      43083.458      14307.551      28775.907      6832.3534      9709.8238     -1381.1128      363.8091       923.57018      42878.555     -30551.091     -476.28905      82406.323      43.516455      43.516455      43.516455      1.0091295      1309.0821      1760.4492      570.91121    
    107000   107000         625.66702      905.03777      43876.315      42774.137      14022.894      28751.243      6800.7501      9728.7804     -1333.7384      348.49881      857.08974      42902.567     -30552.704     -470.02623      83504.338      43.70888       43.70888       43.70888       0.99586025     1254.5187      2508.9585     -1048.3639    
    108000   108000         628.00429      1893.7272      45409.171      43131.587      14075.278      29056.309      6875.2953      10007.398     -1369.2443      338.57779      859.93729      42888.998     -30544.653     -475.93761      82467.174      43.527164      43.527164      43.527164      1.0083849      2132.9405      2741.054       807.18727    
    109000   109000         630.17566      1253.8209      44296.252      42791.262      14123.945      28667.317      6710.2298      9746.0135     -1405.5322      395.9794       880.79492      42890.719     -30550.887     -476.87994      82304.215      43.498474      43.498474      43.498474      1.0103814     -1193.444       1872.825       3082.0816    
    110000   110000         627.94004     -1300.6266      41148.344      42705.934      14073.838      28632.095      6909.3656      9622.3441     -1348.9754      371.15592      793.47924      42839.091     -30554.366     -477.97665      82115.369      43.46518       43.46518       43.46518       1.0127051     -1410.8857     -1069.5406     -1421.4535    
    111000   111000         628.82604      31.346958      43063.048      43025.49       14093.696      28931.794      6898.8077      9767.4195     -1302.5011      356.39376      874.17732      42878.614     -30541.117     -477.75029      82154.277      43.472044      43.472044      43.472044      1.0122255      816.69904     -421.64572     -301.01245    
    112000   112000         622.07168      1721.8555      44815.121      42766.304      13942.313      28823.991      6787.629       9691.9024     -1277.048       388.69198      871.4497       42893.334     -30531.968     -481.06145      81588.807      43.372074      43.372074      43.372074      1.0192409     -553.21894      2967.8515      2750.9338    
    113000   113000         639.18078     -382.40044      42938.068      43401.447      14325.774      29075.673      6974.8709      9857.9076     -1341.3903      419.17505      829.22907      42874.324     -30538.443     -472.37711      83088.762      43.636251      43.636251      43.636251      1.0008411     -2233.2554      48.232575      1037.8215    
    114000   114000         627.94228     -23.74914       42794.413      42822.684      14073.889      28748.795      6899.9554      9677.6448     -1373.6145      344.47313      856.90457      42884.726     -30541.294     -480.85736      81623.434      43.378209      43.378209      43.378209      1.0188085     -1076.2695      259.25066      745.77147    
    115000   115000         624.7424      -224.66883      42598.56       42870.858      14002.171      28868.688      6909.4047      9812.4586     -1386.5965      379.19775      829.63491      42866.156     -30541.568     -472.28537      83104.902      43.639076      43.639076      43.639076      1.0006468     -268.71358     -692.4031       287.1102     
    116000   116000         620.92324     -1578.7298      40936.947      42813.478      13916.573      28896.905      7033.5175      9758.4459     -1365.3084      370.80544      774.85349      42865.987     -30541.396     -481.56966      81502.703      43.356812      43.356812      43.356812      1.0203177     -1536.1085     -2528.1589     -671.92196    
    117000   117000         632.54124      1296.9162      44410.209      42855.379      14176.964      28678.415      6810.912       9619.3214     -1411.6322      402.07977      915.83133      42886.3       -30544.398     -477.45898      82204.4        43.480883      43.480883      43.480883      1.0116083      1071.5944      1742.3219      1076.8324    
    118000   118000         623.03498      930.81539      43900.904      42779.494      13963.903      28815.591      6844.327       9691.9925     -1368.5444      373.62484      895.68729      42911.569     -30533.065     -475.12303      82608.56       43.552025      43.552025      43.552025      1.006659       1029.405       381.39935      1381.6418    
    119000   119000         625.13266      1310.3197      44508.817      42937.31       14010.918      28926.393      6906.1843      9865.6419     -1367.3324      370.28001      803.17613      42889.545     -30541.102     -477.27445      82236.184      43.486486      43.486486      43.486486      1.0112173      1185.1415      1676.135       1069.6827    
    120000   120000         627.10864     -2150.8865      40407.467      42990.065      14055.205      28934.861      6967.1433      9943.5824     -1420.5068      376.80197      759.76955      42851.701     -30543.631     -476.72471      82331.014      43.503195      43.503195      43.503195      1.0100525     -1778.1397     -3426.4391     -1248.0808    
    121000   121000         625.58167      473.92055      43197.209      42626.9        14020.981      28605.92       6835.2496      9653.5333     -1500.6519      373.321        910.47182      42878.593     -30544.597     -475.66698      82514.092      43.535417      43.535417      43.535417      1.0078115     -556.77706      1898.5344      80.004293    
    122000   122000         626.7554      -311.91481      42583.548      42957.25       14047.288      28909.962      6856.252       9781.2093     -1290.0848      396.38217      846.59255      42863.066     -30543.456     -477.7689       82151.076      43.471479      43.471479      43.471479      1.0122649     -802.66674     -489.37834      356.30064    
    123000   123000         620.99595     -1320.2721      41351.295      42940.541      13918.203      29022.338      6934.4245      9929.8382     -1389.3567      359.13467      877.54303      42858.253     -30547.498     -475.53164      82537.576      43.539547      43.539547      43.539547      1.0075247     -2204.1855      199.8705      -1956.5012    
    124000   124000         624.09845      860.99587      43833.633      42813.409      13987.738      28825.671      6824.2775      9776.3899     -1394.4396      357.81747      890.91196      42901.982     -30531.269     -483.07272      81249.111      43.311797      43.311797      43.311797      1.0235023     -853.79288      1057.6308      2379.1497    
    125000   125000         613.80763      96.00337       42734.074      42617.897      13757.093      28860.804      6994.6155      9725.4946     -1406.2999      395.92959      805.84471      42877.503     -30532.283     -473.01165      82977.299      43.61673       43.61673       43.61673       1.0021856     -536.81854      780.47154      44.357107    
    126000   126000         625.18208      85.426628      43070.861      42967.869      14012.025      28955.843      6989.2248      9736.6051     -1354.1241      405.00921      817.01988      42902.925     -30540.816     -474.7811       82668.054      43.562478      43.562478      43.562478      1.0059345     -672.58261     -1518.1013      2446.9638    
    127000   127000         613.74987     -539.88233      42036.184      42683.916      13755.798      28928.117      6985.5531      9634.7414     -1324.633       350.36472      922.3283       42904.05      -30544.286     -477.1014       82266.012      43.491743      43.491743      43.491743      1.0108506     -2496.035       1067.78       -191.39204    
    128000   128000         633.15594      154.06163      43208.388      43022.711      14190.741      28831.97       6978.5369      9762.4814     -1442.4145      386.0221       811.74428      42871.106     -30535.506     -474.94506      82639.515      43.557464      43.557464      43.557464      1.0062819      542.02085     -911.91253      832.07656    
    129000   129000         619.2966      -1591.3032      40880.077      42785.922      13880.116      28905.807      6993.099       9834.0881     -1390.5205      419.68545      718.4373       42875.662     -30544.645     -477.93875      82121.881      43.466329      43.466329      43.466329      1.0126248      1176.2568     -3855.4593     -2094.7071    
    130000   130000         622.03143      331.19472      43347.254      42949.943      13941.41       29008.532      6975.2908      9782.3976     -1310.5856      369.98314      828.97207      42893.829     -30531.355     -477.15432      82256.887      43.490135      43.490135      43.490135      1.0109628      1516.4462     -106.01801     -416.84404    
    131000   131000         629.03412      1151.1692      44425.923      43046.457      14098.36       28948.097      6975.9104      9793.9663     -1429.3485      375.8904       859.68786      42912.101     -30540.11      -477.6781       82166.692      43.474234      43.474234      43.474234      1.0120725      1047.4488      1227.9403      1178.1185    
    132000   132000         609.86088     -1879.944       40314.585      42590.367      13668.636      28921.731      6933.0261      9931.608      -1405.3581      359.31909      755.03551      42878.619     -30530.518     -472.84772      83006.066      43.621769      43.621769      43.621769      1.0018382     -1508.5104     -1624.907      -2506.4145    
    133000   133000         620.61215     -405.26916      42248.459      42735.484      13909.601      28825.883      6775.7774      9878.4249     -1378.6503      378.64157      824.25568      42888.031     -30540.597     -476.32117      82400.767      43.515477      43.515477      43.515477      1.0091975     -615.626       -1139.968       539.78658    
    134000   134000         635.21067      1033.1733      44505.048      43280.963      14236.793      29044.17       7046.8592      9812.6934     -1427.4399      381.18271      906.25374      42873.097     -30548.476     -483.13533      81238.582      43.309926      43.309926      43.309926      1.0236349     -133.05655      2766.1027      466.47372    
    135000   135000         626.98349      550.82458      43540.216      42881.195      14052.4        28828.795      7007.3308      9734.6847     -1355.4147      356.36244      771.0159       42864.576     -30549.76      -478.43335      82036.984      43.451346      43.451346      43.451346      1.0136727      3106.7765     -121.57016     -1332.7326    
    136000   136000         626.05627     -2212.7203      40300.106      42957.053      14031.618      28925.435      7009.6827      9732.2974     -1294.0938      397.36558      767.54871      42868.024     -30555.39      -476.706        82334.247      43.503765      43.503765      43.503765      1.0100129     -2783.9296     -898.27636     -2955.9549    
    137000   137000         624.02269     -1423.1641      41286.983      42988.609      13986.04       29002.569      6907.7036      9764.2119     -1280.5706      390.7577       871.32317      42891.163     -30542.02      -478.73803      81984.775      43.442126      43.442126      43.442126      1.0143182     -728.07036     -2951.8616     -589.56041    
    138000   138000         629.23055      55.978513      42855.81       42788.453      14102.762      28685.691      6845.2025      9712.1571     -1333.3073      351.88734      789.0255       42867.863     -30547.137     -475.71645      82505.512      43.533908      43.533908      43.533908      1.0079163     -235.57088      687.71909     -284.21267    
    139000   139000         623.99401     -57.246303      42638.13       42706.927      13985.397      28721.53       6698.3712      9876.6113     -1459.0318      341.65893      902.00975      42903.033     -30541.122     -476.30083      82404.284      43.516096      43.516096      43.516096      1.0091545     -384.51424     -984.53653      1197.3119    
    140000   140000         626.19361      220.26505      43214.913      42948.49       14034.696      28913.793      6973.7755      9695.0371     -1383.7824      354.02854      924.84374      42898.465     -30548.574     -473.23947      82937.353      43.609729      43.609729      43.609729      1.0026682      1188.7086     -774.75342      246.84001    
    141000   141000         617.10605     -611.74189      42046.127      42776.917      13831.019      28945.897      6912.8891      9862.7365     -1341.7803      378.05847      809.43925      42865.975     -30541.421     -479.16231      81912.18       43.4293        43.4293        43.4293        1.0152172     -2173.168      -1370.1143      1708.0566    
    142000   142000         627.11161     -1110.7698      41854.689      43204.352      14055.271      29149.081      7038.0796      9921.7078     -1334.9876      369.8105       838.35012      42864.005     -30547.884     -471.0922       83315.388      43.675888      43.675888      43.675888      0.99811874     863.35539     -3352.0283     -843.63639    
    143000   143000         624.97605      287.41534      43100.448      42756.096      14007.408      28748.688      6834.3942      9708.5204     -1369.4296      359.23605      875.14907      42883.695     -30542.877     -477.76491      82151.762      43.4716        43.4716        43.4716        1.0122564      2053.9831      582.62846     -1774.3656    
    144000   144000         624.7191       438.63834      43505.783      42978.255      14001.649      28976.606      7049.8599      9804.4094     -1412.6219      361.23102      865.82107      42861.721     -30553.815     -475.95695      82463.821      43.526574      43.526574      43.526574      1.0084259     -1409.425       1198.7339      1526.6061    
    145000   145000         616.98939     -227.27884      42213.098      42484.529      13828.405      28656.124      6799.2043      9771.3882     -1413.9318      339.97415      861.92182      42848.468     -30550.901     -479.29985      81888.673      43.425145      43.425145      43.425145      1.0155086     -1169.818      -317.31707      805.29859    
    146000   146000         628.12913     -663.08359      42236.146      43041.184      14078.076      28963.108      7118.5669      9789.0606     -1482.4741      338.71048      863.78637      42884.931     -30549.473     -471.47536      83247.678      43.664053      43.664053      43.664053      0.99893057    -1404.317      -1098.7635      513.82981    
    147000   147000         614.43243     -821.77145      41580.651      42574.043      13771.096      28802.946      6868.4144      9873.9213     -1401.7506      339.6944       787.2691       42882.858     -30547.46      -473.51901      82888.391      43.601146      43.601146      43.601146      1.0032605     -889.2045      -1018.7188     -557.39107    
    148000   148000         619.38538     -43.232534      42790.367      42842.453      13882.105      28960.347      6925.597       9802.2623     -1405.5094      339.91041      953.19949      42894.95      -30550.062     -475.11251      82610.389      43.552346      43.552346      43.552346      1.0066367      420.85824      2015.4308     -2565.9866    
    149000   149000         631.7481       2310.2967      45859.7        43072.583      14159.187      28913.396      6816.2707      9813.1688     -1416.8028      337.0551       1030.7427      42886.723     -30553.761     -474.48194      82720.176      43.571631      43.571631      43.571631      1.0053007      2500.0386      1862.0691      2568.7823    
    150000   150000         629.02744     -309.38635      42644.108      43023.067      14098.21       28924.857      7032.6733      9671.1499     -1361.1069      396.2936       888.69977      42849.385     -30552.238     -467.32249      83987.46       43.793012      43.793012      43.793012      0.99013175     308.60227     -279.62942     -957.13189    
[...]
   1955000   1955000        553.54097     -399.82874      38792.397      39251.8        12406.354      26845.446      6195.6072      8998.6353     -1460.9188      347.44284      449.89537      42869.871     -30555.086     -498.18076      78785.117      42.869465      42.869465      42.869465      1.0555122     -921.33712      1303.5161     -1581.6652    
   1956000   1956000        549.28202      852.26752      40106.275      39117.415      12310.899      26806.516      6171.8793      9035.4083     -1546.4142      350.65414      497.15219      42854.669     -30556.833     -493.34197      79557.856      43.009166      43.009166      43.009166      1.0452601      776.284        0.22555629     1780.293     
   1957000   1957000        553.27422      612.00801      39881.296      39174.862      12400.375      26774.487      6139.4912      8925.9958     -1475.2056      329.96148      526.10194      42882.659     -30554.516     -495.89832      79147.736      42.935135      42.935135      42.935135      1.0506763     -11.95182       38.260252      1809.7156    
   1958000   1958000        553.16283      1348.3672      40680.702      39121.527      12397.879      26723.648      6097.0938      9072.7863     -1634.3181      339.95571      525.73271      42878.006     -30555.608     -495.01738      79288.588      42.960589      42.960589      42.960589      1.0488098      1962.8408     -85.168524      2167.4293    
   1959000   1959000        561.3194       96.555806      39821.433      39709.797      12580.689      27129.107      6272.4382      9249.5997     -1575.1047      323.84102      534.75741      42882.945     -30559.369     -495.08542      79277.692      42.958621      42.958621      42.958621      1.048954      -33.72476       1118.895      -795.50279    
   1960000   1960000        549.24956     -603.61796      38377.604      39074.048      12310.172      26763.876      6221.0627      8984.515      -1503.906       310.65951      448.60151      42869.961     -30567.018     -496.11551      79113.087      42.928869      42.928869      42.928869      1.0511365      1103.909      -697.34527     -2217.4176    
   1961000   1961000        552.73552     -1132.0351      37931.783      39245.403      12388.301      26857.101      6193.5225      9010.4483     -1520.6592      333.08685      542.15242      42864.05      -30565.5       -493.28414      79567.182      43.010847      43.010847      43.010847      1.0451376     -3377.8973      319.97716     -338.18514    
   1962000   1962000        535.94873     -474.72476      38199.558      38745.198      12012.064      26733.135      6073.7382      9130.896      -1485.1562      327.62723      407.19642      42846.629     -30567.796     -498.01532      78811.288      42.874211      42.874211      42.874211      1.0551617     -2625.7279      490.66892      710.8847     
   1963000   1963000        552.96659      68.403298      39209.888      39130.929      12393.48       26737.448      6188.3213      9073.2562     -1584.9676      328.51763      446.40031      42846.675     -30560.755     -495.88458      79149.93       42.935532      42.935532      42.935532      1.0506472     -1343.2911      1817.4235     -268.92255    
   1964000   1964000        542.46245     -668.47673      38062.708      38827.193      12158.054      26669.139      6221.737       8919.8991     -1545.5935      314.02326      454.47961      42870.854     -30566.26      -500.52284      78416.461      42.802494      42.802494      42.802494      1.0604744     -1233.1849      486.97316     -1259.2184    
   1965000   1965000        551.12082      577.0245       39651.324      38984.508      12352.111      26632.397      6027.2672      9007.8758     -1514.0766      303.25737      475.47307      42887.939     -30555.339     -495.33084      79238.413      42.951525      42.951525      42.951525      1.049474       122.83386      2208.3378     -600.09818    
   1966000   1966000        557.29455     -329.13198      38791.35       39172.165      12490.481      26681.684      6057.1723      8913.6109     -1471.586       339.44022      519.24432      42879.596     -30555.794     -494.72349      79335.69       42.969094      42.969094      42.969094      1.0481871      883.10463     -550.10652     -1320.394     
   1967000   1967000        550.71172     -162.47204      38737.068      38921.433      12342.942      26578.491      6090.4601      8949.0724     -1543.6746      324.65963      468.99576      42852.132     -30563.155     -504.4379       77807.851      42.691473      42.691473      42.691473      1.0687694      1142.3707     -775.4619      -854.32494    
   1968000   1968000        545.9551       1282.326       40539.154      39058.604      12236.334      26822.27       6247.3636      8903.9334     -1511.6323      318.68232      533.88624      42889.183     -30559.146     -495.77233      79167.85       42.938772      42.938772      42.938772      1.0504094      2028.3614      56.056223      1762.5603    
   1969000   1969000        551.4641       1463.3014      40811.188      39126.476      12359.805      26766.671      6097.9971      8994.1785     -1519.326       344.17104      548.53619      42868.873     -30567.759     -497.18189      78943.401      42.898155      42.898155      42.898155      1.0533958      761.87562      786.5731       2841.4555    
   1970000   1970000        554.35464      1536.7044      40791.348      39018.049      12424.59       26593.459      6141.498       8874.0874     -1548.5539      293.0057       539.32421      42851.635     -30557.537     -496.03871      79125.336      42.931084      42.931084      42.931084      1.0509738      2999.6929      928.13206      682.28813    
   1971000   1971000        557.00856      313.45569      39708.218      39344.378      12484.072      26860.306      6218.5998      8956.7368     -1458.5362      310.80437      517.81852      42869.874     -30554.991     -493.14277      79589.992      43.014956      43.014956      43.014956      1.044838       1174.9829     -1133.5219      898.90614    
   1972000   1972000        549.03681      1023.7265      40081.905      38912.37       12305.403      26606.967      6073.9779      9035.8653     -1519.5743      332.88585      386.17921      42861.605     -30563.972     -501.04622      78334.548      42.787586      42.787586      42.787586      1.0615833      999.15274      85.355595      1986.6711    
   1973000   1973000        551.0987       374.36955      39665.052      39229.359      12351.616      26877.743      6182.4326      9055.4529     -1561.335       318.5575       580.79152      42866.847     -30565.003     -491.84349      79800.241      43.0528        43.0528        43.0528        1.0420852     -593.88115      531.85825      1185.1316    
   1974000   1974000        556.53363      2270.3782      41567.674      38960.86       12473.427      26487.432      6007.6605      8804.3998     -1528.9711      337.20416      548.15363      42876.527     -30557.542     -498.5345       78729.214      42.859323      42.859323      42.859323      1.0562617      1852.0933      2049.7741      2909.2673    
   1975000   1975000        551.22053     -293.64578      38636.347      38975.795      12354.346      26621.449      6064.5523      8987.3101     -1516.5802      316.68937      452.48015      42884.984     -30567.987     -495.17273      79263.713      42.956096      42.956096      42.956096      1.049139      -113.8933      -88.948172     -678.09586    
   1976000   1976000        553.60505      1166.4162      40495.905      39152.562      12407.79       26744.772      6109.2004      8932.6348     -1572.0049      344.655        606.20333      42884.538     -30560.455     -497.02002      78969.111      42.902811      42.902811      42.902811      1.0530529      1113.4735      373.35946      2012.4156    
   1977000   1977000        542.9399      -2066.5432      36601.628      38991.094      12168.755      26822.339      6072.4751      9185.3088     -1513.1797      326.1464       481.9794       42826.512     -30556.903     -495.0519       79283.059      42.95959       42.95959       42.95959       1.048883      -2588.3021     -2263.9823     -1347.3453    
   1978000   1978000        546.45033      950.20545      39978.626      38885.339      12247.433      26637.905      6066.3973      9034.8901     -1554.3592      364.63707      433.90367      42857.343     -30564.906     -497.49685      78893.423      42.8891        42.8891        42.8891        1.0540632      375.53056      1024.07        1451.0158    
   1979000   1979000        557.58857      703.57195      40081.507      39263.506      12497.071      26766.435      6146.0249      8986.4721     -1565.4666      336.41944      581.9806       42848.822     -30567.818     -492.33617      79720.385      43.038434      43.038434      43.038434      1.0431291     -823.45894      671.6003       2262.5745    
   1980000   1980000        552.6207      -878.24091      37994.8        39010.591      12385.728      26624.863      5963.4372      9096.3491     -1560.3031      335.57199      484.95479      42875.163     -30570.31      -494.89863      79307.613      42.964025      42.964025      42.964025      1.0485582     -2238.83       -641.33924      245.44654    
   1981000   1981000        546.06447      670.93875      39647.884      38873.698      12238.785      26634.913      6067.6324      8978.5415     -1553.9718      308.97328      512.84622      42879.038     -30558.146     -496.07222      79119.991      42.930117      42.930117      42.930117      1.0510447      788.01441     -331.3379       1556.1398    
   1982000   1982000        560.58767      746.79136      40076.103      39213.046      12564.289      26648.756      6177.4771      8830.8355     -1585.0953      346.24725      558.13769      42874.364     -30553.21      -495.29811      79243.649      42.952471      42.952471      42.952471      1.0494046      1576.7064      533.0383       130.62941    
   1983000   1983000        550.48678     -963.11547      37795.644      38916.717      12337.901      26578.816      6110.271       8868.9237     -1554.1227      321.0725       497.15198      42898.513     -30562.994     -491.75845      79814.042      43.055282      43.055282      43.055282      1.041905      -1209.0355     -1287.7131     -392.59778    
   1984000   1984000        541.32668      114.32742      39117.435      38986.258      12132.598      26853.66       6143.047       9060.1748     -1588.8243      310.96575      623.16604      42870.244     -30565.113     -498.88379      78674.091      42.849318      42.849318      42.849318      1.0570017     -942.91615      754.53356      531.36485    
   1985000   1985000        549.26556      567.73385      39888.673      39226.997      12310.53       26916.467      6429.4463      8920.1722     -1519.9911      329.77621      462.23938      42854.828     -30560.004     -491.14147      79914.304      43.073303      43.073303      43.073303      1.0405978      853.86383      212.12913      637.20857    
   1986000   1986000        546.72011     -350.87386      38487.281      38891.708      12253.48       26638.228      6260.4418      8968.9179     -1568.7173      332.38067      349.10803      42855.346     -30559.249     -496.61258      79033.901      42.914541      42.914541      42.914541      1.0521896      415.31806     -487.21663     -980.72301    
   1987000   1987000        549.76911     -1523.4004      37355.312      39115.682      12321.816      26793.866      6242.1925      9024.3902     -1507.3172      328.78961      392.02935      42873.585     -30559.804     -495.35564      79234.445      42.950808      42.950808      42.950808      1.0495265     -1840.1424     -1091.4273     -1638.6313    
   1988000   1988000        555.45584     -1010.0264      38112.053      39274.472      12449.271      26825.201      6125.2514      9102.4475     -1518.6024      351.9792       450.32534      42870.4       -30556.6       -497.36682      78914.048      42.892837      42.892837      42.892837      1.0537877     -1064.6016     -693.9988      -1271.4788    
   1989000   1989000        548.92475     -1908.2735      36709.294      38911.708      12302.892      26608.816      6193.744       8935.3013     -1568.0369      328.54241      378.30144      42898.114     -30557.15      -495.9624       79137.51       42.933286      42.933286      42.933286      1.0508121     -2941.2        -2394.7277     -388.89275    
   1990000   1990000        552.79046      45.865302      39248.606      39195.769      12389.533      26806.236      6142.8142      9108.456      -1595.0601      324.01064      500.30472      42879.586     -30553.876     -496.88188      78991.065      42.906787      42.906787      42.906787      1.0527602      1572.3247     -1262.2775     -172.45134    
   1991000   1991000        553.25368      1469.4082      40600.698      38920.606      12399.915      26520.691      6110.737       8981.9857     -1587.8777      312.42106      417.77229      42849.807     -30564.154     -500.62932      78399.781      42.799459      42.799459      42.799459      1.0607         2403.1972      720.22185      1284.8057    
   1992000   1992000        550.82775     -1453.4025      37400.763      39082.069      12345.543      26736.526      6330.8041      8839.8899     -1521.1086      320.50718      452.67256      42872.047     -30558.285     -494.81866      79320.431      42.966339      42.966339      42.966339      1.0483888     -2555.5247     -586.78489     -1217.8979    
   1993000   1993000        547.23059     -1021.9832      37662.558      38843.306      12264.921      26578.385      6085.3424      8996.6526     -1594.7149      324.97374      449.58389      42870.297     -30553.75      -495.44262      79220.534      42.948294      42.948294      42.948294      1.0497108     -2506.8891      106.0975      -665.15798    
   1994000   1994000        547.41403      516.44201      39759.878      39166.784      12269.032      26897.752      6151.7171      9040.741      -1450.9679      329.5946       507.34046      42883.397     -30564.07      -498.43127      78745.519      42.862281      42.862281      42.862281      1.056043       1226.3017     -1500.035       1823.0593    
   1995000   1995000        557.38616      186.90626      39472.801      39255.451      12492.535      26762.917      6044.0269      9044.8507     -1532.5291      357.18829      520.79219      42885.39      -30556.802     -492.23493      79736.782      43.041385      43.041385      43.041385      1.0429146     -61.004113      1493.904      -872.18111    
   1996000   1996000        552.7651      -41.554403      39081.584      39129.327      12388.964      26740.363      6145.0288      9005.0831     -1468.8265      279.11785      469.84333      42869.734     -30559.618     -498.21296      78780.024      42.868541      42.868541      42.868541      1.0555804     -1963.4425      1598.5071      240.27221    
   1997000   1997000        543.39492     -717.9731       37890.846      38721.434      12178.953      26542.481      5997.2724      8936.3178     -1483.9748      312.96619      432.46069      42900.057     -30552.618     -494.80004      79323.416      42.966878      42.966878      42.966878      1.0483493     -583.78817     -674.36797     -895.76315    
   1998000   1998000        546.06365     -36.159821      39006.722      39048.728      12238.767      26809.962      6194.9571      9017.3305     -1628.7531      317.70759      613.78176      42849.987     -30555.049     -492.7475       79653.838      43.026455      43.026455      43.026455      1.0440005      98.676167     -1580.6132      1373.4576    
   1999000   1999000        551.89691      74.565674      39290.396      39203.822      12369.506      26834.316      6006.2276      9113.293      -1503.0596      332.42951      556.74594      42890.18      -30561.501     -493.01038      79611.364      43.018806      43.018806      43.018806      1.0445575      544.60675      1497.7978     -1818.7075    
   2000000   2000000        550.83252     -1480.3317      37252.574      38957.836      12345.65       26612.186      6149.5335      8887.5865     -1525.1821      361.54016      423.67317      42867.978     -30552.943     -496.90694      78987.081      42.906065      42.906065      42.906065      1.0528133     -1613.8473     -2602.8562     -224.29154    
Loop time of 17777.3 on 1 procs for 2000000 steps with 7520 atoms

Performance: 9.720 ns/day, 2.469 hours/ns, 112.503 timesteps/s, 846.021 katom-step/s
99.9% CPU use with 1 MPI tasks x 1 OpenMP threads

MPI task timing breakdown:
Section |  min time  |  avg time  |  max time  |%varavg| %total
---------------------------------------------------------------
Pair    | 4415.9     | 4415.9     | 4415.9     |   0.0 | 24.84
Bond    | 2445.6     | 2445.6     | 2445.6     |   0.0 | 13.76
Kspace  | 6955.7     | 6955.7     | 6955.7     |   0.0 | 39.13
Neigh   | 1775.5     | 1775.5     | 1775.5     |   0.0 |  9.99
Comm    | 179.59     | 179.59     | 179.59     |   0.0 |  1.01
Output  | 37.208     | 37.208     | 37.208     |   0.0 |  0.21
Modify  | 1461.4     | 1461.4     | 1461.4     |   0.0 |  8.22
Other   |            | 506.5      |            |       |  2.85

Nlocal:           7520 ave        7520 max        7520 min
Histogram: 1 0 0 0 0 0 0 0 0 0
Nghost:          19731 ave       19731 max       19731 min
Histogram: 1 0 0 0 0 0 0 0 0 0
Neighs:              0 ave           0 max           0 min
Histogram: 1 0 0 0 0 0 0 0 0 0
FullNghs:  4.56141e+06 ave 4.56141e+06 max 4.56141e+06 min
Histogram: 1 0 0 0 0 0 0 0 0 0

Total # of neighbors = 4561406
Ave neighs/atom = 606.56995
Ave special neighs/atom = 5.7207447
Neighbor list builds = 114930
Dangerous builds = 0

# --- Cleanup ---
unfix npt_fix

undump dump_npt

# --- Write Output ---
write_dump all custom npt_cool_last.dump id type mol x y z xu yu zu vx vy vz modify sort id
write_data /home/arz2/PolyJarvis/data/PMMA3/lammps/equil/npt_cool/npt_cool_out.data
System init for write_data ...
PPPM Kokkos initialization ...
  using 12-bit tables for long-range coulomb
  G vector (1/distance) = 0.33140802
  grid = 45 45 45
  stencil order = 5
  estimated absolute RMS force accuracy = 0.00030821124
  estimated relative force accuracy = 9.2816901e-07
  using double precision cuFFT
  3d grid and FFT values/proc = 140608 91125
Generated 15 of 15 mixed pair_coeff terms from sixthpower/sixthpower mixing rule

print "STAGE COMPLETE: NPT T=630.0->550.0K P=1.0->1.0atm steps=2000000"
STAGE COMPLETE: NPT T=630.0->550.0K P=1.0->1.0atm steps=2000000
quit
       |       |  2.85

Nlocal:           7520 ave        7520 max        7520 min
Histogram: 1 0 0 0 0 0 0 0 0 0
Nghost:          19731 ave       19731 max       19731 min
Histogram: 1 0 0 0 0 0 0 0 0 0
Neighs:              0 ave           0 max           0 min
Histogram: 1 0 0 0 0 0 0 0 0 0
FullNghs:  4.56141e+06 ave 4.56141e+06 max 4.56141e+06 min
Histogram: 1 0 0 0 0 0 0 0 0 0

Total # of neighbors = 4561406
Ave neighs/atom = 606.56995
Ave special neighs/atom = 5.7207447
Neighbor list builds = 114930
Dangerous builds = 0
System init for write_data ...
PPPM Kokkos initialization ...
  using 12-bit tables for long-range coulomb
  G vector (1/distance) = 0.33140802
  grid = 45 45 45
  stencil order = 5
  estimated absolute RMS force accuracy = 0.00030821124
  estimated relative force accuracy = 9.2816901e-07
  using double precision cuFFT
  3d grid and FFT values/proc = 140608 91125
Generated 15 of 15 mixed pair_coeff terms from sixthpower/sixthpower mixing rule
STAGE COMPLETE: NPT T=630.0->550.0K P=1.0->1.0atm steps=2000000
