units real
atom_style full
boundary p p p

# --- Force Field Styles ---
pair_style lj/class2/coul/long 9.5 9.5
kspace_style pppm 1e-6
dielectric 1.000000
bond_style class2
angle_style class2
dihedral_style class2
improper_style class2
special_bonds lj/coul 0 0 1
pair_modify mix sixthpower tail yes
neighbor 2.0 bin
neigh_modify delay 0 every 1 check yes
neigh_modify one 4000
# KOKKOS: package loaded via -pk kokkos on the command line

read_data /home/alexzhao/PolyJarvis/data/PVC2/lammps/equil/npt_production/npt_production_out.data
Reading data file ...
  orthogonal box = (5.5539948 5.5539948 5.5539948) to (42.8315 42.8315 42.8315)
  1 by 1 by 1 MPI processor grid
  reading atoms ...
  3620 atoms
  reading velocities ...
  3620 velocities
  scanning bonds ...
  4 = max bonds/atom
  scanning angles ...
  12 = max angles/atom
  scanning dihedrals ...
  24 = max dihedrals/atom
  scanning impropers ...
  10 = max impropers/atom
  orthogonal box = (5.5539948 5.5539948 5.5539948) to (42.8315 42.8315 42.8315)
  1 by 1 by 1 MPI processor grid
  reading bonds ...
  3610 bonds
  reading angles ...
  7200 angles
  reading dihedrals ...
  10710 dihedrals
  reading impropers ...
  4800 impropers
Finding 1-2 1-3 1-4 neighbors ...
  special bond factors lj:    0        0        1       
  special bond factors coul:  0        0        1       
     4 = max # of 1-2 neighbors
     6 = max # of 1-3 neighbors
    10 = max # of special neighbors
  special bonds CPU = 0.003 seconds
  read_data CPU = 0.244 seconds
include /home/alexzhao/PolyJarvis/data/PVC2/lammps/equil/emc_build.params
# LAMMPS parameters created by EMC v9.4.4, build Jul 31 2025 20:33:44

# Variables

variable	seed		index	482917
variable	ntotal		index	3620
variable	fshape		index	1
variable	output		index	emc_build
variable	field		index	pcff/pcff
variable	location1	index	~/emc/field/
variable	nav		index	0.6022141179
variable	temperature	index	300
variable	radius		index	5
variable	nrelax		index	100
variable	weight_nonbond	index	0.0001
variable	weight_bond	index	0.0001
variable	weight_focus	index	1
variable	cutoff		index	9.5
variable	charge_cutoff	index	9.5
variable	kappa		index	4
variable	density1	index	0.55
variable	lprevious	index	0
variable	lphase		index	48.3854950346
variable	f_poly		index	10
variable	chem_repeat	index	*CC(Cl)*
variable	chem_cap	index	*[H]
variable	lg_repeat	index	6
variable	lg_cap		index	1
variable	norm_poly	index	100
variable	l_poly		index	362
variable	mg_repeat	index	50.48806
variable	mg_cap		index	1.00797
variable	m_poly		index	3031.29954
variable	n_poly		index	10
variable	mtotal		index	37519.6854
variable	nphase1		index	3620
variable	mphase1		index	37519.6854
variable	vphase1		index	113277.998291
variable	lbox		index	48.3854950346
variable	lphase1		index	48.3854950346
variable	lxx		index	48.3854950346
variable	lyy		index	48.3854950346
variable	lzz		index	48.3854950346
variable	lzy		index	0
variable	lzx		index	0
variable	lyx		index	0
variable	vtotal		index	113277.998291
variable	nl_poly		index	10

# Types

variable	type_c		index	1
variable	type_c1		index	2
variable	type_cl		index	3
variable	type_hc		index	4

variable	type_bond_c_c	index	1
variable	type_bond_c_c1	index	2
variable	type_bond_c_cl	index	3
variable	type_bond_c_hc	index	4
variable	type_bond_c1_cl	index	5
variable	type_bond_c1_hc	index	6

variable	type_angle_c_c_c1 index	1
variable	type_angle_c_c_cl index	2
variable	type_angle_c_c_hc index	3
variable	type_angle_c_c1_c index	4
variable	type_angle_c_c1_cl index	5
variable	type_angle_c_c1_hc index	6
variable	type_angle_c1_c_c1 index	7
variable	type_angle_c1_c_hc index	8
variable	type_angle_cl_c_hc index	9
variable	type_angle_cl_c1_hc index	10
variable	type_angle_hc_c_hc index	11

# Clusters

variable	n0_poly		index	1
variable	n1_poly		index	10
variable	nl_poly		index	10

# Flags

variable	flag_charged	index	1

# Masses

mass		1    12.01115  # c
mass		2    12.01115  # c1
mass		3    35.45300  # cl
mass		4     1.00797  # hc

# Potentials

pair_modify	mix sixthpower tail yes
special_bonds	lj/coul 0 0 1

# Pair Coeffs

pair_coeff	 1  1    0.05400    4.01000  # c,c
pair_coeff	 2  2    0.05400    4.01000  # c1,c1
pair_coeff	 3  3    0.22470    3.92000  # cl,cl
pair_coeff	 4  4    0.02000    2.99500  # hc,hc

# Bond Coeffs

bond_coeff	1    1.53000  299.67000 -501.77000  679.81000  # c,c
bond_coeff	2    1.53000  299.67000 -501.77000  679.81000  # c,c1
bond_coeff	3    1.79000  194.31900    0.00000    0.00000  # c,cl
bond_coeff	4    1.10100  345.00000 -691.89000  844.60000  # c,hc
bond_coeff	5    1.79000  194.31900    0.00000    0.00000  # c1,cl
bond_coeff	6    1.10100  345.00000 -691.89000  844.60000  # c1,hc

# Angle Coeffs

angle_coeff	 1  112.67000   39.51600   -7.44300   -9.55830  # c,c,c1
angle_coeff	 2  107.00000   61.17450    0.00000    0.00000  # c,c,cl
angle_coeff	 3  110.77000   41.45300  -10.60400    5.12900  # c,c,hc
angle_coeff	 4  112.67000   39.51600   -7.44300   -9.55830  # c,c1,c
angle_coeff	 5  107.00000   61.17450    0.00000    0.00000  # c,c1,cl
angle_coeff	 6  110.77000   41.45300  -10.60400    5.12900  # c,c1,hc
angle_coeff	 7  112.67000   39.51600   -7.44300   -9.55830  # c1,c,c1
angle_coeff	 8  110.77000   41.45300  -10.60400    5.12900  # c1,c,hc
angle_coeff	 9  107.99680   51.09870    0.00000    0.00000  # cl,c,hc
angle_coeff	10  107.99680   51.09870    0.00000    0.00000  # cl,c1,hc
angle_coeff	11  107.66000   39.64100  -12.92100   -2.43180  # hc,c,hc

# BondBond Coeffs

angle_coeff	 1 bb    0.00000    1.53000    1.53000  # c,c,c1
angle_coeff	 2 bb    0.00000    1.53000    1.79000  # c,c,cl
angle_coeff	 3 bb    3.38720    1.53000    1.10100  # c,c,hc
angle_coeff	 4 bb    0.00000    1.53000    1.53000  # c,c1,c
angle_coeff	 5 bb    0.00000    1.53000    1.79000  # c,c1,cl
angle_coeff	 6 bb    3.38720    1.53000    1.10100  # c,c1,hc
angle_coeff	 7 bb    0.00000    1.53000    1.53000  # c1,c,c1
angle_coeff	 8 bb    3.38720    1.53000    1.10100  # c1,c,hc
angle_coeff	 9 bb    0.00000    1.79000    1.10100  # cl,c,hc
angle_coeff	10 bb    0.00000    1.79000    1.10100  # cl,c1,hc
angle_coeff	11 bb    5.33160    1.10100    1.10100  # hc,c,hc

# BondAngle Coeffs

angle_coeff	 1 ba    8.01600    8.01600    1.53000    1.53000  # c,c,c1
angle_coeff	 2 ba    0.00000    0.00000    1.53000    1.79000  # c,c,cl
angle_coeff	 3 ba   20.75400   11.42100    1.53000    1.10100  # c,c,hc
angle_coeff	 4 ba    8.01600    8.01600    1.53000    1.53000  # c,c1,c
angle_coeff	 5 ba    0.00000    0.00000    1.53000    1.79000  # c,c1,cl
angle_coeff	 6 ba   20.75400   11.42100    1.53000    1.10100  # c,c1,hc
angle_coeff	 7 ba    8.01600    8.01600    1.53000    1.53000  # c1,c,c1
angle_coeff	 8 ba   20.75400   11.42100    1.53000    1.10100  # c1,c,hc
angle_coeff	 9 ba    0.00000    0.00000    1.79000    1.10100  # cl,c,hc
angle_coeff	10 ba    0.00000    0.00000    1.79000    1.10100  # cl,c1,hc
angle_coeff	11 ba   18.10300   18.10300    1.10100    1.10100  # hc,c,hc

# Dihedral Coeffs

dihedral_coeff	 1    0.00000    0.00000    0.05140    0.00000   -0.14300    0.00000  # c,c,c1,c
dihedral_coeff	 2    0.00000    0.00000    0.00000    0.00000    0.15000    0.00000  # c,c,c1,cl
dihedral_coeff	 3    0.00000    0.00000    0.03160    0.00000   -0.16810    0.00000  # c,c,c1,hc
dihedral_coeff	 4    0.00000    0.00000    0.05140    0.00000   -0.14300    0.00000  # c,c1,c,c1
dihedral_coeff	 5    0.00000    0.00000    0.03160    0.00000   -0.16810    0.00000  # c,c1,c,hc
dihedral_coeff	 6    0.00000    0.00000    0.00000    0.00000    0.15000    0.00000  # c1,c,c,cl
dihedral_coeff	 7    0.00000    0.00000    0.03160    0.00000   -0.16810    0.00000  # c1,c,c,hc
dihedral_coeff	 8    0.00000    0.00000    0.00000    0.00000    0.15000    0.00000  # c1,c,c1,cl
dihedral_coeff	 9    0.00000    0.00000    0.03160    0.00000   -0.16810    0.00000  # c1,c,c1,hc
dihedral_coeff	10    0.00000    0.00000    0.00000    0.00000   -0.10000    0.00000  # cl,c,c,hc
dihedral_coeff	11    0.00000    0.00000    0.00000    0.00000   -0.10000    0.00000  # cl,c1,c,hc
dihedral_coeff	12   -0.14320    0.00000    0.06170    0.00000   -0.10830    0.00000  # hc,c,c,hc
dihedral_coeff	13   -0.14320    0.00000    0.06170    0.00000   -0.10830    0.00000  # hc,c,c1,hc

# MiddleBondTorsion Coeffs

dihedral_coeff	 1 mbt  -17.78700   -7.18770    0.00000    1.53000  # c,c,c1,c
dihedral_coeff	 2 mbt    0.00000    0.00000    0.00000    1.53000  # c,c,c1,cl
dihedral_coeff	 3 mbt  -14.87900   -3.65810   -0.31380    1.53000  # c,c,c1,hc
dihedral_coeff	 4 mbt  -17.78700   -7.18770    0.00000    1.53000  # c,c1,c,c1
dihedral_coeff	 5 mbt  -14.87900   -3.65810   -0.31380    1.53000  # c,c1,c,hc
dihedral_coeff	 6 mbt    0.00000    0.00000    0.00000    1.53000  # c1,c,c,cl
dihedral_coeff	 7 mbt  -14.87900   -3.65810   -0.31380    1.53000  # c1,c,c,hc
dihedral_coeff	 8 mbt    0.00000    0.00000    0.00000    1.53000  # c1,c,c1,cl
dihedral_coeff	 9 mbt  -14.87900   -3.65810   -0.31380    1.53000  # c1,c,c1,hc
dihedral_coeff	10 mbt    0.00000    0.00000    0.00000    1.53000  # cl,c,c,hc
dihedral_coeff	11 mbt    0.00000    0.00000    0.00000    1.53000  # cl,c1,c,hc
dihedral_coeff	12 mbt  -14.26100   -0.53220   -0.48640    1.53000  # hc,c,c,hc
dihedral_coeff	13 mbt  -14.26100   -0.53220   -0.48640    1.53000  # hc,c,c1,hc

# EndBondTorsion Coeffs

dihedral_coeff	 1 ebt   -0.07320    0.00000    0.00000   -0.07320    0.00000    0.00000    1.53000    1.53000  # c,c,c1,c
dihedral_coeff	 2 ebt    0.00000    0.00000    0.00000    0.00000    0.00000    0.00000    1.53000    1.79000  # c,c,c1,cl
dihedral_coeff	 3 ebt    0.24860    0.24220   -0.09250    0.08140    0.05910    0.22190    1.53000    1.10100  # c,c,c1,hc
dihedral_coeff	 4 ebt   -0.07320    0.00000    0.00000   -0.07320    0.00000    0.00000    1.53000    1.53000  # c,c1,c,c1
dihedral_coeff	 5 ebt    0.24860    0.24220   -0.09250    0.08140    0.05910    0.22190    1.53000    1.10100  # c,c1,c,hc
dihedral_coeff	 6 ebt    0.00000    0.00000    0.00000    0.00000    0.00000    0.00000    1.53000    1.79000  # c1,c,c,cl
dihedral_coeff	 7 ebt    0.24860    0.24220   -0.09250    0.08140    0.05910    0.22190    1.53000    1.10100  # c1,c,c,hc
dihedral_coeff	 8 ebt    0.00000    0.00000    0.00000    0.00000    0.00000    0.00000    1.53000    1.79000  # c1,c,c1,cl
dihedral_coeff	 9 ebt    0.24860    0.24220   -0.09250    0.08140    0.05910    0.22190    1.53000    1.10100  # c1,c,c1,hc
dihedral_coeff	10 ebt    0.00000    0.00000    0.00000    0.00000    0.00000    0.00000    1.79000    1.10100  # cl,c,c,hc
dihedral_coeff	11 ebt    0.00000    0.00000    0.00000    0.00000    0.00000    0.00000    1.79000    1.10100  # cl,c1,c,hc
dihedral_coeff	12 ebt    0.21300    0.31200    0.07770    0.21300    0.31200    0.07770    1.10100    1.10100  # hc,c,c,hc
dihedral_coeff	13 ebt    0.21300    0.31200    0.07770    0.21300    0.31200    0.07770    1.10100    1.10100  # hc,c,c1,hc

# AngleTorsion Coeffs

dihedral_coeff	 1 at    0.38860   -0.31390    0.13890    0.38860   -0.31390    0.13890  112.67000  112.67000  # c,c,c1,c
dihedral_coeff	 2 at    0.00000    0.00000    0.00000    0.00000    0.00000    0.00000  112.67000  107.00000  # c,c,c1,cl
dihedral_coeff	 3 at   -0.24540    0.00000   -0.11360    0.31130    0.45160   -0.19880  112.67000  110.77000  # c,c,c1,hc
dihedral_coeff	 4 at    0.38860   -0.31390    0.13890    0.38860   -0.31390    0.13890  112.67000  112.67000  # c,c1,c,c1
dihedral_coeff	 5 at   -0.24540    0.00000   -0.11360    0.31130    0.45160   -0.19880  112.67000  110.77000  # c,c1,c,hc
dihedral_coeff	 6 at    0.00000    0.00000    0.00000    0.00000    0.00000    0.00000  112.67000  107.00000  # c1,c,c,cl
dihedral_coeff	 7 at   -0.24540    0.00000   -0.11360    0.31130    0.45160   -0.19880  112.67000  110.77000  # c1,c,c,hc
dihedral_coeff	 8 at    0.00000    0.00000    0.00000    0.00000    0.00000    0.00000  112.67000  107.00000  # c1,c,c1,cl
dihedral_coeff	 9 at   -0.24540    0.00000   -0.11360    0.31130    0.45160   -0.19880  112.67000  110.77000  # c1,c,c1,hc
dihedral_coeff	10 at    0.00000    0.00000    0.00000    0.00000    0.00000    0.00000  107.00000  110.77000  # cl,c,c,hc
dihedral_coeff	11 at    0.00000    0.00000    0.00000    0.00000    0.00000    0.00000  107.00000  110.77000  # cl,c1,c,hc
dihedral_coeff	12 at   -0.80850    0.55690   -0.24660   -0.80850    0.55690   -0.24660  110.77000  110.77000  # hc,c,c,hc
dihedral_coeff	13 at   -0.80850    0.55690   -0.24660   -0.80850    0.55690   -0.24660  110.77000  110.77000  # hc,c,c1,hc

# AngleAngleTorsion Coeffs

dihedral_coeff	 1 aat  -22.04500  112.67000  112.67000  # c,c,c1,c
dihedral_coeff	 2 aat    0.00000  112.67000  107.00000  # c,c,c1,cl
dihedral_coeff	 3 aat  -16.16400  112.67000  110.77000  # c,c,c1,hc
dihedral_coeff	 4 aat  -22.04500  112.67000  112.67000  # c,c1,c,c1
dihedral_coeff	 5 aat  -16.16400  112.67000  110.77000  # c,c1,c,hc
dihedral_coeff	 6 aat    0.00000  112.67000  107.00000  # c1,c,c,cl
dihedral_coeff	 7 aat  -16.16400  112.67000  110.77000  # c1,c,c,hc
dihedral_coeff	 8 aat    0.00000  112.67000  107.00000  # c1,c,c1,cl
dihedral_coeff	 9 aat  -16.16400  112.67000  110.77000  # c1,c,c1,hc
dihedral_coeff	10 aat    0.00000  107.00000  110.77000  # cl,c,c,hc
dihedral_coeff	11 aat    0.00000  107.00000  110.77000  # cl,c1,c,hc
dihedral_coeff	12 aat  -12.56400  110.77000  110.77000  # hc,c,c,hc
dihedral_coeff	13 aat  -12.56400  110.77000  110.77000  # hc,c,c1,hc

# BondBond13 Coeffs

dihedral_coeff	 1 bb13    0.00000    1.53000    1.53000  # c,c,c1,c
dihedral_coeff	 2 bb13    0.00000    1.53000    1.79000  # c,c,c1,cl
dihedral_coeff	 3 bb13    0.00000    1.53000    1.10100  # c,c,c1,hc
dihedral_coeff	 4 bb13    0.00000    1.53000    1.53000  # c,c1,c,c1
dihedral_coeff	 5 bb13    0.00000    1.53000    1.10100  # c,c1,c,hc
dihedral_coeff	 6 bb13    0.00000    1.53000    1.79000  # c1,c,c,cl
dihedral_coeff	 7 bb13    0.00000    1.53000    1.10100  # c1,c,c,hc
dihedral_coeff	 8 bb13    0.00000    1.53000    1.79000  # c1,c,c1,cl
dihedral_coeff	 9 bb13    0.00000    1.53000    1.10100  # c1,c,c1,hc
dihedral_coeff	10 bb13    0.00000    1.79000    1.10100  # cl,c,c,hc
dihedral_coeff	11 bb13    0.00000    1.79000    1.10100  # cl,c1,c,hc
dihedral_coeff	12 bb13    0.00000    1.10100    1.10100  # hc,c,c,hc
dihedral_coeff	13 bb13    0.00000    1.10100    1.10100  # hc,c,c1,hc

# Improper Coeffs

improper_coeff	 1    0.00000    0.00000  # c,c,cl,hc
improper_coeff	 2    0.00000    0.00000  # c,c,hc,c1
improper_coeff	 3    0.00000    0.00000  # c,c,hc,cl
improper_coeff	 4    0.00000    0.00000  # c,c,hc,hc
improper_coeff	 5    0.00000    0.00000  # c,c1,c1,hc
improper_coeff	 6    0.00000    0.00000  # c,c1,hc,hc
improper_coeff	 7    0.00000    0.00000  # c,cl,hc,hc
improper_coeff	 8    0.00000    0.00000  # c,hc,hc,hc
improper_coeff	 9    0.00000    0.00000  # c1,c,c,cl
improper_coeff	10    0.00000    0.00000  # c1,c,c,hc
improper_coeff	11    0.00000    0.00000  # c1,c,cl,hc

# AngleAngle Coeffs

improper_coeff	 1 aa    0.00000    0.00000    0.00000  107.00000  110.77000  107.99680  # c,c,cl,hc
improper_coeff	 2 aa    0.11840   -1.31990   -1.31990  110.77000  112.67000  110.77000  # c,c,hc,c1
improper_coeff	 3 aa    0.00000    0.00000    0.00000  110.77000  107.00000  107.99680  # c,c,hc,cl
improper_coeff	 4 aa    0.27380   -0.48250    0.27380  110.77000  110.77000  107.66000  # c,c,hc,hc
improper_coeff	 5 aa   -1.31990   -1.31990    0.11840  112.67000  110.77000  110.77000  # c,c1,c1,hc
improper_coeff	 6 aa    0.27380   -0.48250    0.27380  110.77000  110.77000  107.66000  # c,c1,hc,hc
improper_coeff	 7 aa    0.00000    0.00000    0.00000  107.99680  107.99680  107.66000  # c,cl,hc,hc
improper_coeff	 8 aa   -0.31570   -0.31570   -0.31570  107.66000  107.66000  107.66000  # c,hc,hc,hc
improper_coeff	 9 aa    0.00000    0.00000    0.00000  112.67000  107.00000  107.00000  # c1,c,c,cl
improper_coeff	10 aa   -1.31990   -1.31990    0.11840  112.67000  110.77000  110.77000  # c1,c,c,hc
improper_coeff	11 aa    0.00000    0.00000    0.00000  107.00000  110.77000  107.99680  # c1,c,cl,hc


# --- Thermo Output ---
thermo_style custom step time temp press enthalpy etotal ke pe ebond eangle edihed eimp evdwl ecoul elong etail vol lx ly lz density pxx pyy pzz
thermo_modify flush yes
thermo 1000

# --- Trajectory ---
dump dump_npt all custom 1000 npt_cool300.dump id type mol x y z ix iy iz vx vy vz

# --- Restart Checkpointing ---
# No restart checkpointing

# --- Initial Velocities (optional) ---
# Velocities read from data file

# --- SHAKE Constraints ---
# SHAKE disabled

# --- NPT Thermostat + Barostat (Nose-Hoover) ---
# T_damp = 100.0 fs  (heat bath coupling)
# P_damp = 1000.0 fs  (pressure bath coupling, ~10x T_damp typical)
# Ramp: T=530.0->300.0K  P=1.0->1.0atm
timestep 1.0
fix npt_fix all npt temp 530.0 300.0 100.0 iso 1.0 1.0 1000.0

run 1000000
PPPM Kokkos initialization ...
  using 12-bit tables for long-range coulomb
  G vector (1/distance) = 0.2954253
  grid = 25 25 25
  stencil order = 5
  estimated absolute RMS force accuracy = 0.00035274192
  estimated relative force accuracy = 1.0622718e-06
  using double precision cuFFT
  3d grid and FFT values/proc = 32768 15625
Generated 6 of 6 mixed pair_coeff terms from sixthpower/sixthpower mixing rule
Neighbor list info ...
  update: every = 1 steps, delay = 0 steps, check = yes
  max neighbors/atom: 4000, page size: 100000
  master list distance cutoff = 11.5
  ghost atom cutoff = 11.5
  binsize = 11.5, bins = 4 4 4
  1 neighbor lists, perpetual/occasional/extra = 1 0 0
  (1) pair lj/class2/coul/long/kk, perpetual
      attributes: full, newton off, kokkos_device
      pair build: full/bin/kk/device
      stencil: full/bin/3d
      bin: kk/device
Per MPI rank memory allocation (min/avg/max) = 24.28 | 24.28 | 24.28 Mbytes
   Step          Time           Temp          Press         Enthalpy        TotEng         KinEng         PotEng         E_bond        E_angle        E_dihed        E_impro         E_vdwl         E_coul         E_long         E_tail         Volume           Lx             Ly             Lz          Density          Pxx            Pyy            Pzz      
         0   0              540.26818      822.89212      6041.1009      5419.4318      5828.1708     -408.73907      2337.6201      3294.7009     -1904.7528      22.093343     -374.71551     -1552.2578     -2231.4272     -244.29811      51801.284      37.277506      37.277506      37.277506      1.2027288      711.18692      2281.3363     -523.84689    
      1000   1000           522.10838      2896.6911      7214.4347      5030.0277      5632.2711     -602.24334      2136.8841      3205.7365     -1893.0244      21.475827     -289.7368      -1559.213      -2224.3655     -244.74011      51707.731      37.255051      37.255051      37.255051      1.2049049      2873.5711      1887.6658      3928.8364    
      2000   2000           537.36477     -675.05517      4776.8143      5292.8261      5796.8501     -504.02405      2240.0498      3273.8851     -1868.7967      22.852821     -398.68075     -1547.2058     -2226.1285     -241.44389      52413.652      37.423822      37.423822      37.423822      1.1886769     -457.19125      300.86588     -1868.8401    
      3000   3000           523.86352     -935.60666      4279.2765      4985.4119      5651.2047     -665.79283      2237.1602      3178.8057     -1890.0491      22.078918     -441.64445     -1549.2102     -2222.934      -244.53548      51751          37.26544       37.26544       37.26544       1.2038975     -1225.1036      281.23657     -1862.9529    
      4000   4000           533.50322      140.12959      5270.4284      5165.6291      5755.1935     -589.56437      2297.2131      3194.3755     -1885.9641      20.741288     -440.66739     -1545.1953     -2230.0674     -246.77901      51280.519      37.152166      37.152166      37.152166      1.2149428      292.18969     -290.87524      419.07432    
      5000   5000           528.51405      335.17503      5254.1096      5002.3826      5701.3726     -698.98995      2177.2793      3230.6751     -1899.6934      21.413593     -442.66696     -1557.1147     -2228.883      -245.74147      51497.03       37.204379      37.204379      37.204379      1.2098348      1077.3169      192.52144     -264.31325    
      6000   6000           529.32368      1147.6916      6195.3411      5316.3063      5710.1065     -393.80024      2322.9221      3309.6199     -1885.1214      20.685639     -382.13435     -1553.7616     -2226.0105     -240.96593      52517.615      37.448549      37.448549      37.448549      1.1863238      2360.8228     -180.11537      1262.3672    
      7000   7000           531.33735      316.68635      5397.4078      5157.2719      5731.829      -574.55712      2221.5189      3212.1906     -1873.8537      20.066889     -354.17221     -1570.1643     -2230.1432     -243.39344      51993.824      37.323634      37.323634      37.323634      1.198275       779.19695      324.62847     -153.76637    
      8000   8000           543.80872      208.89669      5495.6263      5338.6848      5866.3646     -527.67979      2292.9249      3192.0524     -1882.7745      20.96676      -380.29081     -1550.1524     -2220.4062     -245.65769      51514.593      37.208608      37.208608      37.208608      1.2094223      839.63153     -977.58403      764.64258    
      9000   9000           532.53021     -356.8779       4695.4717      4961.81        5744.6971     -782.88703      2201.3508      3076.1737     -1914.2501      20.04453      -382.45828     -1559.5758     -2224.1717     -247.29907      51172.678      37.126104      37.126104      37.126104      1.2175032     -549.3904      -405.89026     -115.35304    
     10000   10000          531.20331     -71.562268      4947.1443      5000.5342      5730.3831     -729.84891      2213.5163      3166.525      -1900.9544      22.150499     -450.04649     -1553.7731     -2227.2668     -247.37856      51156.234      37.122127      37.122127      37.122127      1.2178945     -2193.9921      2662.4371     -683.13188    
     11000   11000          532.83721     -320.0401       4816.4944      5056.3388      5748.0088     -691.66999      2265.8903      3104.3938     -1887.623       19.395308     -416.8609      -1550.4733     -2226.3922     -246.26981      51386.55       37.177754      37.177754      37.177754      1.2124359      3073.1368     -2207.327      -1825.9301    
     12000   12000          521.1375      -34.435879      4872.9124      4898.6601      5621.7976     -723.13753      2223.8007      3153.8662     -1922.9493      19.818246     -416.63519     -1552.2919     -2228.7463     -246.83677      51268.519      37.149268      37.149268      37.149268      1.2152272      1008.6388     -1075.2115     -36.734861    
     13000   13000          534.29889      2211.4904      6979.2067      5302.0115      5763.7769     -461.7654       2241.9016      3287.3368     -1919.0816      21.096724     -322.61545     -1548.3922     -2222.0113     -243.35371      52002.314      37.325665      37.325665      37.325665      1.1980793      2664.7583      1998.507       1971.2059    
     14000   14000          522.55189     -492.6357       4580.4556      4950.4439      5637.0555     -686.61156      2202.8279      3186.5783     -1902.3894      20.443635     -415.86431     -1550.475      -2227.7327     -245.73919      51497.508      37.204494      37.204494      37.204494      1.2098236     -1245.015       356.93693     -589.82902    
     15000   15000          539.50227     -122.70639      5195.2043      5288.2433      5819.9086     -531.66526      2240.7631      3192.4919     -1892.2268      20.312679     -320.51488     -1549.1896     -2223.3017     -243.41003      51990.281      37.322786      37.322786      37.322786      1.1983566     -1012.8469      1226.864      -582.13631    
     16000   16000          532.98641      216.05429      5292.193       5125.5899      5749.6184     -624.02847      2203.5075      3116.46       -1896.882       18.67514      -299.19813     -1546.5469     -2220.0441     -239.34053      52874.269      37.533131      37.533131      37.533131      1.1783217      2068.6237     -939.38848     -481.07232    
     17000   17000          521.48775      317.77929      5245.8471      5003.2855      5625.576      -622.29049      2218.7487      3133.7465     -1892.2122      19.672275     -328.8394      -1548.7467     -2224.6598     -241.79104      52338.399      37.405903      37.405903      37.405903      1.190386       517.71927     -103.55823      539.17685    
     18000   18000          507.67817      238.05583      5105.1618      4923.7899      5476.6044     -552.81453      2252.3187      3227.8346     -1888.2901      21.271231     -383.10685     -1556.3387     -2226.5034     -242.23973      52241.454      37.382793      37.382793      37.382793      1.192595       305.05579     -327.18635      736.29805    
     19000   19000          534.26201     -1158.7192      4302.2828      5182.8154      5763.379      -580.56353      2245.8416      3170.8793     -1908.6435      20.491127     -347.41435     -1541.1591     -2220.5585     -242.86742      52106.435      37.35056       37.35056       37.35056       1.1956853     -381.29391     -2811.803      -283.06055    
     20000   20000          531.55289     -267.97888      4848.039       5054.2798      5734.1542     -679.87434      2183.0668      3164.9396     -1894.5024      20.730852     -404.64831     -1533.0651     -2216.3958     -239.8073       52771.353      37.508763      37.508763      37.508763      1.1806197     -0.70376244    -158.16076     -645.07211    
     21000   21000          533.12764      771.29558      5753.5549      5165.812       5751.1419     -585.32998      2251.1244      3167.5345     -1908.7514      20.428743     -354.21742     -1550.6391     -2210.8097     -242.19765      52250.531      37.384959      37.384959      37.384959      1.1923878      974.30132      1418.8811     -79.295622    
     22000   22000          531.73486      605.05072      5563.564       5101.5624      5736.1173     -634.55489      2196.3995      3201.4284     -1905.1969      23.058574     -394.66627     -1539.2145     -2216.3638     -241.70451      52357.136      37.410366      37.410366      37.410366      1.18996       -34.595322      1813.3789      36.368585    
     23000   23000          530.99191      645.80552      5439.3241      4949.3065      5728.1026     -778.79614      2120.9249      3144.5777     -1940.192       20.650845     -337.88597     -1566.5633     -2220.3084     -243.23529      52027.631      37.331722      37.331722      37.331722      1.1974963      888.705        513.78906      534.92252    
     24000   24000          512.93173      1456.0159      5812.0995      4722.1685      5533.2775     -811.10902      2151.253       3096.9238     -1959.0103      20.50036      -327.59558     -1559.3207     -2233.8596     -246.54921      51328.317      37.163705      37.163705      37.163705      1.2138114      252.16531      1508.6973      2607.185     
     25000   25000          534.11233     -686.41337      4618.9445      5139.8817      5761.7644     -621.88265      2308.2829      3144.5355     -1918.6808      19.451255     -378.31762     -1562.7111     -2234.4428     -243.18504      52038.38       37.334292      37.334292      37.334292      1.197249      -1001.3422     -2365.047       1307.1491    
     26000   26000          519.61922     -251.62042      4691.7508      4879.5929      5605.4191     -725.82621      2228.5745      3164.3836     -1936.9507      21.091219     -426.7434      -1549.9098     -2226.2715     -247.22331      51188.359      37.129896      37.129896      37.129896      1.2171302     -1422.4765      1583.6994     -916.08412    
     27000   27000          525.92934     -262.57225      4942.9284      5140.5521      5673.4898     -532.93771      2260.4905      3214.8684     -1867.8585      20.503979     -394.15134     -1545.7205     -2221.0702     -245.21457      51607.682      37.231007      37.231007      37.231007      1.2072408     -1945.739      -592.24255      1750.2648    
     28000   28000          513.51511      1003.7466      5619.0829      4871.6074      5539.5707     -667.96326      2230.6651      3145.8746     -1919.0286      21.118901     -372.86132     -1558.0774     -2215.6546     -247.8356       51061.897      37.099294      37.099294      37.099294      1.2201446      178.63895      2563.4397      269.16128    
     29000   29000          510.89745     -679.55138      4264.7154      4783.2094      5511.3326     -728.12314      2188.0619      3132.1814     -1925.5264      20.443806     -375.20613     -1548.1251     -2219.9526     -241.8884       52317.332      37.400884      37.400884      37.400884      1.1908654     -741.37513     -1523.9213      226.64234    
     30000   30000          530.65842      666.84143      5568.2395      5063.9351      5724.505      -660.56994      2228.1206      3181.3661     -1903.4887      20.650089     -415.82263     -1548.1734     -2223.2219     -244.04299      51855.436      37.290491      37.290491      37.290491      1.2014728      1738.8305     -722.363        984.05678    
     31000   31000          528.23853     -282.74461      4569.9932      4780.9443      5698.4004     -917.45609      2074.292       3161.6323     -1912.045       21.809272     -471.31587     -1560.5947     -2231.234      -247.37112      51157.774      37.1225        37.1225        37.1225        1.2178579     -1629.7058      926.22744     -144.75545    
     32000   32000          523.66949      651.73421      5491.487       5006.0723      5649.1116     -643.03935      2233.5594      3142.9119     -1884.918       19.892071     -370.66394     -1556.6813     -2227.1395     -247.7959       51070.077      37.101275      37.101275      37.101275      1.2199492     -858.00232      1258.4402      1554.7648    
     33000   33000          512.03146      145.81069      4972.5936      4863.3059      5523.5658     -660.25988      2214.4607      3180.8545     -1867.0114      19.592833     -444.34289     -1542.9002     -2220.9134     -246.23785      51393.22       37.179363      37.179363      37.179363      1.2122786     -185.35202     -777.1242       1399.9083    
     34000   34000          516.06084      525.65535      5297.5512      4904.3544      5567.0329     -662.67855      2156.2699      3227.0337     -1884.8131      21.232346     -396.27727     -1559.6951     -2226.429      -246.73322      51290.035      37.154464      37.154464      37.154464      1.2147174      2458.1008     -646.70445     -234.43027    
     35000   35000          526.63311     -1025.4214      4323.454       5104.2777      5681.0818     -576.8041       2343.168       3144.1446     -1930.9527      21.659572     -376.59724     -1551.693      -2226.5334     -242.37394      52212.526      37.375892      37.375892      37.375892      1.1932558     -1115.6258     -1277.4048     -683.23375    
     36000   36000          521.59733      586.19844      5322.8453      4877.6614      5626.7581     -749.09673      2179.6359      3106.943      -1883.6169      19.599599     -387.35949     -1560.4131     -2223.8859     -243.01983      52073.757      37.342751      37.342751      37.342751      1.1964356      935.5632      -441.41781      1264.4499    
     37000   37000          520.46872      1068.6397      5716.9345      4909.9148      5614.5832     -704.66842      2253.5739      3022.7553     -1896.294       19.436201     -330.7146      -1552.6912     -2220.734      -244.39014      51781.778      37.272826      37.272826      37.272826      1.2031819     -168.07422      2141.6702      1232.323     
     38000   38000          524.6613      -121.56878      4931.7383      5023.0183      5659.8109     -636.79261      2197.1012      3225.8778     -1907.3639      20.715045     -402.425       -1553.6468     -2217.051      -245.80077      51484.606      37.201387      37.201387      37.201387      1.2101267      360.03945     -1330.18        605.43418    
     39000   39000          517.34097     -142.22751      4727.9715      4835.4202      5580.8424     -745.42223      2216.8109      3119.4592     -1892.093       20.186241     -429.49684     -1558.2342     -2222.0546     -244.29755      51801.403      37.277534      37.277534      37.277534      1.2027261     -773.18427     -1195.7879      1542.2896    
     40000   40000          526.76862      1078.7706      5707.2248      4902.8389      5682.5437     -779.70475      2167.0155      3102.1436     -1880.975       19.592591     -415.15948     -1547.4751     -2224.8469     -247.5148       51128.078      37.115315      37.115315      37.115315      1.2185652      2409.0647     -379.90305      1207.1501    
     41000   41000          518.69965     -80.647654      4683.6647      4743.9771      5595.4993     -851.52217      2138.5269      3049.6915     -1875.1546      21.068872     -420.24645     -1544.1869     -2221.2215     -246.78674      51278.914      37.151778      37.151778      37.151778      1.2149808     -600.23816     -984.00215      1342.2973    
     42000   42000          513.48256      1449.4696      5880.4303      4794.4296      5539.2196     -744.78994      2124.6778      3158.6098     -1893.3072      19.884704     -370.30737     -1562.0738     -2222.2737     -246.32901      51374.199      37.174776      37.174776      37.174776      1.2127274      1228.3633      417.60169      2702.4438    
     43000   43000          518.91005      182.1657       5070.4163      4933.0012      5597.7689     -664.76771      2313.097       3159.5408     -1921.6893      21.10467      -467.17735     -1545.6639     -2223.9796     -244.66324      51723.976      37.258952      37.258952      37.258952      1.2045265      1264.3493     -305.95488     -411.89729    
     44000   44000          518.26246      1218.6441      5831.9989      4935.3268      5590.783      -655.45619      2205.3526      3258.578      -1911.3877      22.773273     -451.24934     -1558.2543     -2221.2686     -250.83015      50452.29       36.951065      36.951065      36.951065      1.2348874      198.77054      2446.1304      1011.0313    
     45000   45000          508.73576     -703.51897      4315.566       4850.1156      5488.0133     -637.89767      2263.8653      3172.8678     -1927.1338      20.831033     -398.45689     -1548.5893     -2221.2818     -242.8982       52099.833      37.348983      37.348983      37.348983      1.1958368     -778.37795     -2326.3698      994.19082    
     46000   46000          512.69702      1859.9316      6216.1599      4809.6281      5530.7455     -721.1174       2063.8441      3240.5103     -1898.172       21.53685      -374.40693     -1552.2768     -2222.1528     -244.05288      51853.334      37.289987      37.289987      37.289987      1.2015215      3281.8282      1241.5747      1056.3919    
     47000   47000          523.93034     -1672.4517      3597.8045      4853.9404      5651.9256     -797.98519      2138.1483      3178.4439     -1907.3094      21.067704     -464.25972     -1547.4596     -2216.6164     -245.72735      51499.988      37.205091      37.205091      37.205091      1.2097653     -2012.4097     -1374.1653     -1630.7802    
     48000   48000          519.48079     -394.54761      4530.5925      4825.8595      5603.9258     -778.06632      2170.3289      3109.8185     -1890.4387      20.058698     -406.27601     -1555.4334     -2226.1242     -246.61589      51314.438      37.160355      37.160355      37.160355      1.2141397     -278.0895      -1183.3133      277.75993    
     49000   49000          525.8449      -426.0152       4771.6935      5092.4542      5672.579      -580.12482      2223.3144      3220.4136     -1859.5587      20.405389     -409.36519     -1547.9882     -2227.3462     -245.12096      51627.391      37.235746      37.235746      37.235746      1.2067799      1112.7631     -1284.8394     -1105.9693    
     50000   50000          514.89354     -1025.0678      3964.8848      4735.8041      5554.4407     -818.63655      2196.9691      3080.8832     -1909.4148      19.716074     -445.58943     -1538.6468     -2222.5539     -245.4032       51568.013      37.221465      37.221465      37.221465      1.2081694     -384.64886     -232.58737     -2457.9673    
     51000   51000          506.4778       746.3568       5226.0214      4661.3292      5463.6554     -802.32619      2174.6468      3088.8971     -1902.9833      20.607576     -417.19051     -1546.6913     -2219.6126     -243.93337      51878.74       37.296076      37.296076      37.296076      1.2009331      1256.6729     -108.61912      1091.0166    
     52000   52000          518.33307      5.4031708      4958.7546      4954.7192      5591.5447     -636.8255       2225.5789      3139.0942     -1869.6784      18.930256     -393.18323     -1538.8699     -2218.6973     -247.11492      51210.812      37.135324      37.135324      37.135324      1.2165966     -1908.161       37.886532      1886.484     
     53000   53000          522.96287     -1420.8917      3878.4895      4949.9171      5641.4889     -691.57175      2165.2082      3144.1558     -1843.0506      21.017468     -421.22164     -1537.8508     -2219.8302     -244.75672      51704.223      37.254208      37.254208      37.254208      1.2049866      12.85048      -1068.2523     -3207.2732    
     54000   54000          525.69902      38.401289      5080.2717      5051.035       5671.0052     -619.9702       2213.5811      3148.8886     -1890.9345      21.221752     -367.19776     -1532.6159     -2212.9135     -242.41187      52204.356      37.373943      37.373943      37.373943      1.1934425     -382.96273     -303.1984       801.365      
     55000   55000          514.64046      559.3194       5282.8397      4864.9012      5551.7105     -686.80929      2239.5893      3129.6039     -1904.6929      20.801748     -401.73712     -1549.8726     -2220.5016     -246.99269      51236.155      37.141449      37.141449      37.141449      1.2159948      1236.3232      743.19952     -301.56452    
     56000   56000          505.90055     -716.11432      4151.774       4704.2477      5457.4283     -753.18054      2223.9131      3078.5282     -1930.3678      20.728414     -383.64282     -1546.1794     -2216.1602     -239.22536      52899.726      37.539153      37.539153      37.539153      1.1777547     -844.72869      448.02465     -1751.6389    
     57000   57000          525.96062      1097.2667      5837.0957      5012.092       5673.8274     -661.73541      2152.9109      3215.9037     -1903.3992      20.617172     -386.27117     -1547.8313     -2213.6656     -245.46683      51554.646      37.218249      37.218249      37.218249      1.2084827      1139.5567      836.10718      1316.1363    
     58000   58000          518.07343     -763.26003      4165.2592      4734.6229      5588.7438     -854.12094      2124.0307      3117.2075     -1900.3307      19.810654     -444.33849     -1547.9422     -2222.5584     -247.41116      51149.495      37.120497      37.120497      37.120497      1.218055      -796.05925     -310.22135     -1183.4995    
     59000   59000          514.25967     -744.09369      4197.425       4758.0134      5547.6028     -789.5893       2231.0573      3063.2703     -1877.1729      21.106574     -457.81966     -1549.6913     -2220.3396     -244.97401      51658.36       37.24319       37.24319       37.24319       1.2060564      449.60316     -946.66464     -1735.2196    
     60000   60000          533.73837      162.24414      5148.4973      5027.1289      5757.7302     -730.60134      2252.3154      3123.8208     -1957.2219      20.958076     -413.55025     -1541.9928     -2214.9307     -246.7175       51293.303      37.155253      37.155253      37.155253      1.21464       -3625.7914      4497.0566     -384.53279    
     61000   61000          513.33301     -1253.8754      3953.5683      4898.2731      5537.6063     -639.33318      2265.6678      3170.3194     -1895.9066      21.640961     -444.21286     -1538.7996     -2218.0423     -244.95978      51661.361      37.243911      37.243911      37.243911      1.2059864     -2221.8592     -1446.1058     -93.661268    
     62000   62000          508.99964     -1107.038       3931.2144      4760.9853      5490.8598     -729.87448      2230.6432      3157.5779     -1911.8823      21.435289     -448.66527     -1553.979      -2225.0043     -246.22994      51394.87       37.179761      37.179761      37.179761      1.2122396     -238.39174     -1093.4776     -1989.2448    
     63000   63000          515.23703      1682.8144      5850.1353      4601.5832      5558.1461     -956.56285      2160.0758      2962.5235     -1889.9702      19.257523     -435.90255     -1550.9879     -2221.5591     -248.75171      50873.844      37.053695      37.053695      37.053695      1.2246548      3619.8152      1765.7714     -337.14331    
     64000   64000          521.55603     -634.66868      4398.2505      4877.0476      5626.3126     -749.26498      2188.4767      3080.0481     -1882.9147      19.931169     -381.88301     -1548.4069     -2224.5163     -244.64263      51728.334      37.259998      37.259998      37.259998      1.204425      -237.5726       389.73074     -2056.1642    
     65000   65000          523.96282      567.21132      5219.9435      4795.4451      5652.276      -856.83085      2187.9697      3070.1657     -1913.9648      21.072462     -443.07219     -1551.0815     -2227.9202     -246.60695      51316.298      37.160804      37.160804      37.160804      1.2140957     -1379.3696      2692.4489      388.55462    
     66000   66000          522.19567      287.31017      5224.0092      5005.6378      5633.2127     -627.57489      2133.4708      3189.5897     -1880.5951      21.607993     -323.14984     -1550.8152     -2217.6833     -242.8241       52115.733      37.352782      37.352782      37.352782      1.195472      -502.25695      669.02083      695.16661    
     67000   67000          517.92591      2032.936       6258.0762      4746.0836      5587.1525     -841.06886      2074.2558      3111.7794     -1880.6404      20.855562     -384.57809     -1558.3595     -2224.3817     -248.14789      50997.637      37.083725      37.083725      37.083725      1.2216821      616.84674      2422.0187      3059.9425    
     68000   68000          514.81757      1047.5503      5609.3472      4829.9851      5553.6211     -723.63599      2180.5944      3157.9498     -1893.9651      21.322832     -394.41919     -1568.3474     -2226.7714     -248.0688       51013.895      37.087665      37.087665      37.087665      1.2212927      933.94427      1315.2982      893.40847    
     69000   69000          512.83697     -932.18997      4083.4025      4777.5119      5532.2552     -754.74337      2191.0998      3081.8543     -1868.784       19.193839     -388.82618     -1559.1092     -2230.1719     -247.86378      51056.092      37.097888      37.097888      37.097888      1.2202833     -2590.6619      601.93131     -807.83929    
     70000   70000          518.51672     -1262.0886      3743.5229      4678.4109      5593.5258     -915.11488      2155.9676      3111.8238     -1911.9303      21.860463     -493.95634     -1565.3899     -2233.4903     -249.15337      50791.831      37.033773      37.033773      37.033773      1.2266322     -834.68823     -1270.2011     -1681.3764    
     71000   71000          504.57942     -2617.1853      2619.8984      4568.9662      5443.1765     -874.21029      2166.6714      3126.8679     -1918.5884      21.258086     -494.03969     -1555.0072     -2221.3724     -247.82438      51064.208      37.099854      37.099854      37.099854      1.2200894     -1128.9411     -3048.852      -3673.7626    
     72000   72000          509.71945      607.03856      5145.4525      4691.2304      5498.6248     -807.39447      2111.5879      3175.2523     -1913.0329      21.732721     -422.92721     -1556.1554     -2223.8519     -246.65191      51306.944      37.158546      37.158546      37.158546      1.2143171      1479.9732      1044.8458     -703.70333    
     73000   73000          501.07473      843.73218      5204.6202      4581.376       5405.3695     -823.99346      2205.9159      3075.4655     -1910.7679      21.007916     -423.02171     -1564.0034     -2228.5898     -249.85204      50649.8        36.999221      36.999221      36.999221      1.2300719      1870.5928      451.65433      208.94936    
     74000   74000          524.94088     -173.10975      4683.6031      4811.9535      5662.8269     -850.87337      2140.4797      3113.9822     -1909.6548      21.988505     -429.16404     -1559.5676     -2228.9373     -248.92071      50839.305      37.045307      37.045307      37.045307      1.2254868      710.3213       1143.7076     -2373.3581    
     75000   75000          509.60815      1278.5386      5711.1457      4760.9164      5497.4242     -736.50781      2162.8484      3128.5311     -1879.8776      21.328547     -396.33019     -1549.4302     -2223.5779     -248.32587      50961.085      37.074863      37.074863      37.074863      1.2225583     -239.4218       2513.2393      1561.7984    
     76000   76000          523.80068     -652.95871      4355.7725      4832.4263      5650.5268     -818.10056      2154.0023      3149.8334     -1895.5442      21.246655     -479.72352     -1544.0854     -2223.8297     -252.82453      50054.304      36.853647      36.853647      36.853647      1.2447061     -48.315897     -1709.2346     -201.32564    
     77000   77000          507.58735      672.80961      5235.3477      4728.7389      5475.6247     -746.88583      2166.5142      3106.7046     -1904.6726      20.737353     -365.98425     -1548.7071     -2221.4781     -245.10715      51630.299      37.236445      37.236445      37.236445      1.2067119     -171.61913      526.87702      1663.1709    
     78000   78000          510.71506      648.755        5131.4521      4649.8774      5509.365      -859.48762      2141.7499      3074.7684     -1916.355       20.63288      -389.3347      -1562.2979     -2228.6512     -248.63002      50898.743      37.059739      37.059739      37.059739      1.2240557      1185.2073      1055.1645     -294.10681    
     79000   79000          499.91933      353.43129      4747.884       4488.1277      5392.9056     -904.7779       2148.5196      3056.5108     -1915.0022      20.743927     -443.52413     -1548.7275     -2223.2983     -251.11659      50394.741      36.93701       36.93701       36.93701       1.2362976      291.34398      76.418502      692.53139    
     80000   80000          506.18179     -1277.4719      3821.2771      4777.2833      5460.4621     -683.17888      2272.8797      3100.7664     -1873.3685      19.350261     -435.00969     -1542.7671     -2225.03       -246.61936      51313.715      37.160181      37.160181      37.160181      1.2141568     -2178.4585     -641.17132     -1012.7859    
     81000   81000          502.29914     -1413.4586      3547.4877      4603.7183      5418.5779     -814.85956      2230.2266      3053.9302     -1889.6953      19.679112     -454.62327     -1548.5673     -2225.8097     -246.97946      51238.9        37.142112      37.142112      37.142112      1.2159297     -1729.1913     -1930.2189     -580.96554    
     82000   82000          515.97207      1484.9272      5883.5202      4751.1753      5566.0753     -814.89997      2098.7225      3143.2013     -1899.9246      21.943097     -398.21046     -1551.2741     -2229.3578     -242.02653      52287.474      37.393767      37.393767      37.393767      1.1915454      750.90098      2110.8621      1593.0186    
     83000   83000          510.3756      -417.7504       4319.8631      4628.9381      5505.7031     -876.76499      2167.6239      3118.6989     -1924.9659      21.446325     -480.1745      -1556.0648     -2223.3288     -249.4535       50730.72       37.018914      37.018914      37.018914      1.2281099      601.81856     -541.02664     -1314.0431    
     84000   84000          515.68055     -436.076        4332.7721      4656.646       5562.9305     -906.28451      2162.7273      3080.1626     -1906.0983      20.934216     -478.01619     -1555.1401     -2230.8539     -248.49788      50925.809      37.066306      37.066306      37.066306      1.2234052      1670.1324     -1386.6475     -1591.7128    
     85000   85000          509.14297     -143.597        4401.5561      4506.7859      5492.406      -985.62011      2096.3409      3070.0021     -1891.2227      19.89516      -489.88326     -1557.666      -2233.0864     -251.85058      50247.872      36.901092      36.901092      36.901092      1.2399112     -921.8056      -137.31405      628.32864    
     86000   86000          501.01231      380.53218      5035.9085      4748.393       5404.6961     -656.30309      2170.6007      3213.8651     -1902.1428      21.61897      -380.58075     -1556.1194     -2223.545      -244.26807      51807.654      37.279033      37.279033      37.279033      1.2025809      1337.1347      142.78385     -338.32197    
     87000   87000          508.45918      543.2463       5110.6153      4711.0499      5485.0296     -773.97973      2198.468       3183.8948     -1908.6015      20.93223      -482.54264     -1556.0531     -2230.0775     -250.92585      50433.05       36.946367      36.946367      36.946367      1.2353585      1218.3354      1332.6366     -921.23311    
     88000   88000          507.90224     -86.471884      4590.6638      4654.3697      5479.0216     -824.65189      2158.7013      3102.8046     -1871.7203      19.880908     -441.51482     -1562.7346     -2230.069      -250.51364      50516.034      36.96662       36.96662       36.96662       1.2333292     -589.57849      237.03291      93.129927    
     89000   89000          504.91753      1020.9999      5210.8025      4455.3789      5446.8239     -991.445        2067.9472      3057.9591     -1904.2467      21.045649     -452.25239     -1552.9915     -2228.9064     -249.44319      50732.817      37.019424      37.019424      37.019424      1.2280591      1211.7161      1071.3689      779.91479    
     90000   90000          514.77669     -2511.2625      2800.3427      4643.4386      5553.1801     -909.74146      2133.8267      3203.6838     -1936.7411      21.403511     -552.14291     -1557.3981     -2222.3734     -251.46682      50324.555      36.919854      36.919854      36.919854      1.2380218     -3921.059      -1647.0525     -1965.6759    
     91000   91000          492.60304     -1425.7419      3306.9881      4370.9659      5313.9807     -943.01481      2195.4582      3063.4764     -1935.0807      21.384049     -509.06537     -1552.225      -2226.9624     -247.31181      51170.042      37.125467      37.125467      37.125467      1.2175659     -3254.7715     -750.7862      -271.66807    
     92000   92000          502.04988      593.22548      5029.9955      4592.8425      5415.889      -823.04652      2151.4418      3154.8574     -1907.4859      21.034307     -457.50719     -1557.3528     -2228.0341     -250.45108      50528.654      36.969699      36.969699      36.969699      1.2330211     -1423.7141      1598.568       1604.8226    
     93000   93000          511.62278      937.73215      5278.905       4589.2913      5519.1571     -929.86584      2095.357       3105.4982     -1917.7228      19.960016     -459.22517     -1552.6054     -2221.1277     -250.96282      50425.619      36.944553      36.944553      36.944553      1.2355406      2593.4245     -708.253        928.02497    
     94000   94000          513.54021      248.37764      4864.4748      4679.2619      5539.8415     -860.57957      2155.092       3074.4436     -1893.0151      19.444176     -428.09477     -1564.4623     -2223.9872     -247.5015       51130.825      37.11598       37.11598       37.11598       1.2184998     -430.72379      1736.7534     -560.89664    
     95000   95000          515.36414      163.84899      4856.8125      4734.9745      5559.5173     -824.5428       2206.1324      3096.1134     -1901.2079      20.760605     -453.72603     -1562.6875     -2229.9278     -248.19742      50987.46       37.081258      37.081258      37.081258      1.2219259     -895.90892      1450.5905     -63.134647    
     96000   96000          514.54804     -1286.0252      3644.4042      4599.2612      5550.7135     -951.45229      2117.7686      3041.1601     -1884.0495      18.702393     -466.30485     -1554.8618     -2223.8673     -248.56939      50911.158      37.062752      37.062752      37.062752      1.2237572      140.19506     -2059.2314     -1939.0392    
     97000   97000          517.26365     -22.58336       4609.7285      4626.6664      5580.0083     -953.34185      2093.242       3069.3318     -1878.951       19.95653      -470.97493     -1556.5786     -2229.3678     -246.07403      51427.434      37.187611      37.187611      37.187611      1.211472       1593.8656     -1868.1162      206.50049    
     98000   98000          500.40229      770.83229      5073.3258      4511.7577      5398.1155     -886.35781      2108.8629      3164.398      -1907.0329      19.888385     -503.22477     -1550.9364     -2218.3131     -253.33426      49953.589      36.828913      36.828913      36.828913      1.2472156     -884.9674       1076.5319      2120.9323    
     99000   99000          499.39063     -1152.1311      3810.4272      4667.5735      5387.2022     -719.62863      2234.9006      3162.3346     -1869.5827      22.36579      -480.38907     -1561.1092     -2228.1486     -248.07527      51012.565      37.087343      37.087343      37.087343      1.2213245     -852.46877     -1119.9022     -1484.0223    
    100000   100000         497.50312     -2065.2991      2930.7203      4474.5068      5366.8405     -892.33376      2151.1755      3116.4551     -1876.189       20.9883       -527.77635     -1547.6093     -2229.3781     -246.90634      51254.073      37.145778      37.145778      37.145778      1.2155697     -2138.6066     -480.25927     -3577.0314    
    101000   101000         509.78959     -572.73272      4172.6839      4599.6198      5499.3815     -899.76175      2201.6199      3004.9176     -1903.3963      20.639579     -453.32845     -1548.5898     -2221.6242     -247.58588      51113.399      37.111763      37.111763      37.111763      1.2189152      1126.7631     -2176.1739     -668.78736    
    102000   102000         511.29323     -653.98497      4123.0816      4612.5905      5515.602      -903.01152      2215.52        3000.8701     -1894.697       21.092005     -467.35071     -1556.6562     -2221.7897     -246.57198      51323.576      37.162561      37.162561      37.162561      1.2139235     -462.72073     -2560.8643      1061.6301    
    103000   103000         507.54315      1371.3388      5530.5618      4504.3102      5475.148      -970.83778      2152.6362      3013.5679     -1897.532       21.010169     -486.59785     -1552.2258     -2221.6965     -246.61951      51313.684      37.160173      37.160173      37.160173      1.2141576      2710.9974      63.943873      1339.075     
    104000   104000         512.16466     -725.53741      4175.699       4721.4275      5525.0027     -803.57519      2225.5766      3088.8163     -1898.8374      19.763729     -456.89887     -1556.7893     -2225.2061     -245.36899      51575.204      37.223195      37.223195      37.223195      1.208001      -387.71942     -1296.7178     -492.17505    
    105000   105000         509.4087       329.72017      4881.4777      4634.9845      5495.2726     -860.28809      2171.259       3099.0355     -1897.032       20.81818      -444.12092     -1574.0671     -2236.1808     -246.87503      51260.573      37.147348      37.147348      37.147348      1.2154155     -427.48991     -474.17971      1890.8301    
    106000   106000         499.49046     -461.09968      4100.8782      4445.5434      5388.2791     -942.73567      2141.3051      3024.4052     -1909.345       19.537087     -442.50948     -1553.1035     -2223.0251     -246.90729      51253.876      37.145731      37.145731      37.145731      1.2155744      480.14118     -685.07233     -1178.3679    
    107000   107000         503.08623     -1074.4002      3851.147       4654.3166      5427.0687     -772.75206      2184.2374      3159.3574     -1902.8422      21.754133     -444.92955     -1560.0626     -2230.2666     -246.88535      51258.431      37.146831      37.146831      37.146831      1.2154663     -1361.8773     -121.49952     -1739.8238    
    108000   108000         502.25153     -416.88045      4260.8762      4569.4479      5418.0643     -848.61635      2167.6024      3143.4317     -1948.0049      21.19476      -473.09385     -1541.9314     -2217.815      -249.34         50753.813      37.02453       37.02453       37.02453       1.2275511     -400.34453     -748.19156     -102.10525    
    109000   109000         499.72642     -30.406307      4384.286       4407.2961      5390.8246     -983.52842      2033.9651      3067.505      -1903.7537      20.603994     -416.85727     -1557.6256     -2227.366      -243.88265      51889.529      37.298661      37.298661      37.298661      1.2006834     -217.99027      1342.8289     -1216.0575    
    110000   110000         500.78229     -306.08155      4284.7416      4509.8941      5402.2148     -892.32064      2104.3166      3119.6734     -1892.0994      21.374415     -451.58055     -1565.537      -2228.4681     -250.89782      50438.683      36.947743      36.947743      36.947743      1.2352205     -898.57032     -1644.4307      1624.7564    
    111000   111000         513.05894     -550.12953      4207.9266      4620.0187      5534.6498     -914.63109      2109.5939      3056.3695     -1884.4939      19.749742     -435.60111     -1555.1654     -2225.0838     -246.38098      51363.363      37.172162      37.172162      37.172162      1.2129832     -1494.7154     -188.82236      33.149216    
    112000   112000         507.96007      1102.062       5342.8853      4525.5181      5479.6454     -954.1273       2053.8939      3089.894      -1878.7874      19.673593     -464.45261     -1553.8715     -2220.4772     -248.84297      50855.187      37.049164      37.049164      37.049164      1.2251041      601.07447      310.21422      2394.8973    
    113000   113000         501.47241     -497.78356      4105.519       4478.4273      5409.6595     -931.23227      2094.7292      3070.2565     -1911.3461      20.456989     -440.82343     -1542.322      -2222.1835     -246.36278      51367.157      37.173077      37.173077      37.173077      1.2128936     -2122.5588      188.46061      440.74748    
    114000   114000         511.38407     -1018.5391      3866.3692      4639.1759      5516.582      -877.40611      2094.035       3082.1214     -1911.4954      20.706324     -390.6028      -1556.4257     -2215.745      -243.2447       52025.618      37.33124       37.33124       37.33124       1.1975427     -867.20339     -2761.1493      572.73527    
    115000   115000         499.55087     -254.78767      4291.597       4482.9003      5388.9308     -906.03046      2130.5563      3068.549      -1926.5186      20.353036     -433.41498     -1546.2992     -2219.256      -245.80597      51483.517      37.201125      37.201125      37.201125      1.2101523      286.62387      633.58031     -1684.5672    
    116000   116000         493.63718      1215.2133      5341.8073      4441.9869      5325.1365     -883.14963      2108.6023      3083.6658     -1896.6123      22.845753     -439.21902     -1542.8643     -2219.5679     -249.24886      50772.372      37.029043      37.029043      37.029043      1.2271024      1389.3211      1334.5564      921.76241    
    117000   117000         499.69206     -2358.5599      2677.9695      4447.8349      5390.4538     -942.61888      2201.0139      3036.4832     -1921.8084      19.645399     -509.12509     -1542.8155     -2226.0124     -245.94793      51453.8        37.193966      37.193966      37.193966      1.2108512     -4926.9246     -500.87506     -1647.88      
    118000   118000         501.35696      812.75111      5014.0846      4409.5588      5408.4141     -998.85531      2117.4757      2997.1833     -1910.1893      20.100224     -454.41941     -1547.2787     -2221.7272     -248.13         51001.314      37.084616      37.084616      37.084616      1.221594       1550.9343     -630.14518      1517.4642    
    119000   119000         489.87152     -449.01391      4100.2662      4439.2585      5284.5143     -845.25575      2135.9243      3049.074      -1897.0501      20.445107     -386.78575     -1545.4159     -2221.4474     -244.45921      51767.146      37.269315      37.269315      37.269315      1.203522      -153.40187     -1047.6769     -145.963      
    120000   120000         499.38009     -1043.8987      3716.9997      4496.165       5387.0885     -890.92352      2146.0804      3083.1603     -1921.8285      19.694843     -455.11084     -1539.7578     -2223.1618     -247.26651      51179.417      37.127734      37.127734      37.127734      1.2173429     -1112.9549     -917.34224     -1101.3989    
    121000   121000         498.57457      392.99511      4744.8316      4454.0031      5378.3989     -924.39578      2113.4136      3125.567      -1947.6709      21.756237     -457.95717     -1553.256      -2226.2485     -249.39437      50742.749      37.02184       37.02184       37.02184       1.2278187     -277.57665      975.77832      480.78366    
    122000   122000         508.19664     -1377.081       3602.1328      4643.7106      5482.1975     -838.48692      2200.0036      3100.1684     -1945.2039      20.763014     -440.37831     -1547.4141     -2226.4256     -244.00815      51862.84       37.292265      37.292265      37.292265      1.2013013     -2677.8302     -1027.007      -426.40592    
    123000   123000         502.83569      791.69619      4948.3309      4362.0884      5424.3659     -1062.2775      2039.2881      3045.3617     -1935.4958      20.883233     -462.18687     -1550.2027     -2219.9252     -249.24         50774.176      37.029481      37.029481      37.029481      1.2270588      81.175245      1621.6103      672.30299    
    124000   124000         490.86644      603.01538      4718.2352      4273.4481      5295.247      -1021.7989      2104.4484      3014.9419     -1893.9433      20.532078     -474.63314     -1559.7795     -2233.3654     -250.21465      50576.399      36.981339      36.981339      36.981339      1.2318571      260.56829      382.00843      1166.4694    
    125000   125000         499.1698       536.80929      4825.5381      4429.7733      5384.82       -955.04668      2108.5931      3096.3883     -1927.3053      22.214815     -459.52102     -1560.0852     -2235.3314     -250.33373      50552.34       36.975474      36.975474      36.975474      1.2324434      1110.368      -212.66977      712.7296     
    126000   126000         500.21536     -2158.76        2820.9275      4423.3947      5396.0989     -972.7042       2117.9349      3127.3288     -1914.9199      20.599579     -542.20741     -1547.4131     -2234.0271     -248.62897      50898.959      37.059791      37.059791      37.059791      1.2240505     -1784.0942     -2293.9992     -2398.1866    
    127000   127000         505.72286      280.13484      4738.3469      4530.4562      5455.5115     -925.05524      2088.5165      3148.9506     -1927.4401      22.069423     -479.92794     -1544.8039     -2232.4198     -248.6959       50885.26       37.056466      37.056466      37.056466      1.2243801     -583.79184      433.62296      990.57341    
    128000   128000         491.92423      2132.9313      5956.0675      4366.1149      5306.658      -940.54309      2113.5957      3070.59       -1934.5305      20.265538     -433.26057     -1550.7595     -2226.4439     -247.58778      51113.006      37.111668      37.111668      37.111668      1.2189246      3623.3068      1401.8573      1373.6298    
    129000   129000         489.25708     -1543.0768      3200.5349      4370.505       5277.886      -907.38102      2082.1203      3103.2529     -1918.8191      20.886737     -426.30885     -1542.0956     -2226.4175     -243.4161       51988.984      37.322476      37.322476      37.322476      1.1983865     -1340.1871     -1088.7134     -2200.3299    
    130000   130000         504.64658     -1120.8832      3577.5327      4415.3257      5443.901      -1028.5753      2088.8859      2988.0121     -1898.193       19.445314     -461.57666     -1545.3703     -2219.7787     -246.92221      51250.779      37.144982      37.144982      37.144982      1.2156478      73.571908     -1912.012      -1524.2094    
    131000   131000         504.8271      -1362.1754      3579.4561      4611.7953      5445.8484     -834.05315      2202.3583      3109.1499     -1915.0481      21.547354     -483.42162     -1546.0138     -2222.6251     -243.52701      51965.307      37.316809      37.316809      37.316809      1.1989325     -2133.7139     -420.26975     -1532.5426    
    132000   132000         496.02273      622.2301       4839.654       4374.6065      5350.8707     -976.26428      2140.9624      2998.024      -1887.0299      19.939379     -464.06317     -1554.4825     -2229.6145     -246.9393       51247.232      37.144126      37.144126      37.144126      1.215732       16.811238      2209.3895     -359.51047    
    133000   133000         501.39955      416.9747       4896.3646      4586.6735      5408.8735     -822.19991      2146.1543      3162.8361     -1926.4881      21.630573     -457.09832     -1546.9813     -2222.2531     -248.49499      50926.402      37.06645       37.06645       37.06645       1.2233909      1000.768       273.9698      -23.813699    
    134000   134000         506.32216      662.87843      4927.7411      4433.9209      5461.9764     -1028.0556      2048.0755      3065.0881     -1928.0526      21.135554     -478.70735     -1537.5105     -2218.0842     -247.74309      51080.964      37.103912      37.103912      37.103912      1.2196892     -35.921101     -243.92375      2268.4801    
    135000   135000         494.64016      516.72411      4917.9888      4527.1587      5335.9563     -808.79754      2161.1402      3091.4003     -1918.359       21.167759     -401.6898      -1540.1929     -2222.2641     -244.00979      51862.491      37.292182      37.292182      37.292182      1.2013094     -14.757562      832.9472       731.98269    
    136000   136000         483.30179     -990.93958      3524.5668      4270.5927      5213.6429     -943.0502       2128.5022      3070.7718     -1931.4212      21.216008     -467.04532     -1546.9916     -2218.0821     -245.14881      51621.527      37.234336      37.234336      37.234336      1.206917      -332.47234     -1833.8778     -806.46862    
    137000   137000         496.14691     -58.237375      4422.4956      4465.5442      5352.2104     -886.66615      2132.7848      3054.3832     -1903.4764      21.446348     -427.55611     -1550.5555     -2213.6925     -249.67761      50685.185      37.007835      37.007835      37.007835      1.2292132     -1757.1504      728.88688      853.55143    
    138000   138000         501.74536     -593.76026      3871.7227      4315.5394      5412.604      -1097.0646      2013.1106      2966.035      -1901.8461      19.66742      -430.62445     -1547.8745     -2215.5326     -246.91302      51252.686      37.145443      37.145443      37.145443      1.2156026     -770.08672     -1218.7487      207.55467    
    139000   139000         492.12601      2020.3641      5889.1464      4400.3769      5308.8347     -908.4578       2139.5654      3016.2937     -1902.1407      20.325006     -400.46812     -1559.5117     -2222.5214     -250.46019      50526.816      36.96925       36.96925       36.96925       1.233066       2566.1637      2121.1185      1373.8102    
    140000   140000         504.41212      604.17553      5102.7426      4649.4316      5441.3717     -791.94015      2119.4593      3126.1199     -1882.3303      21.777385     -403.4802      -1550.5827     -2222.9035     -245.98201      51446.673      37.192248      37.192248      37.192248      1.211019       1099.1465      1224.8716     -511.49147    
    141000   141000         498.87119     -1365.5508      3410.6521      4437.246       5381.5987     -944.35261      2162.4923      2984.1772     -1883.0282      18.987417     -487.52368     -1525.0828     -2214.3748     -245.49671      51548.372      37.216739      37.216739      37.216739      1.2086298     -1643.6151     -625.74779     -1827.2894    
    142000   142000         489.88657      1910.7798      5624.4185      4196.3426      5284.6767     -1088.3341      2019.3866      2975.4375     -1913.7889      19.691227     -427.08074     -1545.1047     -2216.875      -246.94251      51246.567      37.143965      37.143965      37.143965      1.2157477      3397.1496      993.63924      1341.5504    
    143000   143000         495.37911     -1554.0741      3256.9775      4470.4898      5343.9277     -873.43787      2159.3275      3050.1595     -1939.7922      20.479464     -406.0687      -1540.4188     -2217.1247     -236.35459      53542.246      37.690526      37.690526      37.690526      1.1636213     -2052.3241     -1318.0772     -1291.821     
    144000   144000         499.9732       663.19014      4859.5683      4361.7743      5393.4867     -1031.7124      1983.8652      3015.2367     -1890.9812      19.358765     -384.79614     -1555.4731     -2218.9226     -245.88097      51467.813      37.197342      37.197342      37.197342      1.2105216      365.51159      1824.7635     -200.70466    
    145000   145000         494.71192      832.13666      5023.8822      4401.3624      5336.7304     -935.36792      2091.5988      3023.3898     -1896.4056      19.491289     -406.75803     -1549.6694     -2217.0147     -246.70505      51295.893      37.155878      37.155878      37.155878      1.2145787      2551.7688     -852.02046      796.66163    
    146000   146000         499.4196       499.35459      4954.6663      4575.257       5387.5147     -812.25769      2160.0049      3042.8118     -1899.8242      18.812022     -347.56125     -1561.2599     -2225.2411     -242.90562      52098.242      37.348602      37.348602      37.348602      1.1958733      267.26091      86.893877      1143.909     
    147000   147000         494.9827      -1495.3219      3290.0766      4410.0628      5339.6514     -929.58854      2137.2326      3028.04       -1880.7633      18.749968     -475.5713      -1539.2275     -2218.049      -246.4101       51357.292      37.170697      37.170697      37.170697      1.2131266     -265.53079     -1474.5526     -2745.8822    
    148000   148000         492.89607      1023.3065      5035.9722      4278.929       5317.1417     -1038.2127      2068.7347      3000.8048     -1893.0597      18.901091     -451.6661      -1555.9057     -2226.0218     -249.47189      50726.981      37.018005      37.018005      37.018005      1.2282004      1961.0417     -680.20768      1789.0853    
    149000   149000         493.13177      1471.101       5367.0308      4271.6866      5319.6844     -1047.9978      2022.1131      3054.2688     -1911.3976      19.373871     -441.21658     -1563.5912     -2227.5481     -247.87251      51054.292      37.097452      37.097452      37.097452      1.2203263      814.06678      1496.4908      2102.7453    
    150000   150000         486.9978      -479.20798      3988.0685      4352.6603      5253.5139     -900.8536       2136.1122      3082.4174     -1940.579       20.720217     -430.84569     -1545.5006     -2223.1781     -242.57928      52168.329      37.365343      37.365343      37.365343      1.1942667     -767.85892      569.85797     -1239.623     
    151000   151000         498.36206     -440.7172       4067.5606      4399.6222      5376.1064     -976.48424      2166.3264      3003.1207     -1933.4119      20.089773     -455.15738     -1555.8432     -2221.6087     -244.95029      51663.364      37.244392      37.244392      37.244392      1.2059396      799.91346     -2004.4417     -117.62338    
    152000   152000         499.74045     -1456.8983      3371.6767      4466.8522      5390.9759     -924.12368      2188.7336      3020.7267     -1915.9785      19.863278     -464.53837     -1550.0152     -2222.9151     -245.51726      51544.057      37.215701      37.215701      37.215701      1.208731      -764.42611     -2436.0557     -1170.2132    
    153000   153000         492.9332      -610.13722      3681.8442      4130.866       5317.5423     -1186.6763      2069.8563      2946.2556     -1925.6305      20.716475     -521.18628     -1557.2175     -2219.4704     -250.78213      50461.953      36.953424      36.953424      36.953424      1.234651      -636.14763     -943.27927     -250.98476    
    154000   154000         498.65318     -751.3344       3782.5004      4343.128       5379.2469     -1036.1189      2161.6842      2961.1009     -1950.0165      19.899887     -476.33061     -1539.6917     -2212.7651     -247.34055      51164.096      37.124029      37.124029      37.124029      1.2177074     -2211.2132     -161.53865      118.74867    
    155000   155000         505.25607      129.17319      4604.9069      4508.9469      5450.4759     -941.52899      2091.3786      3066.5046     -1909.5611      20.875786     -439.26117     -1550.4986     -2220.9671     -248.43852      50937.977      37.069258      37.069258      37.069258      1.2231129     -570.7826      -10.825027      969.12719    
    156000   156000         491.14728     -715.73638      3710.8665      4244.0789      5298.2766     -1054.1977      2079.9601      2995.6251     -1915.7239      19.158967     -466.25456     -1544.5553     -2222.4081     -247.73613      51082.398      37.104259      37.104259      37.104259      1.2196549     -1584.2393     -201.25771     -361.71212    
    157000   157000         488.05647      2542.5581      6151.3123      4259.358       5264.9343     -1005.5763      2058.3379      3034.4134     -1928.1349      20.321162     -408.40776     -1554.734      -2227.3721     -248.02575      51022.75       37.089811      37.089811      37.089811      1.2210808      2355.2044      2165.0943      3107.3754    
    158000   158000         494.55659     -1707.889       2875.0156      4143.8037      5335.0548     -1191.2511      2076.7933      2933.1679     -1911.0956      19.070043     -536.10306     -1545.9303     -2227.1533     -248.43173      50939.37       37.069596      37.069596      37.069596      1.2230795     -2320.5006     -1538.5154     -1264.6511    
    159000   159000         497.1584       311.09016      4565.1996      4338.1129      5363.1219     -1025.009       2030.2777      3079.6399     -1882.2922      20.370563     -492.95329     -1553.8829     -2226.1687     -252.83136      50052.952      36.853316      36.853316      36.853316      1.2447397     -550.59097      1619.4948     -135.63337    
    160000   160000         501.11378     -1310.368       3319.1892      4297.6875      5405.7907     -1108.1032      2076.2507      2955.0806     -1902.5113      19.180055     -468.85279     -1556.6307     -2230.6197     -247.15518      51202.471      37.133308      37.133308      37.133308      1.2167948     -1607.4289     -796.51237     -1527.1629    
    161000   161000         490.88701      1109.6063      5034.8933      4219.478       5295.4689     -1075.9909      2137.4825      2978.3778     -1924.7218      20.152474     -512.10639     -1549.9922     -2225.1833     -251.14619      50388.803      36.935559      36.935559      36.935559      1.2364433      2171.0297     -482.57962      1640.3689    
    162000   162000         491.54176     -690.28742      3657.4827      4172.45        5302.5321     -1130.0821      2014.8684      3036.0213     -1924.3297      20.731876     -511.04934     -1544.0637     -2222.2609     -247.39268      51153.316      37.121421      37.121421      37.121421      1.217964      -1690.0329      850.71449     -1231.5439    
    163000   163000         503.23163     -545.83437      3850.8754      4254.8413      5428.6372     -1173.7959      2066.2581      2958.6014     -1921.8611      18.469934     -523.31923     -1547.4834     -2224.4616     -249.37486      50746.718      37.022805      37.022805      37.022805      1.2277227     -2267.8938      110.8065       519.58419    
    164000   164000         477.98272     -137.14476      3943.0991      4046.7369      5156.2632     -1109.5263      2092.0756      2910.3038     -1929.6455      19.913668     -419.0381      -1555.8802     -2227.2556     -244.22896      51815.951      37.281023      37.281023      37.281023      1.2023884      945.67112     -109.04635     -1248.0591    
    165000   165000         491.88734     -423.82317      3818.5406      4130.2938      5306.2601     -1175.9663      2026.622       2956.8125     -1924.4473      19.830155     -472.1648      -1557.7464     -2224.8725     -250.90553      50437.133      36.947364      36.947364      36.947364      1.2352585     -1012.1358      192.53035     -451.86407    
    166000   166000         486.01036     -894.64184      3634.0331      4301.3559      5242.8618     -941.50592      2180.8832      3019.4205     -1927.4747      20.652186     -470.0019      -1540.1035     -2224.8817     -247.4285       51145.909      37.11963       37.11963       37.11963       1.2181404     -137.21952     -1787.9989     -758.70715    
    167000   167000         489.75586      139.62101      4476.9876      4372.1291      5283.2666     -911.13742      2107.492       3097.4659     -1922.9313      20.49412      -425.24032     -1558.279      -2230.1389     -245.74452      51496.39       37.204225      37.204225      37.204225      1.2098498     -573.21765      965.62614      26.454525    
    168000   168000         488.06352      158.12844      4255.7224      4138.0149      5265.0103     -1126.9954      2048.5305      2936.947      -1909.1222      17.728898     -435.16986     -1559.203      -2226.7067     -247.93762      51040.886      37.094205      37.094205      37.094205      1.2206469     -417.05541      1942.5439     -1051.1032    
    169000   169000         499.49741     -721.48085      3953.4934      4500.2026      5388.3541     -888.15144      2171.3647      3030.5092     -1903.5576      18.895111     -434.79714     -1544.4222     -2226.1435     -243.55942      51958.391      37.315153      37.315153      37.315153      1.1990921     -1569.3589     -281.26792     -313.81577    
    170000   170000         499.86493     -622.00212      3793.9382      4256.1094      5392.3187     -1136.2093      2087.3795      2904.0943     -1887.5036      19.997547     -466.72131     -1564.4525     -2229.0033     -248.3851       50948.932      37.071916      37.071916      37.071916      1.2228499     -1668.6545      429.50448     -626.85635    
    171000   171000         484.60388      917.69667      4722.1711      4034.4825      5227.6894     -1193.2069      2041.218       2944.3684     -1944.2594      18.976932     -473.08596     -1551.5836     -2228.8412     -246.28832      51382.686      37.176823      37.176823      37.176823      1.2125271      594.34522      1201.3454      957.39939    
    172000   172000         489.36924     -1482.4987      3057.4421      4149.9938      5279.0959     -1129.1021      2109.8031      2933.2114     -1901.7969      19.463062     -507.11082     -1555.9674     -2226.7045     -250.43143      50532.617      36.970665      36.970665      36.970665      1.2329244     -1287.2074     -2406.7453     -753.54332    
[...]
    955000   955000         313.16629      136.41494     -141.99334     -234.68939      3378.2976     -3612.9869      1283.6796      1956.3913     -2059.3885      15.069544     -945.55325     -1609.9349     -2253.2507     -271.60467      46593.292      35.983864      35.983864      35.983864      1.3371645      980.9991       184.70782     -756.4621     
    956000   956000         304.17493      780.36216      279.80817     -248.44946      3281.3027     -3529.7522      1301.4545      2000.9067     -2055.4826      15.219202     -940.64217     -1604.0989     -2247.109      -272.63835      46416.639      35.93833       35.93833       35.93833       1.3422536      267.25509      2620.1804     -546.34896    
    957000   957000         309.68513     -1297.7684     -1007.1037     -111.30655      3340.7443     -3452.0508      1335.1312      2042.94       -2060.9922      15.864076     -920.44426     -1611.2372     -2253.3124     -267.377        47330.009      36.172528      36.172528      36.172528      1.3163509     -2617.7315      596.12331     -1871.697     
    958000   958000         309.89677      400.12161      220.0396      -51.479893      3343.0274     -3394.5073      1382.4401      2058.5063     -2046.1318      16.692363     -950.79861     -1607.6073     -2247.6083     -271.97408      46530.007      35.967565      35.967565      35.967565      1.3389832      1654.1915     -893.82236      439.99564    
    959000   959000         310.17587      553.44069      248.95453     -128.73559      3346.0382     -3474.7738      1338.1105      1986.3004     -2037.4664      15.969729     -926.34163     -1605.6579     -2245.6885     -270.44066      46793.836      36.035417      36.035417      36.035417      1.3314339      465.16672      779.88171      415.27364    
    960000   960000         311.15815     -611.40789     -587.9947      -172.01711      3356.6346     -3528.6517      1317.4768      1972.8831     -2048.7647      15.834548     -925.50458     -1615.1237     -2245.4531     -271.26742      46651.22       35.99877       35.99877       35.99877       1.3355042      163.96406     -914.73076     -1083.457     
    961000   961000         305.82571     -1341.8423     -1059.5979     -146.19573      3299.1106     -3445.3063      1356.8736      2026.628      -2030.608       16.451419     -963.70409     -1604.1375     -2246.8098     -271.12898      46675.039      36.004896      36.004896      36.004896      1.3348226     -1054.9968     -1801.1026     -1169.4275    
    962000   962000         308.73282      184.92039     -103.82458     -230.51022      3330.4712     -3560.9814      1315.4227      1933.0891     -2027.7257      16.313164     -946.79543     -1604.7159     -2246.5693     -269.39771      46974.994      36.08186       36.08186       36.08186       1.3262992      434.29592      356.67273     -236.2075     
    963000   963000         312.75892      433.89407      206.74479     -87.761885      3373.903      -3461.6649      1307.6587      2037.6138     -2037.161       15.222702     -921.0637      -1612.9349     -2251.0005     -271.90995      46540.981      35.970393      35.970393      35.970393      1.3386675      373.29517      911.03226      17.354772    
    964000   964000         313.46374      419.0372       142.60352     -140.14593      3381.5063     -3521.6522      1308.2235      2004.0027     -2048.9265      15.819817     -933.35258     -1617.2759     -2250.1433     -273.51889      46267.209      35.899723      35.899723      35.899723      1.3465886     -660.43154     -726.48194      2644.0251    
    965000   965000         309.58251      916.8965       391.38144     -229.82864      3339.6373     -3569.4659      1285.7063      1992.098      -2048.2355      15.491665     -958.03289     -1608.0951     -2248.3983     -272.40705      46456.051      35.948499      35.948499      35.948499      1.3411148      898.58446      854.37145      997.73357    
    966000   966000         310.66083      152.44027     -136.74009     -240.14352      3351.2697     -3591.4133      1277.9191      1966.6062     -2034.3832      15.707399     -955.17605     -1612.381      -2249.7056     -272.0829       46511.396      35.962769      35.962769      35.962769      1.339519       1883.8919     -991.27491     -435.29613    
    967000   967000         307.95349      416.04303      150.58788     -134.01553      3322.0641     -3456.0797      1360.2501      2000.7183     -2057.1799      15.860673     -918.22205     -1610.2933     -2247.2134     -269.79548      46905.736      36.064118      36.064118      36.064118      1.3282575      445.89574      333.93761      468.29575    
    968000   968000         306.84539      484.01621      133.70771     -191.6857       3310.1104     -3501.7961      1343.4268      1987.0705     -2049.0545      15.115406     -926.45242     -1616.3644     -2255.5375     -274.52865      46097.031      35.855654      35.855654      35.855654      1.3515599      2010.1191     -650.30618      92.235706    
    969000   969000         301.83975     -1230.4783     -1133.5736     -293.93232      3256.1119     -3550.0442      1330.0026      1969.4481     -2045.846       15.353586     -970.54935     -1601.5682     -2246.8848     -270.46851      46789.017      36.03418       36.03418       36.03418       1.331571      -1239.2952     -2177.2719     -274.86785    
    970000   970000         313.10174      600.92952      228.79232     -174.8282       3377.6012     -3552.4294      1269.2529      2002.5175     -2058.3428      15.934531     -933.57528     -1602.5586     -2245.6576     -274.78108      46054.684      35.844671      35.844671      35.844671      1.3528026      405.20269      972.58336      425.00251    
    971000   971000         305.82964     -166.58637     -441.08093     -327.12345      3299.153      -3626.2765      1267.7106      1945.3633     -2040.6748      15.786699     -962.19488     -1602.9868     -2249.2805     -269.79453      46905.902      36.064161      36.064161      36.064161      1.3282528     -98.292654     -571.42205      169.95561    
    972000   972000         311.13757      1146.7114      543.75334     -230.8121       3356.4126     -3587.2247      1280.7875      1965.2114     -2035.4427      15.133072     -953.19663     -1611.4967     -2248.2205     -273.23262      46315.684      35.912256      35.912256      35.912256      1.3451793      1058.0401      326.36757      2055.7266    
    973000   973000         299.6996       1713.7347      867.4743      -297.93108      3233.0249     -3530.956       1292.6471      2010.1541     -2053.9978      16.561866     -940.30901     -1605.1379     -2250.8744     -271.39579      46629.154      35.993094      35.993094      35.993094      1.3361362      843.92183      2150.112       2147.1704    
    974000   974000         309.2713      -339.43884     -486.71357     -255.75897      3336.2801     -3592.0391      1300.7367      1942.7007     -2056.7144      14.51945      -933.5737      -1611.2623     -2248.4456     -271.25105      46654.034      35.999494      35.999494      35.999494      1.3354236      873.67433     -1021.638      -870.3528     
    975000   975000         306.04066      219.69437     -112.09478     -261.5688       3301.4294     -3562.9982      1302.2927      1948.1865     -2044.7807      15.332225     -930.89509     -1605.8839     -2247.25       -271.26248      46652.068      35.998989      35.998989      35.998989      1.3354799      1513.9503     -629.18031     -225.68686    
    976000   976000         301.89317     -777.8055      -808.25691     -276.29981      3256.6881     -3532.9879      1335.2651      2022.5584     -2049.2928      15.809181     -1001.8741     -1608.0413     -2247.4125     -269.85528      46895.342      36.061454      36.061454      36.061454      1.3285519     -948.83402      240.36053     -1624.943     
    977000   977000         306.12432      228.77166     -5.0404757     -159.39918      3302.3318     -3461.731       1331.4459      2015.0929     -2027.4716      15.179099     -941.5186      -1607.7705     -2246.6882     -273.53166      46265.049      35.899165      35.899165      35.899165      1.3466515     -159.19198      690.95301      154.55394    
    978000   978000         307.57236      88.160737     -268.52965     -328.17168      3317.9527     -3646.1244      1291.1533      1896.2124     -2024.8799      15.05854      -965.2092      -1608.8674     -2249.5922     -272.8094       46387.536      35.930818      35.930818      35.930818      1.3430957      183.93662      474.75407     -394.20848    
    979000   979000         297.28695     -683.18999     -814.90609     -350.41594      3206.9983     -3557.4142      1266.1964      2014.1305     -2016.9115      15.513443     -994.51688     -1594.6051     -2247.2212     -271.45729      46618.588      35.990375      35.990375      35.990375      1.336439      -527.91801      202.33752     -1723.9895    
    980000   980000         305.8541       602.67487      189.28572     -217.99573      3299.4169     -3517.4126      1323.6496      1962.5654     -2039.8869      15.013155     -928.22511     -1602.2928     -2248.2359     -273.10206      46337.827      35.917979      35.917979      35.917979      1.3445365      170.11089      1412.3419      225.57185    
    981000   981000         299.04613     -1128.109      -1059.903      -289.40179      3225.9756     -3515.3774      1325.992       2036.4407     -2040.5164      17.021898     -994.3589      -1609.3729     -2250.5838     -270.218        46832.393      36.045312      36.045312      36.045312      1.3303377     -1105.6198     -1770.6447     -508.06245    
    982000   982000         304.06991     -130.96974     -441.47669     -353.3141       3280.1698     -3633.4839      1272.3087      1922.9035     -2022.8068      14.600074     -957.60341     -1610.9253     -2251.9607     -274.17204      46156.989      35.871193      35.871193      35.871193      1.3498042      816.23177      324.05748     -1533.1985    
    983000   983000         302.9146       627.88799      260.78432     -167.10733      3267.7068     -3434.8142      1328.7444      2064.4307     -2047.0068      16.442065     -944.53749     -1602.7447     -2250.1423     -270.82258      46727.845      36.018469      36.018469      36.018469      1.3333142      2799.7304     -1233.6003      317.53382    
    984000   984000         304.54091     -1320.9522     -1175.217      -281.50371      3285.2508     -3566.7545      1283.4843      1968.0568     -2034.8026      14.707197     -946.71291     -1605.6341     -2245.8531     -272.78811      46391.156      35.931752      35.931752      35.931752      1.3429908     -6.217309      -1680.7605     -2275.8789    
    985000   985000         305.63431      955.68875      359.54611     -287.17325      3297.0459     -3584.2191      1304.7054      1942.2169     -2066.768       15.4541       -926.26106     -1604.7143     -2248.8521     -272.73265      46400.589      35.934188      35.934188      35.934188      1.3427178     -1249.8774      2662.2655      1454.6781    
    986000   986000         307.13366      989.82782      306.35792     -359.09672      3313.2202     -3672.3169      1245.3119      1935.0429     -2070.8373      15.821853     -939.04841     -1609.3845     -2249.2233     -274.52235      46098.089      35.855928      35.855928      35.855928      1.3515289     -89.377745      1471.8622      1586.999     
    987000   987000         303.08137     -123.51171     -364.4617      -280.21598      3269.5059     -3549.7219      1257.0424      2007.2483     -2039.5266      16.210209     -934.33343     -1609.9584     -2246.4043     -270.5807       46769.617      36.029199      36.029199      36.029199      1.3321233      877.91483      465.94427     -1714.3942    
    988000   988000         299.35148     -491.12587     -785.45486     -453.38373      3229.2695     -3682.6532      1238.381       1979.7433     -2053.3748      15.947434     -1008.6115     -1606.4908     -2248.2479     -272.95949      46362.028      35.924231      35.924231      35.924231      1.3438346      722.01299     -872.47633     -1322.9143    
    989000   989000         302.76127     -467.17029     -676.24328     -358.87142      3266.0528     -3624.9242      1300.169       1966.7075     -2048.0375      15.553365     -1007.3557     -1603.8103     -2248.1506     -271.67102      46581.912      35.980934      35.980934      35.980934      1.3374912      1341.282      -1510.9233     -1231.8695    
    990000   990000         305.13638     -1273.3708     -1089.8044     -220.31782      3291.6744     -3511.9922      1322.6932      1994.0751     -2065.7373      16.15688      -918.94918     -1609.4322     -2250.7988     -270.28909      46820.075      36.042151      36.042151      36.042151      1.3306877     -1283.2737     -2538.1043      1.2655017    
    991000   991000         301.11777     -804.66362     -865.79756     -319.00257      3248.3235     -3567.3261      1305.7407      1998.2714     -2047.5366      14.98247      -991.25992     -1599.1462     -2248.378      -271.59787      46594.458      35.984164      35.984164      35.984164      1.3371311     -14.776912     -992.34444     -1406.8695    
    992000   992000         303.64299     -1525.1592     -1400.1486     -372.23549      3275.5644     -3647.7999      1301.1941      1936.4043     -2053.2296      15.486172     -995.8836      -1602.0305     -2249.7409     -273.83898      46213.128      35.88573       35.88573       35.88573       1.3481645     -3004.9496     -234.82196     -1335.7059    
    993000   993000         309.75586      510.94154      84.801774     -262.93594      3341.5073     -3604.4432      1305.5832      1942.2514     -2060.3396      15.531452     -954.14187     -1605.7862     -2247.5416     -271.17893      46666.442      36.002685      36.002685      36.002685      1.3350685     -94.174893      936.37268      690.62685    
    994000   994000         302.44525      776.33551      214.01056     -310.04911      3262.6437     -3572.6928      1301.2041      1991.6112     -2058.77        16.009352     -956.70036     -1615.8792     -2250.1679     -273.40423      46286.612      35.904741      35.904741      35.904741      1.3460241      1026.4827      530.49554      772.02829    
    995000   995000         299.08636     -1692.258      -1546.5815     -408.38148      3226.4095     -3634.791       1278.9888      1961.5156     -2037.0214      16.41397      -996.61338     -1606.2356     -2251.8389     -274.40024      46118.603      35.861247      35.861247      35.861247      1.3509277     -686.49562     -2060.1425     -2330.1358    
    996000   996000         302.84263      418.3413      -17.896895     -301.27339      3266.9305     -3568.2039      1279.255       2032.8423     -2035.0897      16.351982     -992.54725     -1614.5182     -2254.4981     -272.46043      46446.949      35.946151      35.946151      35.946151      1.3413776      1187.0504     -261.84951      329.823      
    997000   997000         305.96797      182.96357     -185.4956      -309.34694      3300.6453     -3609.9922      1273.5785      1962.419      -2039.4555      16.010934     -959.65146     -1611.5266     -2251.3671     -272.64681      46415.198      35.937959      35.937959      35.937959      1.3422952      523.54736     -299.99099      325.33433    
    998000   998000         298.61709     -326.7826      -619.18495     -397.50164      3221.3472     -3618.8489      1305.0345      1973.2382     -2065.1879      16.771805     -991.16606     -1605.5305     -2252.009      -272.0586       46515.552      35.96384       35.96384       35.96384       1.3393993     -1996.1956     -151.21582      1167.0636    
    999000   999000         308.55639      375.68156     -57.187294     -311.35921      3328.568      -3639.9272      1290.0453      1923.1648     -2051.6294      14.050017     -948.83225     -1613.9626     -2252.763      -272.79024      46390.793      35.931659      35.931659      35.931659      1.3430013     -79.650257      714.48348      492.21144    
   1000000   1000000        299.19085      1.0516793     -399.92214     -400.63602      3227.5367     -3628.1727      1321.1314      1910.4176     -2048.7679      15.657001     -965.44039     -1609.8963     -2251.274      -271.8905       46544.309      35.97125       35.97125       35.97125       1.3385718      434.5181       1035.8498     -1467.2128    
Loop time of 1848.44 on 1 procs for 1000000 steps with 3620 atoms

Performance: 46.742 ns/day, 0.513 hours/ns, 540.997 timesteps/s, 1.958 Matom-step/s
100.0% CPU use with 1 MPI tasks x 1 OpenMP threads

MPI task timing breakdown:
Section |  min time  |  avg time  |  max time  |%varavg| %total
---------------------------------------------------------------
Pair    | 125.92     | 125.92     | 125.92     |   0.0 |  6.81
Bond    | 229.38     | 229.38     | 229.38     |   0.0 | 12.41
Kspace  | 980.17     | 980.17     | 980.17     |   0.0 | 53.03
Neigh   | 105.33     | 105.33     | 105.33     |   0.0 |  5.70
Comm    | 29.194     | 29.194     | 29.194     |   0.0 |  1.58
Output  | 5.503      | 5.503      | 5.503      |   0.0 |  0.30
Modify  | 331.91     | 331.91     | 331.91     |   0.0 | 17.96
Other   |            | 41.03      |            |       |  2.22

Nlocal:           3620 ave        3620 max        3620 min
Histogram: 1 0 0 0 0 0 0 0 0 0
Nghost:          12341 ave       12341 max       12341 min
Histogram: 1 0 0 0 0 0 0 0 0 0
Neighs:              0 ave           0 max           0 min
Histogram: 1 0 0 0 0 0 0 0 0 0
FullNghs:  1.78456e+06 ave 1.78456e+06 max 1.78456e+06 min
Histogram: 1 0 0 0 0 0 0 0 0 0

Total # of neighbors = 1784564
Ave neighs/atom = 492.97348
Ave special neighs/atom = 5.9723757
Neighbor list builds = 31673
Dangerous builds = 0

# --- Cleanup ---
unfix npt_fix

undump dump_npt

# --- Write Output ---
write_dump all custom npt_cool300_last.dump id type mol x y z xu yu zu vx vy vz modify sort id
write_data /home/alexzhao/PolyJarvis/data/PVC2/lammps/equil/npt_cool300/npt_cool300_out.data
System init for write_data ...
PPPM Kokkos initialization ...
  using 12-bit tables for long-range coulomb
  G vector (1/distance) = 0.2951995
  grid = 24 24 24
  stencil order = 5
  estimated absolute RMS force accuracy = 0.00037961796
  estimated relative force accuracy = 1.1432082e-06
  using double precision cuFFT
  3d grid and FFT values/proc = 29791 13824
Generated 6 of 6 mixed pair_coeff terms from sixthpower/sixthpower mixing rule

print "STAGE COMPLETE: NPT T=530.0->300.0K P=1.0->1.0atm steps=1000000"
STAGE COMPLETE: NPT T=530.0->300.0K P=1.0->1.0atm steps=1000000
quit
       |  2.22

Nlocal:           3620 ave        3620 max        3620 min
Histogram: 1 0 0 0 0 0 0 0 0 0
Nghost:          12341 ave       12341 max       12341 min
Histogram: 1 0 0 0 0 0 0 0 0 0
Neighs:              0 ave           0 max           0 min
Histogram: 1 0 0 0 0 0 0 0 0 0
FullNghs:  1.78456e+06 ave 1.78456e+06 max 1.78456e+06 min
Histogram: 1 0 0 0 0 0 0 0 0 0

Total # of neighbors = 1784564
Ave neighs/atom = 492.97348
Ave special neighs/atom = 5.9723757
Neighbor list builds = 31673
Dangerous builds = 0
System init for write_data ...
PPPM Kokkos initialization ...
  using 12-bit tables for long-range coulomb
  G vector (1/distance) = 0.2951995
  grid = 24 24 24
  stencil order = 5
  estimated absolute RMS force accuracy = 0.00037961796
  estimated relative force accuracy = 1.1432082e-06
  using double precision cuFFT
  3d grid and FFT values/proc = 29791 13824
Generated 6 of 6 mixed pair_coeff terms from sixthpower/sixthpower mixing rule
STAGE COMPLETE: NPT T=530.0->300.0K P=1.0->1.0atm steps=1000000
