LAMMPS data file via write_data, version 22 Jul 2025, timestep = 2000000, units = real

3620 atoms
4 atom types
3610 bonds
6 bond types
7200 angles
11 angle types
10710 dihedrals
13 dihedral types
4800 impropers
11 improper types

6.257452579093989 42.12804245090012 xlo xhi
6.257452579093989 42.12804245090012 ylo yhi
6.257452579093989 42.12804245090012 zlo zhi

Masses

1 12.01115
2 12.01115
3 35.453
4 1.00797

Pair Coeffs # lj/class2/coul/long/gpu

1 0.054 4.01
2 0.054 4.01
3 0.2247 3.92
4 0.02 2.995

Bond Coeffs # class2

1 1.53 299.67 -501.77 679.81
2 1.53 299.67 -501.77 679.81
3 1.79 194.319 0 0
4 1.101 345 -691.89 844.6
5 1.79 194.319 0 0
6 1.101 345 -691.89 844.6

Angle Coeffs # class2

1 112.67 39.516 -7.443 -9.5583
2 107 61.1745 0 0
3 110.77 41.453 -10.604 5.129
4 112.67 39.516 -7.443 -9.5583
5 107 61.1745 0 0
6 110.77 41.453 -10.604 5.129
7 112.67 39.516 -7.443 -9.5583
8 110.77 41.453 -10.604 5.129
9 107.997 51.0987 0 0
10 107.997 51.0987 0 0
11 107.66 39.641 -12.921 -2.4318

BondBond Coeffs

1 0 1.53 1.53
2 0 1.53 1.79
3 3.3872 1.53 1.101
4 0 1.53 1.53
5 0 1.53 1.79
6 3.3872 1.53 1.101
7 0 1.53 1.53
8 3.3872 1.53 1.101
9 0 1.79 1.101
10 0 1.79 1.101
11 5.3316 1.101 1.101

BondAngle Coeffs

1 8.016 8.016 1.53 1.53
2 0 0 1.53 1.79
3 20.754 11.421 1.53 1.101
4 8.016 8.016 1.53 1.53
5 0 0 1.53 1.79
6 20.754 11.421 1.53 1.101
7 8.016 8.016 1.53 1.53
8 20.754 11.421 1.53 1.101
9 0 0 1.79 1.101
10 0 0 1.79 1.101
11 18.103 18.103 1.101 1.101

Dihedral Coeffs # class2

1 0 0 0.0514 0 -0.143 0
2 0 0 0 0 0.15 0
3 0 0 0.0316 0 -0.1681 0
4 0 0 0.0514 0 -0.143 0
5 0 0 0.0316 0 -0.1681 0
6 0 0 0 0 0.15 0
7 0 0 0.0316 0 -0.1681 0
8 0 0 0 0 0.15 0
9 0 0 0.0316 0 -0.1681 0
10 0 0 0 0 -0.1 0
11 0 0 0 0 -0.1 0
12 -0.1432 0 0.0617 0 -0.1083 0
13 -0.1432 0 0.0617 0 -0.1083 0

AngleAngleTorsion Coeffs

1 -22.045 112.67 112.67
2 0 112.67 107
3 -16.164 112.67 110.77
4 -22.045 112.67 112.67
5 -16.164 112.67 110.77
6 0 112.67 107
7 -16.164 112.67 110.77
8 0 112.67 107
9 -16.164 112.67 110.77
10 0 107 110.77
11 0 107 110.77
12 -12.564 110.77 110.77
13 -12.564 110.77 110.77

EndBondTorsion Coeffs

1 -0.0732 0 0 -0.0732 0 0 1.53 1.53
2 0 0 0 0 0 0 1.53 1.79
3 0.2486 0.2422 -0.0925 0.0814 0.0591 0.2219 1.53 1.101
4 -0.0732 0 0 -0.0732 0 0 1.53 1.53
5 0.2486 0.2422 -0.0925 0.0814 0.0591 0.2219 1.53 1.101
6 0 0 0 0 0 0 1.53 1.79
7 0.2486 0.2422 -0.0925 0.0814 0.0591 0.2219 1.53 1.101
8 0 0 0 0 0 0 1.53 1.79
9 0.2486 0.2422 -0.0925 0.0814 0.0591 0.2219 1.53 1.101
10 0 0 0 0 0 0 1.79 1.101
11 0 0 0 0 0 0 1.79 1.101
12 0.213 0.312 0.0777 0.213 0.312 0.0777 1.101 1.101
13 0.213 0.312 0.0777 0.213 0.312 0.0777 1.101 1.101

MiddleBondTorsion Coeffs

1 -17.787 -7.1877 0 1.53
2 0 0 0 1.53
3 -14.879 -3.6581 -0.3138 1.53
4 -17.787 -7.1877 0 1.53
5 -14.879 -3.6581 -0.3138 1.53
6 0 0 0 1.53
7 -14.879 -3.6581 -0.3138 1.53
8 0 0 0 1.53
9 -14.879 -3.6581 -0.3138 1.53
10 0 0 0 1.53
11 0 0 0 1.53
12 -14.261 -0.5322 -0.4864 1.53
13 -14.261 -0.5322 -0.4864 1.53

BondBond13 Coeffs

1 0 1.53 1.53
2 0 1.53 1.79
3 0 1.53 1.101
4 0 1.53 1.53
5 0 1.53 1.101
6 0 1.53 1.79
7 0 1.53 1.101
8 0 1.53 1.79
9 0 1.53 1.101
10 0 1.79 1.101
11 0 1.79 1.101
12 0 1.101 1.101
13 0 1.101 1.101

AngleTorsion Coeffs

1 0.3886 -0.3139 0.1389 0.3886 -0.3139 0.1389 112.67 112.67
2 0 0 0 0 0 0 112.67 107
3 -0.2454 0 -0.1136 0.3113 0.4516 -0.1988 112.67 110.77
4 0.3886 -0.3139 0.1389 0.3886 -0.3139 0.1389 112.67 112.67
5 -0.2454 0 -0.1136 0.3113 0.4516 -0.1988 112.67 110.77
6 0 0 0 0 0 0 112.67 107
7 -0.2454 0 -0.1136 0.3113 0.4516 -0.1988 112.67 110.77
8 0 0 0 0 0 0 112.67 107
9 -0.2454 0 -0.1136 0.3113 0.4516 -0.1988 112.67 110.77
10 0 0 0 0 0 0 107 110.77
11 0 0 0 0 0 0 107 110.77
12 -0.8085 0.5569 -0.2466 -0.8085 0.5569 -0.2466 110.77 110.77
13 -0.8085 0.5569 -0.2466 -0.8085 0.5569 -0.2466 110.77 110.77

Improper Coeffs # class2

1 0 0
2 0 0
3 0 0
4 0 0
5 0 0
6 0 0
7 0 0
8 0 0
9 0 0
10 0 0
11 0 0

AngleAngle Coeffs

1 0 0 0 107 110.77 107.997
2 0.1184 -1.3199 -1.3199 110.77 112.67 110.77
3 0 0 0 110.77 107 107.997
4 0.2738 -0.4825 0.2738 110.77 110.77 107.66
5 -1.3199 -1.3199 0.1184 112.67 110.77 110.77
6 0.2738 -0.4825 0.2738 110.77 110.77 107.66
7 0 0 0 107.997 107.997 107.66
8 -0.3157 -0.3157 -0.3157 107.66 107.66 107.66
9 0 0 0 112.67 107 107
10 -1.3199 -1.3199 0.1184 112.67 110.77 110.77
11 0 0 0 107 110.77 107.997

Atoms # full

2147 6 1 -0.106 8.962680820197969 8.33787139221113 8.714982448995036 0 0 0
2149 6 4 0.053 8.061272725387589 8.9714592630982 8.795026721694299 0 0 0
2150 6 2 0.131 8.96154784634666 7.593652830674333 7.378445737706379 0 0 0
2153 6 1 -0.106 7.676058889233837 6.793338145840389 7.143848109517519 0 0 0
2148 6 4 0.053 8.866966676404259 7.521917504220984 9.45062766513935 0 0 0
2144 6 2 0.131 10.139676564034854 9.250947805664547 9.045607521443303 0 0 0
2155 6 4 0.053 6.691385269996646 7.353257555843227 7.311842820076327 0 0 0
2151 6 4 0.053 9.128956109566545 8.39723386012202 6.611881718101401 0 0 0
2146 6 3 -0.184 10.112268483125723 10.630148022685454 7.94054451549391 0 0 0
2141 6 1 -0.106 10.030936144094683 9.785365271944983 10.543896018038048 0 0 0
2145 6 4 0.053 11.095199873046752 8.733492422742 8.944110029490162 0 0 0
2143 6 4 0.053 8.989693975934848 10.034212504381241 10.763655343268955 0 0 0
2152 6 3 -0.184 10.512418937567839 6.649871509935208 7.551360718071646 0 0 0
2138 6 2 0.131 11.001595422281145 10.84798511938888 11.11928110731392 0 0 0
57 1 4 0.053 11.601664520036756 6.691021081404768 11.68792100071494 1 1 0
2142 6 4 0.053 10.238856413982571 8.856411104013226 11.270869562049281 0 0 0
2127 6 4 0.053 14.984858007184755 9.62830186486657 9.597642582852629 0 0 0
2122 6 3 -0.184 13.289867195660399 9.152160404862483 7.144442727374091 0 0 0
2126 6 2 0.131 15.32329818603952 10.656786519258704 9.27152821394014 0 0 0
2123 6 1 -0.106 14.842336291008044 11.211502134982211 7.88291659649089 0 0 0
2119 6 4 0.053 16.07790294061288 8.632765753026776 7.400144640624891 0 0 0
2137 6 4 0.053 12.80560236311663 9.935162252672816 10.166953847858021 0 0 0
66 1 3 -0.184 16.19760598649526 6.80183762182728 9.822086657528407 1 1 0
2135 6 1 -0.106 12.554622400285579 10.617623115781385 10.989774135217672 0 0 0
2131 6 4 0.053 15.412002948220094 10.962296648706811 11.346143089623062 0 0 0
2120 6 2 0.131 14.691458397621084 10.196839628785444 6.757365078346912 0 0 0
2117 6 1 -0.106 15.80294451216626 9.215134636393403 6.51452706832928 0 0 0
2129 6 1 -0.106 14.987181337360804 11.567458519696736 10.455980853832425 0 0 0
2125 6 4 0.053 13.95055541153823 11.875785186502327 7.965521956586526 0 0 0
2124 6 4 0.053 15.562085308375295 11.914065547512084 7.395549786405844 0 0 0
2128 6 3 -0.184 17.093944544295738 10.482665914443224 9.322058279038123 0 0 0
2132 6 2 0.131 13.426889456006782 11.88878230458878 10.696089133536631 0 0 0
63 1 4 0.053 13.360133804952905 42.118209070489144 10.03333035981648 1 0 0
2115 6 4 0.053 17.564992247546353 10.411246653107018 42.11198195281088 0 0 -1
2113 6 4 0.053 18.182870814969267 7.8384470667001835 6.574656318468366 0 0 0
1920 6 4 0.053 19.368498854503933 8.272709480176577 9.495397309249476 0 0 0
1919 6 1 -0.106 19.83087935391375 7.712964248084681 10.30843427449664 0 0 0
1921 6 4 0.053 19.005923692089116 7.455396409662132 11.04849155961169 0 0 0
2110 6 3 -0.184 19.99487176550896 9.889819936650916 6.802730740337415 0 0 0
1916 6 2 0.131 20.904876503021 8.587161935747488 11.025307089996438 0 0 0
1917 6 4 0.053 21.621757430931574 8.980101833357045 10.226664532229798 0 0 0
1915 6 4 0.053 19.820331248113604 10.377843433905442 10.858610066133108 0 0 0
1909 6 4 0.053 22.316681970638946 11.355733877485253 10.637481456885359 0 0 0
1927 6 4 0.053 22.471074454908894 6.920102096322332 9.618353729178247 0 0 0
1926 6 4 0.053 21.721240225097166 6.898945550201626 7.952000697020528 0 0 0
1922 6 2 0.131 20.40648413622167 6.396242252199733 9.725642878639384 0 0 0
1925 6 1 -0.106 21.765033688678415 6.380626529707144 8.955638501074517 0 0 0
2114 6 2 0.131 17.079182259338896 9.603789487080306 41.54827053185056 0 0 -1
2106 6 4 0.053 20.674431435266733 7.080537922578041 41.883868779416744 0 0 -1
1640 5 3 -0.184 23.18388963849753 10.624701163884373 7.891341875188354 -1 1 1
1637 5 4 0.053 23.86319011763326 8.563218657329731 9.429993090985159 -1 1 1
1636 5 4 0.053 24.767422742670394 9.832007388467392 10.268094414078952 -1 1 1
1635 5 1 -0.106 24.797669540074466 9.124550739142094 9.40265645669261 -1 1 1
1633 5 4 0.053 26.91217769806327 8.651808295575773 9.779136421002278 -1 1 1
1632 5 2 0.131 25.910240842521585 8.118655389942113 9.602155401213704 -1 1 1
1630 5 4 0.053 26.55654297647234 7.589538178185435 7.591786319717096 -1 1 1
1641 5 1 -0.106 25.844395058143323 11.25005945563169 8.304566652295712 -1 1 1
1642 5 4 0.053 26.759262873410524 11.012962426779573 8.88674066253735 -1 1 1
1638 5 2 0.131 24.886637565223047 10.041280786920362 8.123842324851186 -1 1 1
1639 5 4 0.053 25.127115613839372 9.442011456706746 7.1896338668734865 -1 1 1
1629 5 1 -0.106 26.072597142389736 7.050364907222608 8.486821677792369 -1 1 1
1644 5 2 0.131 26.31458506222581 11.816557800243952 6.901267952683596 -1 1 1
1634 5 3 -0.184 25.48304072141417 7.289261820955672 11.134930800746792 -1 1 1
1631 5 4 0.053 25.062456784693975 6.744323730035235 8.172380976049308 -1 1 1
1643 5 4 0.053 25.343786605107724 12.061302884227883 8.785057441497832 -1 1 1
1645 5 4 0.053 25.89460795173674 11.233965558017333 41.97312426260429 -1 1 0
1621 5 4 0.053 29.520568064368042 6.356779449067616 7.334966574502644 -1 1 1
323 1 4 0.053 28.79867885668712 9.06979274495973 11.790224628678118 -1 1 1
1622 5 3 -0.184 29.12119577517593 8.374371395430217 8.538753119796887 -1 1 1
1616 5 3 -0.184 32.97705257068469 8.118384605836065 9.038124014296795 -1 1 1
320 1 4 0.053 30.929894457637666 9.2752705922443 11.070044383741607 -1 1 1
311 1 4 0.053 33.57393402981441 10.312133733357008 10.769549567291385 -1 1 1
1615 5 4 0.053 31.70273564241795 7.134275809287554 7.146182651126927 -1 1 1
1609 5 4 0.053 34.85534045889001 6.724892183704548 7.014997005733106 -1 1 1
1620 5 2 0.131 29.540831841549455 6.7065705265047235 8.41972235554714 -1 1 1
1614 5 2 0.131 32.12416617634854 6.821081473997522 8.104063118463534 -1 1 1
1619 5 4 0.053 30.9485934163135 6.884434928583056 9.940997941850721 -1 1 1
319 1 1 -0.106 30.822340887201545 9.695755378567858 12.047284257719898 -1 1 1
324 1 3 -0.184 29.92648819939305 7.3400795677384245 12.7285576532935 -1 1 1
321 1 4 0.053 31.73616439400294 9.361073531530511 12.63421242107556 -1 1 1
300 1 3 -0.184 36.118036601773625 8.858446610451065 7.8659445587255625 -1 1 1
294 1 3 -0.184 39.67925179007791 11.03933169043443 8.701000990576105 -1 1 1
2587 8 4 0.053 39.890481056519846 8.111676726417697 10.38641750627511 -1 0 0
2586 8 2 0.131 40.14706686836864 7.515417437976278 11.228023193389493 -1 0 0
298 1 2 0.131 36.190631394469435 10.536952974401107 8.487059272315236 -1 1 1
302 1 4 0.053 35.74196973864248 9.46194698559646 10.22819003854751 -1 1 1
2594 8 3 -0.184 36.85937797748801 7.009883971148555 10.815471406885006 -1 0 0
301 1 1 -0.106 36.396428210399584 10.30574844844785 9.979994773472217 -1 1 1
303 1 4 0.053 37.40633500631971 9.844220362299994 10.196887484586624 -1 1 1
292 1 2 0.131 38.57859821873811 10.638284569854306 7.314913975248402 -1 1 1
293 1 4 0.053 38.38690775861595 9.59590172851263 7.268867538595675 -1 1 1
295 1 1 -0.106 37.245341957819 11.334026626702137 7.678135057938803 -1 1 1
2592 8 2 0.131 37.993681142706016 42.091119988202735 12.04015300444465 -1 -1 0
2581 8 4 0.053 40.392735962248736 10.323806435414657 11.474371205057405 -1 0 0
2589 8 1 -0.106 39.427576037018326 42.10297806458598 11.538145209265583 -1 -1 0
2590 8 4 0.053 39.320591782576614 41.57313146432561 10.540654876973655 -1 -1 0
2593 8 4 0.053 37.92907770443745 6.818517543995719 12.944363054600824 -1 0 0
2591 8 4 0.053 40.10241821557916 41.49642081913595 12.169728572454627 -1 -1 0
2588 8 3 -0.184 41.89755555158567 6.999372186922482 11.063364373132515 -1 0 0
2175 7 4 0.053 6.955904785576677 11.93438711375697 8.823795271946965 1 0 1
2174 7 4 0.053 7.4540492452228735 12.188013043128947 10.439820233130312 1 0 1
2139 6 4 0.053 10.69600590739039 11.831231853142654 10.618718993162753 0 0 0
2533 7 4 0.053 8.469472171684531 12.812945053755008 9.10794198719155 1 0 1
2173 7 1 -0.159 7.445305011404627 12.697347016618536 9.460281274340064 1 0 1
2938 9 3 -0.184 9.860300930249622 14.849554141289618 9.914988700866017 0 0 1
2183 7 4 0.053 41.808634756556295 16.623034155387934 8.980014379553355 0 0 1
2931 9 4 0.053 10.360934294755749 15.601557713319426 7.437921682269846 0 0 1
2177 7 4 0.053 7.0087612257872385 14.691694614813224 10.362976050529193 1 0 1
2934 9 4 0.053 10.968115392963963 17.22428324307363 9.110136829478561 0 0 1
2936 9 2 0.131 11.495007412039403 15.410775719300991 10.07102661286769 0 0 1
2950 9 3 -0.184 7.668961429293652 17.05983673413737 11.517996594584021 0 0 1
2180 7 4 0.053 7.2511680988496785 14.704503840350634 7.6633345849202605 1 0 1
2176 7 2 0.131 6.607860763754243 13.952639867818856 9.670859171557899 1 0 1
2927 9 1 -0.106 11.471401716254729 17.245553407373013 6.51661175499281 0 0 1
2933 9 1 -0.106 11.691824558933977 16.416946605495376 8.924397420992136 0 0 1
2930 9 2 0.131 11.346301173384976 16.00218138675059 7.476152670063875 0 0 1
2178 7 3 -0.184 40.84294837802902 13.461582090955531 10.215758474859435 0 0 1
2937 9 4 0.053 12.20968603852488 14.539968212065874 9.851042225091618 0 0 1
2130 6 4 0.053 15.516783972745355 12.551308409441766 10.34203146391407 0 0 0
2133 6 4 0.053 13.00942685058525 12.392767669144597 9.777814569039577 0 0 0
2935 9 4 0.053 12.67239218743575 16.936462039819745 8.969728515188361 0 0 1
2932 9 3 -0.184 12.712018955841927 14.991738791940655 7.0737934960667985 0 0 1
3220 9 3 -0.184 15.545582368123409 15.98564765403938 11.135788722122644 0 -1 1
2939 9 1 -0.106 11.599123174156741 16.103599189916842 11.463283184187176 0 0 1
2940 9 4 0.053 12.62132004560968 16.36505758772347 11.655992632056831 0 0 1
673 2 4 0.053 16.139647866167067 15.664498045289328 41.58387315172075 -1 0 0
682 2 4 0.053 18.211849687802065 16.801073702866468 7.607156467284561 -1 0 1
3218 9 2 0.131 16.784176615436152 17.264602054270895 11.214840660487404 0 -1 1
3219 9 4 0.053 17.38543633793919 17.044946464275046 10.225527719019025 0 -1 1
2134 6 3 -0.184 13.361050620914671 12.97172808017379 12.11515404297021 0 0 0
1908 6 4 0.053 20.939516447927144 12.415127475152323 10.993366319720824 0 0 0
685 2 4 0.053 18.452531188985013 14.49920562807062 6.574225054785936 -1 0 1
3229 9 4 0.053 17.724575865769072 14.006303586838683 10.992299985668007 0 -1 1
686 2 3 -0.184 19.222396291603978 14.582876929958564 8.81039208330048 -1 0 1
681 2 1 -0.106 19.04010356562616 16.520323835781006 6.945214630263411 -1 0 1
689 2 4 0.053 20.950792900273584 13.630548698792158 7.158738167407021 -1 0 1
684 2 2 0.131 19.264937429145398 15.012320091967334 7.0718763300247955 -1 0 1
688 2 4 0.053 21.392162158279664 15.356253211464404 6.826926039362998 -1 0 1
687 2 1 -0.106 20.63266033002531 14.584983561815067 6.559603908679881 -1 0 1
683 2 4 0.053 19.96763148834316 16.971676667728136 7.329648102854822 -1 0 1
3225 9 4 0.053 18.9902968700362 15.999713246226978 11.016460808644576 0 -1 1
1876 6 3 -0.184 21.06319589917222 18.11992054450736 9.802671194255279 0 0 0
678 2 2 0.131 18.679732277259212 17.243537999060315 41.44255536688924 -1 0 0
1906 6 3 -0.184 23.00546152670718 13.899393038688197 10.70987132724065 0 0 0
1646 5 3 -0.184 28.045665414475646 11.294039041502483 6.8114876057765565 -1 1 1
1649 5 4 0.053 25.10974446844295 13.397981899193262 42.093017086955335 -1 1 0
1881 6 4 0.053 23.742493389463984 17.069623697465637 9.606243169886236 0 0 0
1647 5 1 -0.106 26.097817686757065 13.322124583335116 6.617259923844686 -1 1 1
1890 6 4 0.053 25.534674377890813 15.450562245115744 10.3383041997253 0 0 0
1648 5 4 0.053 25.99923488901534 13.894250135166612 7.5743178491437915 -1 1 1
3333 10 4 0.053 28.99338863343632 17.173106953133424 6.843602051870262 0 0 1
1897 6 4 0.053 25.801050521935746 13.368590700916094 11.175166242365567 0 0 0
1651 5 4 0.053 28.05745859332601 14.091461888937584 41.80814465368242 -1 1 0
1650 5 2 0.131 26.98390055051134 14.058678599595538 41.42410536549184 -1 1 0
1652 5 3 -0.184 26.330244039540922 15.742380814718668 41.25349972363266 -1 1 0
318 1 3 -0.184 29.4142922094632 11.916762830522956 11.034256320913517 -1 1 1
310 1 2 0.131 33.473918536008654 11.280770838467248 11.340441388994837 -1 1 1
313 1 1 -0.106 32.066777929401326 11.817130472117023 11.116352556879194 -1 1 1
315 1 4 0.053 31.875776142893645 11.771591195315452 9.985729649556184 -1 1 1
3329 10 4 0.053 30.43933249175341 15.254861988046159 6.361032657590276 0 0 1
3324 10 3 -0.184 31.39420003677808 14.529737803220506 9.002923975802096 0 0 1
3322 10 2 0.131 31.009546437534773 16.27688580057727 8.863024004184936 0 0 1
3320 10 4 0.053 30.721010176240224 16.86610854626483 10.89374284973849 0 0 1
3321 10 4 0.053 32.325544733954324 16.29152908348284 10.591249999565907 0 0 1
3319 10 1 -0.106 31.53962253724422 16.930400550137115 10.17353176273777 0 0 1
3325 10 1 -0.106 31.677458914283584 16.698129391388978 7.55051303792494 0 0 1
3327 10 4 0.053 32.673891450929055 16.20244575323497 7.447482882548029 0 0 1
314 1 4 0.053 32.177731564506765 12.926868070536544 11.37522879710783 -1 1 1
3326 10 4 0.053 31.772275174410215 17.7767111470865 7.4336675505896626 0 0 1
3328 10 2 0.131 30.84549456721943 16.250129562616443 6.338793645514677 0 0 1
2983 9 4 0.053 34.57442169242879 17.245900054856822 8.32330432854847 -1 0 1
2989 9 4 0.053 34.16623275364851 15.888853650774555 42.015240646504736 -1 0 0
2026 6 3 -0.184 33.45914386658056 12.129901806056619 6.443174020165654 0 0 0
299 1 4 0.053 35.23991402822291 10.932354339331994 8.214428220111403 -1 1 1
296 1 4 0.053 36.68794744363563 11.691118869872234 6.78252639839579 -1 1 1
307 1 1 -0.106 34.664718506685084 12.121393851385815 10.968215069361154 -1 1 1
309 1 4 0.053 34.51905771992945 12.477023116668526 9.877724479727485 -1 1 1
304 1 2 0.131 36.10693096676804 11.549994565684102 10.913405526015925 -1 1 1
2976 9 4 0.053 35.82256012526895 16.954876867389373 10.816356805691752 -1 0 1
2981 9 1 -0.106 35.48044416324891 17.690481831268663 7.984065699555698 -1 0 1
297 1 4 0.053 37.373690263899405 12.286599693954976 8.188140416440476 -1 1 1
306 1 3 -0.184 37.28027656684523 12.862834886413296 10.718413817823391 -1 1 1
2980 9 3 -0.184 36.46176851340542 15.339892640606429 8.786349244040046 -1 0 1
2978 9 2 0.131 36.62100399383352 17.09235663885749 8.830414844652175 -1 0 1
2973 9 4 0.053 38.42257774896173 16.678793990569417 10.948460325091386 -1 0 1
2972 9 2 0.131 37.77727505787918 17.581255285073077 11.06520636185625 -1 0 1
2975 9 1 -0.106 36.49049436458937 17.588051411193263 10.259631576732966 -1 0 1
2187 7 4 0.053 41.498597108950264 16.00127435297214 41.77659511068731 0 0 0
2984 9 2 0.131 35.64885080576457 17.453421303569982 6.438837751093144 -1 0 1
2184 7 3 -0.184 39.751634155987745 15.791480230640676 8.167625308809416 0 0 1
2181 7 4 0.053 41.68113447977494 13.828352790853952 7.6949953776189215 0 0 1
2185 7 1 -0.106 41.9156801326924 16.657050925627452 6.722784123944049 0 0 1
2179 7 1 -0.106 6.299385241293294 14.586269300329159 8.27958074365323 1 0 1
2182 7 2 0.131 41.47755077616226 16.01974318144125 8.137055598597817 0 0 1
2943 9 4 0.053 9.979047198363714 17.570447836079417 10.992700367496708 0 0 1
2196 7 3 -0.184 9.022347384799355 19.691707168353506 8.231977062812074 1 0 1
2205 7 4 0.053 8.645699739956402 20.33386229014679 10.628462419314438 1 0 1
2204 7 4 0.053 8.281523439218262 21.990758346082718 10.375436993168499 1 0 1
3201 9 4 0.053 10.885824128046881 21.94481535245837 8.503191498740767 0 -1 1
2203 7 1 -0.106 7.889215452639266 21.080548170517915 10.911959330716261 1 0 1
2195 7 4 0.053 7.152703312101011 18.39950160487225 8.936205689521206 1 0 1
3200 9 2 0.131 11.615832324626506 22.768437783792358 8.709911682782534 0 -1 1
3208 9 3 -0.184 12.320864954679756 19.760060654298 8.825610459218797 0 -1 1
2929 9 4 0.053 11.023837836374918 18.105777498088322 6.985051975163379 0 0 1
2194 7 2 0.131 7.274336553116238 19.248934968166665 8.228220876680819 1 0 1
3196 9 3 -0.184 9.64485489059011 22.608235390689604 42.01065524431388 0 -1 0
2928 9 4 0.053 12.589970374998103 17.579422099769005 6.5783089517439635 0 0 1
3205 9 4 0.053 12.295656190679136 22.133027011457617 10.664237599629502 0 -1 1
3199 9 4 0.053 12.744301695242793 22.379101194478643 6.869098259070525 0 -1 1
3215 9 1 -0.106 16.096602636534847 18.573636930934867 11.246297380973584 0 -1 1
3213 9 4 0.053 14.736354629592832 18.19886019313512 9.599768202184359 0 -1 1
3207 9 4 0.053 14.124331703909009 21.248925292710375 8.354967114059756 0 -1 1
3203 9 1 -0.106 12.742001001100483 22.24476087140641 9.6881489160895 0 -1 1
3206 9 2 0.131 13.57164489603537 21.005275945518214 9.200666273921557 0 -1 1
3214 9 3 -0.184 16.455215693583195 19.66886426263341 8.818442951280211 0 -1 1
3212 9 2 0.131 15.28969659868746 19.06195105904161 10.041344372213278 0 -1 1
3209 9 1 -0.106 14.413925826973582 20.30947360634663 10.298926343037245 0 -1 1
3210 9 4 0.053 14.927740864723999 21.053398935801468 10.89630300349468 0 -1 1
3211 9 4 0.053 13.65087945369045 19.984500439031226 11.077002177001734 0 -1 1
3216 9 4 0.053 16.8528075286451 19.350876058905193 11.54111558863444 0 -1 1
3204 9 4 0.053 13.401897177270435 23.09384398441873 9.750327878367447 0 -1 1
3543 10 4 0.053 16.073157776449534 23.233016722286777 11.29457139967803 0 0 1
3197 9 1 -0.106 12.143931201561104 23.21054629879918 7.360519573600613 0 -1 1
1858 6 3 -0.184 16.183998888624107 23.321676628435785 7.88305093493507 0 0 0
3198 9 4 0.053 12.945866147264933 23.912262790802362 7.536536993963609 0 -1 1
679 2 4 0.053 18.213463388953002 18.230479938644397 41.685689394726325 -1 0 0
1867 6 4 0.053 19.33505737393984 21.891229845304863 8.205400135931667 0 0 0
1868 6 2 0.131 20.714998323901124 21.55949455426899 9.851300619373209 0 0 0
1869 6 4 0.053 21.357970733127253 22.16372890015402 10.457273531045539 0 0 0
1871 6 1 -0.106 21.507936557209902 20.61006424133059 8.941631888091514 0 0 0
1872 6 4 0.053 22.089874513567697 21.248752490803383 8.249401680794584 0 0 0
1870 6 3 -0.184 19.599352873576848 20.608801453545404 10.918582894862222 0 0 0
1873 6 4 0.053 20.8070365990599 20.095576374461974 8.191367953755048 0 0 0
1874 6 2 0.131 22.25611815436136 19.410248652841076 9.565485559215833 0 0 0
1865 6 1 -0.106 19.81356348405764 22.50522537717215 8.968138114599196 0 0 0
1875 6 4 0.053 22.6733997243055 19.696372136657935 10.558331630348867 0 0 0
1866 6 4 0.053 20.464211766941887 23.13480959000446 8.388411205112076 0 0 0
1863 6 4 0.053 18.12052180488849 22.922474690802332 10.228471795776246 0 0 0
1862 6 2 0.131 18.884938183682927 23.480638502467876 9.702093429599515 0 0 0
1864 6 3 -0.184 19.65918175198847 24.148714186778882 11.185979359647433 0 0 0
1882 6 3 -0.184 25.423456585336428 17.276455681144412 8.106142736658107 0 0 0
1880 6 2 0.131 24.292287563723384 17.922282746326466 9.310747597823614 0 0 0
1883 6 1 -0.106 25.05582155505432 18.426526168650042 10.469549827953248 0 0 0
1879 6 4 0.053 22.836797655001586 18.387217434494424 7.770862182678732 0 0 0
2322 7 3 -0.184 24.339592007616428 22.210913751055728 11.305193260142726 0 0 1
1877 6 1 -0.106 23.3642863242594 18.951335804377948 8.630264455784577 0 0 0
1878 6 4 0.053 23.873986576639545 19.839610259400015 8.165794992496984 0 0 0
1885 6 4 0.053 25.609269865488695 19.31015154793581 10.126701800608737 0 0 0
2334 7 3 -0.184 28.048701559595678 21.089118842540326 10.819793658935179 0 0 1
3336 10 3 -0.184 28.433813654055214 19.422463716580307 6.290617234050374 0 0 1
2327 7 4 0.053 26.281213412010633 23.607380837968826 11.35731419466534 0 0 1
2326 7 2 0.131 26.60755479426109 23.673726573007965 12.460963414518403 0 0 1
1884 6 4 0.053 24.44150447210549 18.78102568812573 11.312479518781673 0 0 0
3323 10 4 0.053 29.960718318447018 16.369567129592483 8.774163396086983 0 0 1
3318 10 3 -0.184 32.87628880832308 18.68392311590672 11.753165942137272 0 0 1
3317 10 4 0.053 32.980699432286826 18.179146450488062 9.365844281578052 0 0 1
3316 10 2 0.131 32.210016884265265 18.33318070862125 10.151371631230457 0 0 1
3314 10 4 0.053 30.623377958031863 19.60354127105736 10.934694342807525 0 0 1
3313 10 1 -0.106 31.265763829872455 19.520992647208065 9.99683325664825 0 0 1
3308 10 4 0.053 30.204844977777064 21.71559089025667 8.939180804075058 0 0 1
3309 10 4 0.053 30.58815584113975 22.266267420297766 10.601642168695232 0 0 1
3310 10 2 0.131 31.977093399677614 20.83791633999165 9.729490614742057 0 0 1
3307 10 1 -0.106 31.004926008215605 22.028187542743094 9.60531814811212 0 0 1
3312 10 3 -0.184 32.7088726229791 20.59749906966953 8.055462145303396 0 0 1
3311 10 4 0.053 32.87661881936684 21.159719528028635 10.342550545132035 0 0 1
3315 10 4 0.053 30.59698571739335 19.318898371382577 9.06058032080485 0 0 1
3305 10 4 0.053 32.61591329812174 23.228190361849183 8.43640227963359 0 0 1
3335 10 4 0.053 30.840218169992422 19.08898705063349 6.373092429105393 0 0 1
3380 10 4 0.053 35.101974423221456 21.951881949664223 10.374671062818166 0 0 1
3374 10 4 0.053 35.767107339057944 22.06827036810036 7.82695946289925 0 0 1
2982 9 4 0.053 35.37692005776948 18.771642256994795 8.18348974024446 -1 0 1
2979 9 4 0.053 37.54130546644903 17.35062486557699 8.401011210565192 -1 0 1
2977 9 4 0.053 36.02505038758914 18.51694842000805 10.272071903386678 -1 0 1
3381 10 4 0.053 36.52912099007368 20.98996701615686 10.332785651476541 0 0 1
3375 10 4 0.053 37.26959329201483 21.25052255488704 8.170214748839303 0 0 1
2974 9 3 -0.184 38.76394292607603 18.861702695232086 10.334167601564253 -1 0 1
3373 10 1 -0.106 36.82536361228658 22.301201393474045 8.071505443014432 0 0 1
3376 10 2 0.131 36.85154880757432 22.926690725696176 9.514008190134302 0 0 1
3379 10 1 -0.106 36.17683344389506 21.972795676506387 10.534902517837182 0 0 1
3370 10 2 0.131 37.54201726545857 23.014958059915642 6.895990994458921 0 0 1
3372 10 3 -0.184 39.29767051531641 22.720286238055103 6.916746444974872 0 0 1
2189 7 4 0.053 40.71751614518246 18.38653493883022 7.170489785472861 0 0 1
2188 7 2 0.131 41.61325267630882 18.12508215658944 6.484605681197445 0 0 1
2199 7 4 0.053 41.20604846718375 20.120739524171263 8.458301890114408 0 0 1
3377 10 4 0.053 37.85648970794891 23.130202803585536 9.932328097783941 0 0 1
3368 10 4 0.053 37.52324206124169 21.800919351111162 40.96524038984924 0 0 0
2202 7 3 -0.184 41.18201970775158 22.084479786994407 10.45287164898064 0 0 1
2198 7 4 0.053 6.654775555700062 21.359158880018196 8.382739130415489 1 0 1
2191 7 1 -0.106 6.916327589482014 19.024848338597558 6.716511653571379 1 0 1
2197 7 1 -0.106 6.36632351614869 20.394774827775215 8.8369311917695 1 0 1
2200 7 2 0.131 6.429098030007305 20.70275363260382 10.356119275926345 1 0 1
2201 7 4 0.053 41.838474974145726 19.754572980448017 10.742357563926463 0 0 1
2193 7 4 0.053 6.6311717516651765 20.02968986332663 6.300482451946217 1 0 1
2882 8 3 -0.184 8.272887475116917 28.18645894879269 10.27970654182647 0 -1 1
2880 8 2 0.131 7.832390783048582 26.61551499633381 11.016466672006711 0 -1 1
2879 8 4 0.053 8.633731475685986 25.237188886149188 9.76627386508139 0 -1 1
2877 8 1 -0.106 7.63917293537813 25.497545779811716 10.02692856150096 0 -1 1
3180 9 4 0.053 10.5079649050252 27.167566086065133 7.250862333646242 0 -1 1
3179 9 1 -0.106 11.071973684127382 27.978774923900296 6.790412820286042 0 -1 1
2884 8 4 0.053 9.7569565960497 26.29625147539237 11.594933369422545 0 -1 1
3195 9 4 0.053 10.618653344003736 24.692136113003915 6.991499193720494 0 -1 1
3202 9 3 -0.184 10.76051520756696 24.048207090454707 9.590487310987061 0 -1 1
2878 8 4 0.053 7.081962378425792 24.656645600642733 10.524236597849486 0 -1 1
2883 8 1 -0.106 8.78968006504374 26.133014773975013 12.112110795881078 0 -1 1
3175 9 4 0.053 11.944124709464308 28.34220341822681 9.890996128397877 0 -1 1
3176 9 2 0.131 12.17385823890883 28.554492065435273 7.671079570769772 0 -1 1
2881 8 4 0.053 6.898794269234359 26.9192068480637 11.455816434296793 0 -1 1
2875 8 4 0.053 7.075071467733761 26.853243506385166 8.403703131478084 0 -1 1
2876 8 3 -0.184 7.377723315338706 24.696230937086995 7.487311429462066 0 -1 1
3181 9 4 0.053 10.333732371748734 28.796313794463835 6.642909970343436 0 -1 1
1573 5 4 0.053 7.757604110034606 29.522830072278623 7.417991092346393 0 0 1
3194 9 2 0.131 11.011089503384849 23.79582179879046 6.426167415872295 0 -1 1
3536 10 4 0.053 15.271552278920144 25.751874499934708 10.738472931187573 0 0 1
3531 10 4 0.053 15.87428457586658 28.415814850710024 10.607027660933424 0 0 1
3178 9 3 -0.184 13.244799409071005 27.145629561687315 7.905040634504596 0 -1 1
1855 6 4 0.053 16.24231762226998 26.00207836910205 7.366857745627208 0 0 0
1853 6 1 -0.106 17.142957369032267 25.627240864278605 6.8827430321837895 0 0 0
3529 10 1 -0.106 16.44527319659995 28.41158381329994 11.545808328409787 0 0 1
3535 10 1 -0.106 15.33883301376603 26.032423368719012 11.79988294451286 0 0 1
3530 10 4 0.053 15.835153625470454 28.879814660188078 12.319474765361333 0 0 1
3533 10 4 0.053 17.52855685056354 26.459194259707118 11.444459311465089 0 0 1
3537 10 4 0.053 14.442802335041451 26.596435225675123 12.014224119671049 0 0 1
1854 6 4 0.053 17.99332667192143 26.26996916559087 7.0325805636381125 0 0 0
1861 6 4 0.053 17.72548473767917 25.228885444128583 9.431876742451308 0 0 0
1857 6 4 0.053 18.29349953838095 23.786909093844297 6.989729619767568 0 0 0
1856 6 2 0.131 17.612031938386217 24.315060149322097 7.597476784093173 0 0 0
1859 6 1 -0.106 18.38209215135931 24.62450006642873 8.859629548901166 0 0 0
1860 6 4 0.053 19.17848560822059 25.298939493325296 8.523593117424705 0 0 0
3528 10 3 -0.184 18.349113305656807 28.22213880289088 9.832240324944635 0 0 1
380 2 3 -0.184 21.607621552128947 28.652577122293035 10.346891680226745 0 1 0
373 2 4 0.053 22.58806595076656 26.610207552301674 8.75214068453226 0 1 0
369 2 1 -0.106 23.22168587533554 27.128894460209548 6.679114202250706 0 1 0
372 2 2 0.131 23.419729169186297 27.167688962209496 8.226374120480557 0 1 0