units real
atom_style full
boundary p p p

# --- Force Field Styles ---
pair_style lj/class2/coul/long 9.5 9.5
kspace_style pppm 1e-6
dielectric 1.000000
bond_style class2
angle_style class2
dihedral_style class2
improper_style class2
special_bonds lj/coul 0 0 1
pair_modify mix sixthpower tail yes
neighbor 2.0 bin
neigh_modify delay 0 every 1 check yes
neigh_modify one 4000
package gpu 1 neigh no

read_data /home/arz2/PolyJarvis/data/PVC1/lammps/equil/npt_cool300/npt_cool300_out.data
Reading data file ...
  orthogonal box = (6.2085995 6.2085995 6.2085995) to (42.176896 42.176896 42.176896)
  1 by 1 by 1 MPI processor grid
  reading atoms ...
  3620 atoms
  reading velocities ...
  3620 velocities
  scanning bonds ...
  4 = max bonds/atom
  scanning angles ...
  6 = max angles/atom
  scanning dihedrals ...
  12 = max dihedrals/atom
  scanning impropers ...
  4 = max impropers/atom
  orthogonal box = (6.2085995 6.2085995 6.2085995) to (42.176896 42.176896 42.176896)
  1 by 1 by 1 MPI processor grid
  reading bonds ...
  3610 bonds
  reading angles ...
  7200 angles
  reading dihedrals ...
  10710 dihedrals
  reading impropers ...
  4800 impropers
Finding 1-2 1-3 1-4 neighbors ...
  special bond factors lj:    0        0        1       
  special bond factors coul:  0        0        1       
     4 = max # of 1-2 neighbors
     6 = max # of 1-3 neighbors
    10 = max # of special neighbors
  special bonds CPU = 0.002 seconds
  read_data CPU = 0.207 seconds
include /home/arz2/PolyJarvis/data/PVC1/lammps/equil/emc_build.params
# LAMMPS parameters created by EMC v9.4.4, build Jul 31 2025 20:33:44

# Variables

variable	seed		index	-1
variable	ntotal		index	3620
variable	fshape		index	1
variable	output		index	emc_build
variable	field		index	pcff/pcff
variable	location1	index	/home/arz2/emc/field/
variable	nav		index	0.6022141179
variable	temperature	index	300
variable	radius		index	5
variable	nrelax		index	100
variable	weight_nonbond	index	0.0001
variable	weight_bond	index	0.0001
variable	weight_focus	index	1
variable	cutoff		index	9.5
variable	charge_cutoff	index	9.5
variable	kappa		index	4
variable	density1	index	0.55
variable	lprevious	index	0
variable	lphase		index	48.3854950346
variable	f_poly		index	10
variable	chem_repeat	index	*CC(Cl)*
variable	chem_cap	index	*[H]
variable	lg_repeat	index	6
variable	lg_cap		index	1
variable	norm_poly	index	100
variable	l_poly		index	362
variable	mg_repeat	index	50.48806
variable	mg_cap		index	1.00797
variable	m_poly		index	3031.29954
variable	n_poly		index	10
variable	mtotal		index	37519.6854
variable	nphase1		index	3620
variable	mphase1		index	37519.6854
variable	vphase1		index	113277.998291
variable	lbox		index	48.3854950346
variable	lphase1		index	48.3854950346
variable	lxx		index	48.3854950346
variable	lyy		index	48.3854950346
variable	lzz		index	48.3854950346
variable	lzy		index	0
variable	lzx		index	0
variable	lyx		index	0
variable	vtotal		index	113277.998291
variable	nl_poly		index	10

# Types

variable	type_c		index	1
variable	type_c1		index	2
variable	type_cl		index	3
variable	type_hc		index	4

variable	type_bond_c_c	index	1
variable	type_bond_c_c1	index	2
variable	type_bond_c_cl	index	3
variable	type_bond_c_hc	index	4
variable	type_bond_c1_cl	index	5
variable	type_bond_c1_hc	index	6

variable	type_angle_c_c_c1 index	1
variable	type_angle_c_c_cl index	2
variable	type_angle_c_c_hc index	3
variable	type_angle_c_c1_c index	4
variable	type_angle_c_c1_cl index	5
variable	type_angle_c_c1_hc index	6
variable	type_angle_c1_c_c1 index	7
variable	type_angle_c1_c_hc index	8
variable	type_angle_cl_c_hc index	9
variable	type_angle_cl_c1_hc index	10
variable	type_angle_hc_c_hc index	11

# Clusters

variable	n0_poly		index	1
variable	n1_poly		index	10
variable	nl_poly		index	10

# Flags

variable	flag_charged	index	1

# Masses

mass		1    12.01115  # c
mass		2    12.01115  # c1
mass		3    35.45300  # cl
mass		4     1.00797  # hc

# Potentials

pair_modify	mix sixthpower tail yes
special_bonds	lj/coul 0 0 1

# Pair Coeffs

pair_coeff	 1  1    0.05400    4.01000  # c,c
pair_coeff	 2  2    0.05400    4.01000  # c1,c1
pair_coeff	 3  3    0.22470    3.92000  # cl,cl
pair_coeff	 4  4    0.02000    2.99500  # hc,hc

# Bond Coeffs

bond_coeff	1    1.53000  299.67000 -501.77000  679.81000  # c,c
bond_coeff	2    1.53000  299.67000 -501.77000  679.81000  # c,c1
bond_coeff	3    1.79000  194.31900    0.00000    0.00000  # c,cl
bond_coeff	4    1.10100  345.00000 -691.89000  844.60000  # c,hc
bond_coeff	5    1.79000  194.31900    0.00000    0.00000  # c1,cl
bond_coeff	6    1.10100  345.00000 -691.89000  844.60000  # c1,hc

# Angle Coeffs

angle_coeff	 1  112.67000   39.51600   -7.44300   -9.55830  # c,c,c1
angle_coeff	 2  107.00000   61.17450    0.00000    0.00000  # c,c,cl
angle_coeff	 3  110.77000   41.45300  -10.60400    5.12900  # c,c,hc
angle_coeff	 4  112.67000   39.51600   -7.44300   -9.55830  # c,c1,c
angle_coeff	 5  107.00000   61.17450    0.00000    0.00000  # c,c1,cl
angle_coeff	 6  110.77000   41.45300  -10.60400    5.12900  # c,c1,hc
angle_coeff	 7  112.67000   39.51600   -7.44300   -9.55830  # c1,c,c1
angle_coeff	 8  110.77000   41.45300  -10.60400    5.12900  # c1,c,hc
angle_coeff	 9  107.99680   51.09870    0.00000    0.00000  # cl,c,hc
angle_coeff	10  107.99680   51.09870    0.00000    0.00000  # cl,c1,hc
angle_coeff	11  107.66000   39.64100  -12.92100   -2.43180  # hc,c,hc

# BondBond Coeffs

angle_coeff	 1 bb    0.00000    1.53000    1.53000  # c,c,c1
angle_coeff	 2 bb    0.00000    1.53000    1.79000  # c,c,cl
angle_coeff	 3 bb    3.38720    1.53000    1.10100  # c,c,hc
angle_coeff	 4 bb    0.00000    1.53000    1.53000  # c,c1,c
angle_coeff	 5 bb    0.00000    1.53000    1.79000  # c,c1,cl
angle_coeff	 6 bb    3.38720    1.53000    1.10100  # c,c1,hc
angle_coeff	 7 bb    0.00000    1.53000    1.53000  # c1,c,c1
angle_coeff	 8 bb    3.38720    1.53000    1.10100  # c1,c,hc
angle_coeff	 9 bb    0.00000    1.79000    1.10100  # cl,c,hc
angle_coeff	10 bb    0.00000    1.79000    1.10100  # cl,c1,hc
angle_coeff	11 bb    5.33160    1.10100    1.10100  # hc,c,hc

# BondAngle Coeffs

angle_coeff	 1 ba    8.01600    8.01600    1.53000    1.53000  # c,c,c1
angle_coeff	 2 ba    0.00000    0.00000    1.53000    1.79000  # c,c,cl
angle_coeff	 3 ba   20.75400   11.42100    1.53000    1.10100  # c,c,hc
angle_coeff	 4 ba    8.01600    8.01600    1.53000    1.53000  # c,c1,c
angle_coeff	 5 ba    0.00000    0.00000    1.53000    1.79000  # c,c1,cl
angle_coeff	 6 ba   20.75400   11.42100    1.53000    1.10100  # c,c1,hc
angle_coeff	 7 ba    8.01600    8.01600    1.53000    1.53000  # c1,c,c1
angle_coeff	 8 ba   20.75400   11.42100    1.53000    1.10100  # c1,c,hc
angle_coeff	 9 ba    0.00000    0.00000    1.79000    1.10100  # cl,c,hc
angle_coeff	10 ba    0.00000    0.00000    1.79000    1.10100  # cl,c1,hc
angle_coeff	11 ba   18.10300   18.10300    1.10100    1.10100  # hc,c,hc

# Dihedral Coeffs

dihedral_coeff	 1    0.00000    0.00000    0.05140    0.00000   -0.14300    0.00000  # c,c,c1,c
dihedral_coeff	 2    0.00000    0.00000    0.00000    0.00000    0.15000    0.00000  # c,c,c1,cl
dihedral_coeff	 3    0.00000    0.00000    0.03160    0.00000   -0.16810    0.00000  # c,c,c1,hc
dihedral_coeff	 4    0.00000    0.00000    0.05140    0.00000   -0.14300    0.00000  # c,c1,c,c1
dihedral_coeff	 5    0.00000    0.00000    0.03160    0.00000   -0.16810    0.00000  # c,c1,c,hc
dihedral_coeff	 6    0.00000    0.00000    0.00000    0.00000    0.15000    0.00000  # c1,c,c,cl
dihedral_coeff	 7    0.00000    0.00000    0.03160    0.00000   -0.16810    0.00000  # c1,c,c,hc
dihedral_coeff	 8    0.00000    0.00000    0.00000    0.00000    0.15000    0.00000  # c1,c,c1,cl
dihedral_coeff	 9    0.00000    0.00000    0.03160    0.00000   -0.16810    0.00000  # c1,c,c1,hc
dihedral_coeff	10    0.00000    0.00000    0.00000    0.00000   -0.10000    0.00000  # cl,c,c,hc
dihedral_coeff	11    0.00000    0.00000    0.00000    0.00000   -0.10000    0.00000  # cl,c1,c,hc
dihedral_coeff	12   -0.14320    0.00000    0.06170    0.00000   -0.10830    0.00000  # hc,c,c,hc
dihedral_coeff	13   -0.14320    0.00000    0.06170    0.00000   -0.10830    0.00000  # hc,c,c1,hc

# MiddleBondTorsion Coeffs

dihedral_coeff	 1 mbt  -17.78700   -7.18770    0.00000    1.53000  # c,c,c1,c
dihedral_coeff	 2 mbt    0.00000    0.00000    0.00000    1.53000  # c,c,c1,cl
dihedral_coeff	 3 mbt  -14.87900   -3.65810   -0.31380    1.53000  # c,c,c1,hc
dihedral_coeff	 4 mbt  -17.78700   -7.18770    0.00000    1.53000  # c,c1,c,c1
dihedral_coeff	 5 mbt  -14.87900   -3.65810   -0.31380    1.53000  # c,c1,c,hc
dihedral_coeff	 6 mbt    0.00000    0.00000    0.00000    1.53000  # c1,c,c,cl
dihedral_coeff	 7 mbt  -14.87900   -3.65810   -0.31380    1.53000  # c1,c,c,hc
dihedral_coeff	 8 mbt    0.00000    0.00000    0.00000    1.53000  # c1,c,c1,cl
dihedral_coeff	 9 mbt  -14.87900   -3.65810   -0.31380    1.53000  # c1,c,c1,hc
dihedral_coeff	10 mbt    0.00000    0.00000    0.00000    1.53000  # cl,c,c,hc
dihedral_coeff	11 mbt    0.00000    0.00000    0.00000    1.53000  # cl,c1,c,hc
dihedral_coeff	12 mbt  -14.26100   -0.53220   -0.48640    1.53000  # hc,c,c,hc
dihedral_coeff	13 mbt  -14.26100   -0.53220   -0.48640    1.53000  # hc,c,c1,hc

# EndBondTorsion Coeffs

dihedral_coeff	 1 ebt   -0.07320    0.00000    0.00000   -0.07320    0.00000    0.00000    1.53000    1.53000  # c,c,c1,c
dihedral_coeff	 2 ebt    0.00000    0.00000    0.00000    0.00000    0.00000    0.00000    1.53000    1.79000  # c,c,c1,cl
dihedral_coeff	 3 ebt    0.24860    0.24220   -0.09250    0.08140    0.05910    0.22190    1.53000    1.10100  # c,c,c1,hc
dihedral_coeff	 4 ebt   -0.07320    0.00000    0.00000   -0.07320    0.00000    0.00000    1.53000    1.53000  # c,c1,c,c1
dihedral_coeff	 5 ebt    0.24860    0.24220   -0.09250    0.08140    0.05910    0.22190    1.53000    1.10100  # c,c1,c,hc
dihedral_coeff	 6 ebt    0.00000    0.00000    0.00000    0.00000    0.00000    0.00000    1.53000    1.79000  # c1,c,c,cl
dihedral_coeff	 7 ebt    0.24860    0.24220   -0.09250    0.08140    0.05910    0.22190    1.53000    1.10100  # c1,c,c,hc
dihedral_coeff	 8 ebt    0.00000    0.00000    0.00000    0.00000    0.00000    0.00000    1.53000    1.79000  # c1,c,c1,cl
dihedral_coeff	 9 ebt    0.24860    0.24220   -0.09250    0.08140    0.05910    0.22190    1.53000    1.10100  # c1,c,c1,hc
dihedral_coeff	10 ebt    0.00000    0.00000    0.00000    0.00000    0.00000    0.00000    1.79000    1.10100  # cl,c,c,hc
dihedral_coeff	11 ebt    0.00000    0.00000    0.00000    0.00000    0.00000    0.00000    1.79000    1.10100  # cl,c1,c,hc
dihedral_coeff	12 ebt    0.21300    0.31200    0.07770    0.21300    0.31200    0.07770    1.10100    1.10100  # hc,c,c,hc
dihedral_coeff	13 ebt    0.21300    0.31200    0.07770    0.21300    0.31200    0.07770    1.10100    1.10100  # hc,c,c1,hc

# AngleTorsion Coeffs

dihedral_coeff	 1 at    0.38860   -0.31390    0.13890    0.38860   -0.31390    0.13890  112.67000  112.67000  # c,c,c1,c
dihedral_coeff	 2 at    0.00000    0.00000    0.00000    0.00000    0.00000    0.00000  112.67000  107.00000  # c,c,c1,cl
dihedral_coeff	 3 at   -0.24540    0.00000   -0.11360    0.31130    0.45160   -0.19880  112.67000  110.77000  # c,c,c1,hc
dihedral_coeff	 4 at    0.38860   -0.31390    0.13890    0.38860   -0.31390    0.13890  112.67000  112.67000  # c,c1,c,c1
dihedral_coeff	 5 at   -0.24540    0.00000   -0.11360    0.31130    0.45160   -0.19880  112.67000  110.77000  # c,c1,c,hc
dihedral_coeff	 6 at    0.00000    0.00000    0.00000    0.00000    0.00000    0.00000  112.67000  107.00000  # c1,c,c,cl
dihedral_coeff	 7 at   -0.24540    0.00000   -0.11360    0.31130    0.45160   -0.19880  112.67000  110.77000  # c1,c,c,hc
dihedral_coeff	 8 at    0.00000    0.00000    0.00000    0.00000    0.00000    0.00000  112.67000  107.00000  # c1,c,c1,cl
dihedral_coeff	 9 at   -0.24540    0.00000   -0.11360    0.31130    0.45160   -0.19880  112.67000  110.77000  # c1,c,c1,hc
dihedral_coeff	10 at    0.00000    0.00000    0.00000    0.00000    0.00000    0.00000  107.00000  110.77000  # cl,c,c,hc
dihedral_coeff	11 at    0.00000    0.00000    0.00000    0.00000    0.00000    0.00000  107.00000  110.77000  # cl,c1,c,hc
dihedral_coeff	12 at   -0.80850    0.55690   -0.24660   -0.80850    0.55690   -0.24660  110.77000  110.77000  # hc,c,c,hc
dihedral_coeff	13 at   -0.80850    0.55690   -0.24660   -0.80850    0.55690   -0.24660  110.77000  110.77000  # hc,c,c1,hc

# AngleAngleTorsion Coeffs

dihedral_coeff	 1 aat  -22.04500  112.67000  112.67000  # c,c,c1,c
dihedral_coeff	 2 aat    0.00000  112.67000  107.00000  # c,c,c1,cl
dihedral_coeff	 3 aat  -16.16400  112.67000  110.77000  # c,c,c1,hc
dihedral_coeff	 4 aat  -22.04500  112.67000  112.67000  # c,c1,c,c1
dihedral_coeff	 5 aat  -16.16400  112.67000  110.77000  # c,c1,c,hc
dihedral_coeff	 6 aat    0.00000  112.67000  107.00000  # c1,c,c,cl
dihedral_coeff	 7 aat  -16.16400  112.67000  110.77000  # c1,c,c,hc
dihedral_coeff	 8 aat    0.00000  112.67000  107.00000  # c1,c,c1,cl
dihedral_coeff	 9 aat  -16.16400  112.67000  110.77000  # c1,c,c1,hc
dihedral_coeff	10 aat    0.00000  107.00000  110.77000  # cl,c,c,hc
dihedral_coeff	11 aat    0.00000  107.00000  110.77000  # cl,c1,c,hc
dihedral_coeff	12 aat  -12.56400  110.77000  110.77000  # hc,c,c,hc
dihedral_coeff	13 aat  -12.56400  110.77000  110.77000  # hc,c,c1,hc

# BondBond13 Coeffs

dihedral_coeff	 1 bb13    0.00000    1.53000    1.53000  # c,c,c1,c
dihedral_coeff	 2 bb13    0.00000    1.53000    1.79000  # c,c,c1,cl
dihedral_coeff	 3 bb13    0.00000    1.53000    1.10100  # c,c,c1,hc
dihedral_coeff	 4 bb13    0.00000    1.53000    1.53000  # c,c1,c,c1
dihedral_coeff	 5 bb13    0.00000    1.53000    1.10100  # c,c1,c,hc
dihedral_coeff	 6 bb13    0.00000    1.53000    1.79000  # c1,c,c,cl
dihedral_coeff	 7 bb13    0.00000    1.53000    1.10100  # c1,c,c,hc
dihedral_coeff	 8 bb13    0.00000    1.53000    1.79000  # c1,c,c1,cl
dihedral_coeff	 9 bb13    0.00000    1.53000    1.10100  # c1,c,c1,hc
dihedral_coeff	10 bb13    0.00000    1.79000    1.10100  # cl,c,c,hc
dihedral_coeff	11 bb13    0.00000    1.79000    1.10100  # cl,c1,c,hc
dihedral_coeff	12 bb13    0.00000    1.10100    1.10100  # hc,c,c,hc
dihedral_coeff	13 bb13    0.00000    1.10100    1.10100  # hc,c,c1,hc

# Improper Coeffs

improper_coeff	 1    0.00000    0.00000  # c,c,cl,hc
improper_coeff	 2    0.00000    0.00000  # c,c,hc,c1
improper_coeff	 3    0.00000    0.00000  # c,c,hc,cl
improper_coeff	 4    0.00000    0.00000  # c,c,hc,hc
improper_coeff	 5    0.00000    0.00000  # c,c1,c1,hc
improper_coeff	 6    0.00000    0.00000  # c,c1,hc,hc
improper_coeff	 7    0.00000    0.00000  # c,cl,hc,hc
improper_coeff	 8    0.00000    0.00000  # c,hc,hc,hc
improper_coeff	 9    0.00000    0.00000  # c1,c,c,cl
improper_coeff	10    0.00000    0.00000  # c1,c,c,hc
improper_coeff	11    0.00000    0.00000  # c1,c,cl,hc

# AngleAngle Coeffs

improper_coeff	 1 aa    0.00000    0.00000    0.00000  107.00000  110.77000  107.99680  # c,c,cl,hc
improper_coeff	 2 aa    0.11840   -1.31990   -1.31990  110.77000  112.67000  110.77000  # c,c,hc,c1
improper_coeff	 3 aa    0.00000    0.00000    0.00000  110.77000  107.00000  107.99680  # c,c,hc,cl
improper_coeff	 4 aa    0.27380   -0.48250    0.27380  110.77000  110.77000  107.66000  # c,c,hc,hc
improper_coeff	 5 aa   -1.31990   -1.31990    0.11840  112.67000  110.77000  110.77000  # c,c1,c1,hc
improper_coeff	 6 aa    0.27380   -0.48250    0.27380  110.77000  110.77000  107.66000  # c,c1,hc,hc
improper_coeff	 7 aa    0.00000    0.00000    0.00000  107.99680  107.99680  107.66000  # c,cl,hc,hc
improper_coeff	 8 aa   -0.31570   -0.31570   -0.31570  107.66000  107.66000  107.66000  # c,hc,hc,hc
improper_coeff	 9 aa    0.00000    0.00000    0.00000  112.67000  107.00000  107.00000  # c1,c,c,cl
improper_coeff	10 aa   -1.31990   -1.31990    0.11840  112.67000  110.77000  110.77000  # c1,c,c,hc
improper_coeff	11 aa    0.00000    0.00000    0.00000  107.00000  110.77000  107.99680  # c1,c,cl,hc


# --- Thermo Output ---
thermo_style custom step time temp press enthalpy etotal ke pe ebond eangle edihed eimp evdwl ecoul elong etail vol lx ly lz density pxx pyy pzz
thermo_modify flush yes
thermo 1000

# --- Trajectory ---
dump dump_npt all custom 1000 npt_prod300.dump id type mol x y z ix iy iz vx vy vz

# --- Restart Checkpointing ---
# No restart checkpointing

# --- Initial Velocities (optional) ---
# Velocities read from data file

# --- SHAKE Constraints ---
# SHAKE disabled

# --- NPT Thermostat + Barostat (Nose-Hoover) ---
# T_damp = 100.0 fs  (heat bath coupling)
# P_damp = 1000.0 fs  (pressure bath coupling, ~10x T_damp typical)
# Ramp: T=300.0->300.0K  P=1.0->1.0atm
timestep 1.0
fix npt_fix all npt temp 300.0 300.0 100.0 iso 1.0 1.0 1000.0

run 2000000

CITE-CITE-CITE-CITE-CITE-CITE-CITE-CITE-CITE-CITE-CITE-CITE-CITE

Your simulation uses code contributions which should be cited:

- GPU package (short-range, long-range and three-body potentials): doi:10.1016/j.cpc.2010.12.021, doi:10.1016/j.cpc.2011.10.012, doi:10.1016/j.cpc.2013.08.002, doi:10.1016/j.commatsci.2014.10.068, doi:10.1016/j.cpc.2016.10.020, doi:10.3233/APC200086

@Article{Brown11,
 author = {W. M. Brown and P. Wang and S. J. Plimpton and A. N. Tharrington},
 title = {Implementing Molecular Dynamics on Hybrid High Performance Computers---Short Range Forces},
 journal = {Comput.\ Phys.\ Commun.},
 year =    2011,
 volume =  182,
 pages =   {898--911},
 doi =     {10.1016/j.cpc.2010.12.021}
}

@Article{Brown12,
 author = {W. M. Brown and A. Kohlmeyer and S. J. Plimpton and A. N. Tharrington},
 title = {Implementing Molecular Dynamics on Hybrid High Performance Computers - Particle-Particle Particle-Mesh},
 journal = {Comput.\ Phys.\ Commun.},
 year =    2012,
 volume =  183,
 doi =     {10.1016/j.cpc.2011.10.012},
 pages =   {449--459}
}

@Article{Brown13,
 author = {W. M. Brown and Y. Masako},
 title = {Implementing Molecular Dynamics on Hybrid High Performance Computers---Three-Body Potentials},
 journal = {Comput.\ Phys.\ Commun.},
 year =    2013,
 volume =  184,
 pages =   {2785--2793},
 doi =     {10.1016/j.cpc.2013.08.002},
}

@Article{Trung15,
 author = {T. D. Nguyen and S. J. Plimpton},
 title = {Accelerating Dissipative Particle Dynamics Simulations for Soft Matter Systems},
 journal = {Comput.\ Mater.\ Sci.},
 year =    2015,
 doi =     {10.1016/j.commatsci.2014.10.068},
 volume =  100,
 pages =   {173--180}
}

@Article{Trung17,
 author = {T. D. Nguyen},
 title = {{GPU}-Accelerated {T}ersoff Potentials for Massively Parallel
    Molecular Dynamics Simulations},
 journal = {Comput.\ Phys.\ Commun.},
 year =    2017,
 doi =     {10.1016/j.cpc.2016.10.020},
 volume =  212,
 pages =   {113--122}
}

@inproceedings{Nikolskiy19,
 author = {V. Nikolskiy and V. Stegailov},
 title = {{GPU} Acceleration of Four-Site Water Models in {LAMMPS}},
 booktitle = {Proceedings of the International Conference on Parallel
    Computing (ParCo 2019), Prague, Czech Republic},
 doi =     {10.3233/APC200086},
 year =    2019
}

CITE-CITE-CITE-CITE-CITE-CITE-CITE-CITE-CITE-CITE-CITE-CITE-CITE

PPPM initialization ...
  using 12-bit tables for long-range coulomb
  G vector (1/distance) = 0.29520588
  grid = 24 24 24
  stencil order = 5
  estimated absolute RMS force accuracy = 0.00037952742
  estimated relative force accuracy = 1.1429355e-06
  using double precision KISS FFT
  3d grid and FFT values/proc = 29791 13824
Generated 6 of 6 mixed pair_coeff terms from sixthpower/sixthpower mixing rule
Neighbor list info ...
  update: every = 1 steps, delay = 0 steps, check = yes
  max neighbors/atom: 4000, page size: 100000
  master list distance cutoff = 11.5
  ghost atom cutoff = 11.5
  binsize = 5.75, bins = 7 7 7
  1 neighbor lists, perpetual/occasional/extra = 1 0 0
  (1) pair lj/class2/coul/long/gpu, perpetual
      attributes: full, newton on
      pair build: full/bin
      stencil: full/bin/3d
      bin: standard
Per MPI rank memory allocation (min/avg/max) = 25.86 | 25.86 | 25.86 Mbytes
   Step          Time           Temp          Press         Enthalpy        TotEng         KinEng         PotEng         E_bond        E_angle        E_dihed        E_impro         E_vdwl         E_coul         E_long         E_tail         Volume           Lx             Ly             Lz          Density          Pxx            Pyy            Pzz      
         0   0              294.20913      287.09184     -294.07659     -488.90682      3173.7962     -3662.703       1266.048       1937.6105     -2063.5203      15.518509     -952.91524     -1617.4323     -2248.0122     -271.9575       46532.844      35.968296      35.968296      35.968296      1.3389016     -1570.136       184.77624      2246.6353    
      1000   1000           304.00282     -1142.1476     -1110.8544     -335.66109      3279.4461     -3615.1072      1286.6418      1972.2988     -2054.8478      15.133112     -972.63808     -1613.1272     -2248.5678     -271.92475      46538.447      35.96974       35.96974       35.96974       1.3387404      481.8157      -2199.1266     -1709.1318    
      2000   2000           298.48389     -376.35919     -626.25601     -371.10992      3219.9104     -3591.0203      1317.4046      1997.6421     -2087.8929      16.433672     -968.59732     -1616.0921     -2249.9185     -272.23886      46484.752      35.955901      35.955901      35.955901      1.3402868     -547.75144      1149.5072     -1730.8333    
      3000   3000           299.63488     -229.96414     -569.49616     -412.4968       3232.3267     -3644.8235      1261.8606      1916.9689     -2065.7908      14.303875     -917.45866     -1608.5442     -2246.1632     -270.33281      46812.504      36.040208      36.040208      36.040208      1.3309029     -41.15321      -673.01792      24.278711    
      4000   4000           297.26715      260.13584     -201.96062     -379.31395      3206.7848     -3586.0987      1301.553       1961.478      -2067.502       16.416933     -947.45625     -1607.1603     -2243.4281     -270.70569      46748.023      36.023653      36.023653      36.023653      1.3327387      610.66089     -253.6962       423.44282    
      5000   5000           302.35071     -510.75885     -748.74877     -405.09227      3261.6239     -3666.7161      1237.8719      1975.6056     -2068.7648      15.779151     -977.49414     -1605.5138     -2244.2        -274.3013       46135.239      35.865558      35.865558      35.865558      1.3504406     -870.11928     -793.99039      131.83311    
      6000   6000           305.7754      -223.81803     -432.7709      -280.22019      3298.5679     -3578.7881      1301.9006      2001.6451     -2065.8591      16.284542     -978.9288      -1608.9171     -2244.9133     -270.78048      46735.111      36.020336      36.020336      36.020336      1.3331069      15.716167     -1528.6926      841.52236    
      7000   7000           298.9089       1318.5242      437.96232     -453.21419      3224.4952     -3677.7094      1199.4612      1981.0446     -2062.0295      16.689964     -963.31354     -1609.1813     -2240.381      -273.06176      46344.664      35.919745      35.919745      35.919745      1.3443381      1988.0841      2404.12       -436.63163    
      8000   8000           300.38693     -766.1715      -872.28052     -347.8038       3240.4395     -3588.2433      1288.5939      1981.2876     -2043.8968      15.274687     -978.20828     -1606.2234     -2245.071      -269.61019      46937.973      36.072378      36.072378      36.072378      1.3273453     -639.04675     -573.44134     -1086.0264    
      9000   9000           297.02519      347.84537     -174.17106     -412.49504      3204.1745     -3616.6695      1267.4049      1927.8807     -2064.0962      14.876615     -916.88039     -1600.9645     -2244.8907     -269.37358      46979.201      36.082937      36.082937      36.082937      1.3261804     -1305.3126      2526.792      -177.94334    
     10000   10000          293.11586     -5.7250613     -494.16833     -490.28214      3162.0024     -3652.2846      1277.5401      1896.868      -2031.978       14.759044     -947.98438     -1614.9146     -2246.5747     -271.88973      46544.442      35.971284      35.971284      35.971284      1.3385679      1424.6361     -249.91861     -1191.8927    
     11000   11000          303.96425      535.26199     -40.671361     -407.09105      3279.0301     -3686.1211      1251.5027      1965.2681     -2074.2014      15.540746     -991.10029     -1608.1013     -2245.0297     -269.60263      46939.29       36.072716      36.072716      36.072716      1.3273081     -245.7004       2316.5796     -465.09323    
     12000   12000          302.56276      1025.7599      369.95793     -329.16037      3263.9113     -3593.0717      1250.7745      1997.2589     -2070.4525      14.876783     -938.10702     -1606.1372     -2241.2852     -270.78933      46733.583      36.019943      36.019943      36.019943      1.3331505      413.15378      1631.7777      1032.3481    
     13000   13000          295.22522     -56.760908     -509.24913     -470.77152      3184.7573     -3655.5289      1234.9979      1986.7499     -2064.5538      16.240538     -995.8929      -1592.9745     -2240.0961     -272.25621      46481.789      35.955137      35.955137      35.955137      1.3403722     -2034.6658      864.51528      999.86782    
     14000   14000          295.30096     -595.56916     -801.75535     -396.24531      3185.5743     -3581.8196      1299.0594      1944.8781     -2060.6701      15.468963     -927.61992     -1609.1574     -2243.7786     -271.06105      46686.737      36.007904      36.007904      36.007904      1.3344882     -139.16801     -376.78015     -1270.7593    
     15000   15000          305.98933     -651.20313     -713.32911     -268.7618       3300.8757     -3569.6375      1306.3034      1960.887      -2061.112       15.206481     -944.03159     -1604.992      -2241.8988     -270.34321      46810.703      36.039746      36.039746      36.039746      1.3309541     -22.837002     -1934.3329      3.5605079    
     16000   16000          297.88537     -719.67713     -932.27772     -441.13323      3213.4538     -3654.587       1235.6546      1970.0894     -2060.9058      16.242739     -964.56408     -1608.0961     -2243.0078     -270.43627      46794.595      36.035612      36.035612      36.035612      1.3314123     -1732.2037     -269.22447     -157.60318    
     17000   17000          297.83411     -1402.8964     -1396.4528     -439.5176       3212.9008     -3652.4184      1273.4246      1931.8851     -2056.3036      15.384325     -965.71678     -1606.7736     -2244.3185     -270.56997      46771.471      36.029675      36.029675      36.029675      1.3320705     -1656.6608     -1870.1043     -681.92411    
     18000   18000          298.99802     -242.25001     -586.58226     -422.38808      3225.4565     -3647.8446      1236.9099      1989.9129     -2068.1353      15.405275     -960.39721     -1613.692      -2247.8483     -272.29682      46474.857      35.953349      35.953349      35.953349      1.3405721     -475.76108     -621.11441      370.12545    
     19000   19000          300.83091      554.07347     -45.805975     -419.64161      3245.2289     -3664.8705      1246.2129      1945.4935     -2038.5348      14.735888     -977.95439     -1609.0108     -2245.8129     -273.54147      46263.39       35.898735      35.898735      35.898735      1.3466998      321.31132      1642.0638     -301.15474    
     20000   20000          298.61147     -1476.0496     -1434.7403     -422.38931      3221.2867     -3643.676       1272.8219      1919.1345     -2030.9232      15.279256     -977.14431     -1600.9099     -2241.9343     -269.09545      47027.759      36.095364      36.095364      36.095364      1.3248111     -1073.6814     -2196.9824     -1157.4849    
     21000   21000          303.38644     -483.88794     -711.57917     -381.252        3272.7968     -3654.0488      1270.5864      1952.3137     -2082.0019      15.911943     -952.80744     -1614.8225     -2243.229      -270.35663      46808.38       36.03915       36.03915       36.03915       1.3310202     -206.20758     -1019.1692     -226.28705    
     22000   22000          299.51564      493.58718     -181.67        -518.29911      3231.0404     -3749.3395      1207.9739      1895.2608     -2083.1867      14.844232     -917.56304     -1621.3134     -2245.3553     -270.61304      46764.028      36.027763      36.027763      36.027763      1.3322825      394.4425       717.41032      368.90872    
     23000   23000          299.42167      51.28865      -324.81786     -360.17273      3230.0267     -3590.1994      1321.2816      1930.9097     -2070.8577      16.298057     -942.60164     -1604.6454     -2240.584      -267.73711      47266.35       36.156303      36.156303      36.156303      1.3181237      357.5083       13.556502     -217.19886    
     24000   24000          293.31914      127.63193     -357.1615      -444.21019      3164.1954     -3608.4056      1258.7604      1971.3792     -2067.5417      16.032588     -922.07892     -1617.4534     -2247.5037     -270.60362      46765.655      36.028181      36.028181      36.028181      1.3322362     -959.0287       472.41087      869.51363    
     25000   25000          308.13574      563.37582      64.480088     -320.47515      3324.0302     -3644.5053      1216.3862      1976.4171     -2069.7259      15.634199     -936.44255     -1603.4247     -2243.3497     -270.09994      46852.864      36.050563      36.050563      36.050563      1.3297565      291.16887      1206.1541      192.80454    
     26000   26000          297.53802     -374.46273     -617.06842     -361.71209      3209.7067     -3571.4188      1306.4603      1966.3717     -2049.1253      15.929242     -964.77964     -1604.5381     -2241.737      -270.64405      46758.669      36.026387      36.026387      36.026387      1.3324352      730.51452     -954.86179     -899.04091    
     27000   27000          298.02739      350.18857     -229.25687     -467.93317      3214.9859     -3682.919       1265.9363      1919.5494     -2080.2275      15.710779     -945.14164     -1611.7752     -2246.9713     -270.78786      46733.836      36.020009      36.020009      36.020009      1.3331432     -648.47787      1155.0744      543.9692     
     28000   28000          302.30082     -521.93958     -727.67238     -372.3222       3261.0856     -3633.4078      1259.6336      1959.4232     -2055.8268      16.389933     -965.60726     -1600.4777     -2246.9428     -271.08171      46683.178      36.006989      36.006989      36.006989      1.3345899     -2011.4477      545.39787     -99.768912    
     29000   29000          302.35386     -241.96114     -407.7373      -242.37975      3261.6579     -3504.0376      1298.2952      2047.3646     -2062.7949      16.785218     -956.11058     -1603.0626     -2244.5144     -270.05867      46860.024      36.052399      36.052399      36.052399      1.3295533     -1414.997      -664.29265      1353.4062    
     30000   30000          301.18746      584.3808      -23.847643     -419.1164       3249.0753     -3668.1917      1209.0339      1972.5795     -2072.2361      15.957375     -953.90305     -1597.2715     -2242.3519     -272.86006      46378.923      35.928594      35.928594      35.928594      1.3433451      672.81516      629.36417      450.96307    
     31000   31000          303.97329     -782.32258     -856.85692     -321.18231      3279.1276     -3600.3099      1259.4609      1963.07       -2060.1055      15.703255     -935.85247     -1601.0185     -2241.5675     -269.53882      46950.401      36.075562      36.075562      36.075562      1.3269939     -1430.7089     -1419.3598      503.1009     
     32000   32000          299.31265     -483.17424     -722.02718     -393.24538      3228.8507     -3622.0961      1284.7235      1958.136      -2071.3826      16.98057      -959.48001     -1607.1099     -2243.9636     -271.22675      46658.214      36.000569      36.000569      36.000569      1.335304      -975.76428     -1027.5229      553.7645     
     33000   33000          307.39679     -132.85994     -421.07636     -329.96207      3316.0588     -3646.0208      1227.2323      1966.726      -2067.255       16.275124     -936.42766     -1608.1433     -2244.4282     -269.11883      47023.673      36.094319      36.094319      36.094319      1.3249262     -925.53277      118.85116      408.10179    
     34000   34000          295.05303     -1197.9376     -1215.7528     -391.92013      3182.8998     -3574.8199      1312.6209      1952.4708     -2073.7592      15.647493     -939.01821     -1600.4212     -2242.3604     -268.36861      47155.126      36.127921      36.127921      36.127921      1.3212328     -592.85696     -917.20656     -2083.7494    
     35000   35000          301.43571     -74.327736     -408.14966     -357.33169      3251.7532     -3609.0849      1229.7486      1954.8691     -2037.5223      15.686242     -925.80642     -1602.2829     -2243.7773     -269.94177      46880.317      36.057602      36.057602      36.057602      1.3289777     -266.05461     -300.44855      343.51995    
     36000   36000          302.41102      1543.7866      744.06645     -303.82796      3262.2744     -3566.1024      1246.3788      1971.2029     -2054.7965      14.616273     -895.30322     -1603.7327     -2244.468      -271.89816      46542.999      35.970913      35.970913      35.970913      1.3386094      415.04115      1561.0948      2655.2239    
     37000   37000          299.71158      1022.5515      274.98563     -418.16798      3233.1541     -3651.3221      1284.986       1862.4428     -2035.9667      14.658579     -921.42819     -1613.1197     -2242.8948     -272.26527      46480.243      35.954738      35.954738      35.954738      1.3404168      763.58258      333.49863      1970.5734    
     38000   38000          301.05229      1132.4196      446.83735     -321.52599      3247.6171     -3569.143       1289.9875      1948.6546     -2078.1319      14.772725     -891.22957     -1609.611      -2243.5854     -272.00523      46524.678      35.966192      35.966192      35.966192      1.3391366      1512.0795     -207.426        2092.6052    
     39000   39000          299.22478     -623.03181     -958.47288     -537.45848      3227.9028     -3765.3612      1243.6257      1881.6821     -2068.0778      15.950091     -999.00313     -1601.3613     -2238.177      -273.11766      46335.179      35.917294      35.917294      35.917294      1.3446133     -1870.6622      610.51052     -608.94372    
     40000   40000          301.32265      217.44908     -226.46051     -373.96466      3250.5336     -3624.4982      1237.1914      2011.995      -2058.9281      15.891338     -985.17202     -1599.9494     -2245.5264     -272.07576      46512.618      35.963084      35.963084      35.963084      1.3394838     -1118.4706      946.35864      824.45923    
     41000   41000          294.25755      651.57076      43.39674      -399.01022      3174.3185     -3573.3288      1304.3915      1927.8039     -2063.6066      15.075705     -913.96343     -1602.0315     -2240.9983     -271.81672      46556.945      35.974505      35.974505      35.974505      1.3382085      586.91349     -882.73759      2250.5364    
     42000   42000          298.38601     -223.3007      -592.1912      -440.29855      3218.8545     -3659.153       1256.838       1940.0986     -2052.7433      14.818494     -967.28635     -1607.1973     -2243.6812     -271.32502      46641.315      35.996223      35.996223      35.996223      1.3357878     -388.66073      209.78179     -491.02314    
     43000   43000          302.30503      1269.0122      494.24817     -364.79191      3261.1311     -3625.923       1252.6226      1985.6501     -2070.0236      16.105614     -951.08462     -1613.4812     -2245.7118     -272.63957      46416.432      35.938277      35.938277      35.938277      1.3422595      1575.889       1383.3524      847.79513    
     44000   44000          304.04876     -260.08296     -486.53637     -309.32949      3279.9417     -3589.2712      1271.1695      1991.8314     -2067.6531      15.181724     -953.41876     -1604.7375     -2241.6444     -270.87432      46718.921      36.016176      36.016176      36.016176      1.3335689      1666.4626     -723.69977     -1723.0117    
     45000   45000          299.50545      153.02308     -337.34583     -440.2531       3230.9305     -3671.1836      1303.0917      1907.1927     -2050.1174      15.790248     -990.36082     -1613.7331     -2243.0469     -274.44         46111.922      35.859515      35.859515      35.859515      1.3511234     -807.28338      354.30415      912.04846    
     46000   46000          298.61023      583.72848     -53.495311     -447.74907      3221.2732     -3669.0223      1297.1213      1916.4925     -2066.9916      15.784474     -986.1396      -1601.8867     -2243.4026     -273.25716      46311.524      35.911181      35.911181      35.911181      1.3453001     -763.05265      1616.8603      897.37778    
     47000   47000          297.32077     -754.62873     -929.80093     -411.62339      3207.3631     -3618.9865      1262.0222      1946.7946     -2073.889       15.084754     -924.45918     -1603.983      -2240.5568     -268.77648      47083.568      36.109637      36.109637      36.109637      1.3232408     -1355.0009      173.15841     -1082.0437    
     48000   48000          298.27397      338.33676     -138.03384     -369.58606      3217.6458     -3587.2319      1291.8041      1961.3102     -2055.2885      15.746385     -951.83533     -1607.8841     -2241.0847     -269.67257      46927.116      36.069597      36.069597      36.069597      1.3276524     -901.20223      746.73888      1169.4736    
     49000   49000          301.00179      136.80722     -277.29679     -371.46524      3247.0723     -3618.5376      1273.0488      1956.4978     -2055.9717      15.116766     -958.58425     -1604.9557     -2243.6892     -268.12673      47197.666      36.138782      36.138782      36.138782      1.3200419      561.55011     -451.11088      299.98244    
     50000   50000          297.41184     -0.81988825    -485.53974     -484.98295      3208.3456     -3693.3285      1237.7491      1912.8277     -2072.5601      15.043917     -922.06962     -1615.6859     -2248.6336     -271.76959      46565.018      35.976584      35.976584      35.976584      1.3379764     -1335.6325     -744.8228       2077.9957    
     51000   51000          299.38466      162.53193     -384.30015     -495.20161      3229.6274     -3724.829       1235.2549      1910.8193     -2060.2466      15.024735     -971.20239     -1610.7804     -2243.6985     -270.48174      46786.728      36.033592      36.033592      36.033592      1.3316361     -4.2038562     -622.32842      1114.1281    
     52000   52000          302.59127     -712.03766     -827.33655     -343.73719      3264.2189     -3607.9561      1276.8188      1974.0641     -2062.5989      16.025475     -955.14348     -1612.5646     -2244.5575     -271.74013      46570.066      35.977884      35.977884      35.977884      1.3378314     -1743.1973     -608.0078       215.09208    
     53000   53000          294.08144      494.38296     -106.50082     -442.49264      3172.4187     -3614.9113      1302.48        1935.111      -2063.6231      15.709646     -942.76726     -1615.8854     -2245.9361     -271.56344      46600.366      35.985685      35.985685      35.985685      1.3369616     -255.02239      966.45758      771.7137     
     54000   54000          294.62416     -320.50008     -700.33785     -483.46704      3178.2734     -3661.7404      1274.8822      1915.1998     -2059.866       15.842839     -963.80202     -1602.542      -2241.4552     -272.74924      46397.767      35.933459      35.933459      35.933459      1.3427995      286.89957     -1629.8334      381.43364    
     55000   55000          297.8796      -665.72694     -884.36291     -433.05564      3213.3915     -3646.4472      1269.5365      1977.9385     -2067.1637      15.761306     -991.18778     -1610.2238     -2241.1082     -272.24526      46483.659      35.955619      35.955619      35.955619      1.3403183     -1592.8684     -821.73631      417.42387    
     56000   56000          304.55617      32.122308     -343.21749     -364.95272      3285.4154     -3650.3681      1263.8958      1953.3187     -2052.4659      15.193913     -976.8512      -1606.1348     -2247.3246     -272.75899      46396.109      35.933031      35.933031      35.933031      1.3428475      809.90629     -538.09435     -175.44502    
     57000   57000          300.01188     -618.6156      -834.81697     -416.06162      3236.3937     -3652.4553      1338.1655      1927.3479     -2072.7795      15.988923     -1005.7238     -1607.9447     -2247.5097     -272.64468      46415.562      35.938052      35.938052      35.938052      1.3422847     -1140.5053     -1157.0066      441.66513    
     58000   58000          302.73172     -205.16768     -538.38897     -398.6899       3265.734      -3664.4239      1219.8341      2008.3032     -2083.8426      15.801753     -970.4634      -1609.9923     -2244.0647     -271.05158      46688.367      36.008323      36.008323      36.008323      1.3344416     -1077.3952     -1561.0747      2022.9669    
     59000   59000          295.08534     -990.27053     -1132.7913     -461.92039      3183.2483     -3645.1687      1255.3128      1971.6775     -2068.8424      15.679861     -970.67564     -1607.7238     -2240.5969     -272.42779      46452.514      35.947587      35.947587      35.947587      1.3412169     -2015.2914     -982.13329      26.613089    
     60000   60000          303.97834      390.72387     -83.738084     -347.40306      3279.182      -3626.585       1288.8026      1945.2324     -2072.7714      15.593087     -958.46955     -1602.0377     -2242.9345     -273.49791      46270.758      35.900641      35.900641      35.900641      1.3464853     -285.61145      1532.1315     -74.348413    
     61000   61000          295.74016     -258.97783     -657.64391     -482.73769      3190.3122     -3673.0499      1259.5374      1954.9424     -2059.546       15.082855     -995.46515     -1604.1917     -2243.4097     -273.27118      46309.149      35.910567      35.910567      35.910567      1.3453691      259.20253     -912.06126     -124.07476    
     62000   62000          293.36843      296.4449      -362.32789     -562.02324      3164.727      -3726.7503      1254.0673      1921.4151     -2057.6915      15.84107      -1003.3484     -1610.0992     -2246.9346     -273.97602      46190.013      35.879746      35.879746      35.879746      1.3488392      1585.6329      250.08951     -946.38773    
     63000   63000          297.76736      334.06977     -154.91797     -381.04933      3212.1808     -3593.2301      1271.1757      2014.9994     -2070.5313      16.510617     -970.20852     -1608.4698     -2246.7062     -272.65465      46413.864      35.937614      35.937614      35.937614      1.3423338      997.98757      1131.2642     -1127.0425    
     64000   64000          288.15934     -1237.2402     -1341.2537     -502.23674      3108.5337     -3610.7704      1305.0917      1976.2674     -2064.9586      16.53056      -1004.1544     -1594.5068     -2245.0403     -272.15718      46498.702      35.959497      35.959497      35.959497      1.3398847     -2395.4789     -74.299348     -1241.9423    
     65000   65000          296.50892     -345.53698     -612.36245     -378.5857       3198.6053     -3577.191       1275.2952      2028.5116     -2075.0809      16.375        -983.09402     -1597.4239     -2241.7739     -272.79081      46390.697      35.931634      35.931634      35.931634      1.3430041      282.39159     -105.32812     -1213.6744    
     66000   66000          298.49286      1318.9997      429.61894     -466.2954       3220.0071     -3686.3025      1250.8593      1953.1849     -2079.7417      15.630312     -973.40306     -1608.6793     -2244.153      -271.7157       46574.253      35.978962      35.978962      35.978962      1.3377112      1330.0441      1486.4713      1140.4838    
     67000   67000          304.54299     -156.817       -399.58233     -292.80322      3285.2732     -3578.0764      1328.1218      1984.9131     -2079.6279      15.982558     -966.06462     -1611.782      -2249.6194     -271.04623      46689.29       36.00856       36.00856       36.00856       1.3344152      84.668774      191.00892     -746.1287     
     68000   68000          299.6524       1887.7851      857.21752     -420.87256      3232.5157     -3653.3882      1240.0757      1984.9764     -2093.2676      15.85949      -942.32101     -1611.8638     -2246.8474     -272.60111      46422.98       35.939967      35.939967      35.939967      1.3420702      2217.1603      247.48564      3198.7094    
     69000   69000          297.50648      300.95571     -233.4464      -438.28386      3209.3665     -3647.6503      1224.3138      1979.8907     -2102.1718      15.759315     -908.26448     -1612.4738     -2244.704      -271.16255      46669.26       36.00341       36.00341       36.00341       1.3349879      1066.4741      864.88435     -1028.4913    
     70000   70000          300.9443       546.79532      13.364589     -357.86147      3246.4522     -3604.3136      1260.729       2001.8302     -2063.6871      15.752429     -949.0455      -1619.3399     -2250.5528     -271.84594      46551.939      35.973216      35.973216      35.973216      1.3383524     -1638.7643      2795.6485      483.50175    
     71000   71000          300.15187     -917.11712     -984.5915      -358.48836      3237.9037     -3596.3921      1302.2008      1964.6067     -2072.6898      15.532742     -949.36521     -1608.5054     -2248.1719     -270.3432       46810.706      36.039747      36.039747      36.039747      1.330954      -1773.7707      530.25781     -1507.8385    
     72000   72000          287.77956     -378.39613     -778.32404     -521.69888      3104.4368     -3626.1357      1278.0735      1963.7901     -2046.2979      15.514843     -984.90777     -1606.3671     -2245.9414     -272.13473      46502.538      35.960486      35.960486      35.960486      1.3397741      770.47122     -1214.9577     -690.70193    
     73000   73000          301.13874     -708.28564     -816.16999     -336.56926      3248.5497     -3585.119       1276.811       2012.0864     -2052.4881      15.231513     -995.40973     -1600.644      -2240.7061     -272.56188      46429.66       35.941691      35.941691      35.941691      1.3418771     -1887.6424     -151.91431     -85.300246    
     74000   74000          296.683       -1583.0125     -1470.2175     -387.11579      3200.4831     -3587.5989      1342.2153      1977.3154     -2097.0931      16.173563     -977.1161      -1604.0837     -2245.0102     -269.7439       46914.706      36.066417      36.066417      36.066417      1.3280036     -3515.6556     -1921.4337      688.05179    
     75000   75000          296.14992     -120.92197     -507.00038     -425.55574      3194.7326     -3620.2883      1274.9093      1947.4679     -2057.6827      15.347179     -925.82094     -1623.4956     -2251.0134     -274.01808      46182.922      35.87791       35.87791       35.87791       1.3490463      444.14085      508.78541     -1315.6922    
     76000   76000          304.89771     -366.92675     -586.39896     -338.00263      3289.0998     -3627.1024      1245.5762      1996.8046     -2079.8592      16.111723     -949.58043     -1611.3738     -2244.7815     -272.62817      46418.371      35.938777      35.938777      35.938777      1.3422035     -1620.2651      106.1992       413.28569    
     77000   77000          303.53833     -762.78791     -868.28792     -352.16149      3274.4354     -3626.5969      1288.9808      1980.5389     -2083.0051      16.555387     -988.34888     -1602.2749     -2239.0432     -272.76223      46395.558      35.932889      35.932889      35.932889      1.3428634     -442.06234     -2070.6002      224.29881    
     78000   78000          300.22348      754.07445      115.37381     -396.72292      3238.6762     -3635.3991      1250.2999      2005.8869     -2079.2487      16.306176     -981.11031     -1603.5244     -2244.0087     -271.76827      46565.244      35.976642      35.976642      35.976642      1.33797       -486.67824      2258.4625      490.43908    
     79000   79000          301.47278     -221.25549     -486.4571      -335.30921      3252.1532     -3587.4624      1296.1725      1989.0165     -2086.2396      15.279636     -955.59271     -1602.01       -2244.0886     -270.16461      46841.648      36.047686      36.047686      36.047686      1.3300748     -303.13492     -863.99888      503.36734    
     80000   80000          305.00415     -202.81573     -469.66736     -331.70193      3290.248      -3621.95        1274.8893      1957.1346     -2076.1778      15.245137     -934.67981     -1615.7901     -2242.5713     -271.3113       46643.673      35.996829      35.996829      35.996829      1.3357202     -1139.2381      457.19863      73.592308    
     81000   81000          305.49278     -557.2071      -712.90355     -330.90044      3295.5192     -3626.4196      1281.3958      1941.137      -2069.6187      14.676381     -942.34589     -1607.626      -2244.0382     -269.20695      47008.281      36.09038       36.09038       36.09038       1.3253601      402.64204     -2248.7872      174.52386    
     82000   82000          305.42055      2140.157       1067.7901     -375.52482      3294.7399     -3670.2647      1230.9621      1963.9303     -2055.491       15.795884     -969.35992     -1610.0005     -2246.1016     -273.66612      46242.318      35.893284      35.893284      35.893284      1.3473135      558.10508      1604.9639      4257.4019    
     83000   83000          291.94128     -57.704679     -634.57535     -595.67522      3149.3317     -3745.0069      1251.3514      1900.183      -2074.3354      14.540368     -986.14275     -1608.6972     -2241.9064     -273.77669      46223.642      35.888452      35.888452      35.888452      1.3478578      2257.9256     -1189.8662     -1241.1735    
     84000   84000          302.50166     -1224.8126     -1159.9939     -333.86751      3263.2523     -3597.1198      1282.6804      1991.5664     -2076.7638      15.54802      -953.51387     -1612.1722     -2244.4648     -273.62745      46248.853      35.894975      35.894975      35.894975      1.3471231     -502.84498     -1444.2402     -1727.3527    
     85000   85000          299.29947     -305.96435     -568.97671     -361.71831      3228.7085     -3590.4268      1269.815       2036.2338     -2069.5793      16.679052     -988.2809      -1610.0867     -2245.2078     -272.45527      46447.829      35.946378      35.946378      35.946378      1.3413522      87.520201     -291.54644     -713.86683    
     86000   86000          303.96068      465.34274     -25.731285     -338.92121      3278.9915     -3617.9127      1267.8178      1988.4981     -2065.3733      16.678016     -965.4116      -1612.36       -2247.7617     -274.22161      46148.645      35.869032      35.869032      35.869032      1.3500483      793.45004      838.62555     -236.04737    
     87000   87000          296.87812     -206.01734     -528.01726     -387.26804      3202.588      -3589.8561      1271.1367      1977.7751     -2053.1771      15.405071     -956.31139     -1602.4667     -2242.2179     -270.14337      46845.331      36.048631      36.048631      36.048631      1.3299703     -249.78248      269.74738     -638.01691    
     88000   88000          302.17683     -66.369677     -331.11105     -286.36571      3259.7482     -3546.1139      1303.0902      1991.6893     -2065.9012      15.750011     -940.74298     -1608.6599     -2241.3392     -273.7527       46227.693      35.8895        35.8895        35.8895        1.3477397      1360.0203     -1342.9265     -216.20283    
     89000   89000          302.27961     -136.90957     -439.65349     -346.59685      3260.8569     -3607.4538      1297.4432      1965.2841     -2076.7421      15.617189     -955.0585      -1610.045      -2243.9527     -271.53321      46605.555      35.987021      35.987021      35.987021      1.3368127     -574.23135     -191.15326      354.65591    
     90000   90000          297.51345     -862.78743     -1038.4876     -451.88119      3209.4417     -3661.3229      1260.3241      1954.6555     -2077.8708      15.623513     -958.31163     -1613.7098     -2242.0338     -271.45229      46619.447      35.990596      35.990596      35.990596      1.3364143     -1708.1157      331.54729     -1211.7939    
     91000   91000          307.82467     -404.60271     -551.21739     -276.60613      3320.6745     -3597.2807      1267.312       1995.8929     -2065.0122      15.808833     -961.07482     -1609.359      -2240.8483     -271.92364      46538.638      35.969789      35.969789      35.969789      1.3387349     -306.82171      172.45188     -1079.4383    
     92000   92000          305.25311      1583.044       756.20534     -314.2131       3292.9336     -3607.1467      1251.0072      1989.2388     -2054.8264      14.981426     -952.28606     -1609.801      -2245.4607     -272.9455       46364.405      35.924845      35.924845      35.924845      1.3437657      1764.0234      1181.3211      1803.7877    
     93000   93000          296.91729     -586.39226     -809.50005     -413.71594      3203.0106     -3616.7265      1289.0047      2002.5062     -2072.2458      15.822258     -995.8109      -1610.3527     -2245.6502     -273.44274      46280.095      35.903056      35.903056      35.903056      1.3462137     -156.0083      -199.13737     -1404.0311    
     94000   94000          295.63289     -1389.9732     -1354.3434     -411.853        3189.155      -3601.008       1340.0567      1945.5369     -2030.1634      16.238864     -1018.803      -1606.3205     -2247.5536     -272.18615      46493.754      35.958222      35.958222      35.958222      1.3400273     -340.17721     -2118.3949     -1711.3476    
     95000   95000          300.17851     -94.546852     -415.98353     -352.2875       3238.1912     -3590.4787      1307.1077      1997.8184     -2065.2205      16.836212     -980.01371     -1615.7093     -2251.2975     -273.94995      46194.408      35.880884      35.880884      35.880884      1.3487108      23.479924     -1845.8225      1538.702     
     96000   96000          295.15        -2446.2492     -2171.58       -520.23132      3183.9458     -3704.1771      1282.3177      1941.0523     -2055.7954      15.354439     -1037.3046     -1603.5917     -2246.2098     -273.39995      46287.337      35.904928      35.904928      35.904928      1.3460031     -1661.1403     -3459.0645     -2218.5429    
     97000   97000          303.70399      572.16048      6.4446974     -380.74201      3276.2224     -3656.9644      1258.4805      1977.551      -2058.155       15.614587     -993.21619     -1610.0738     -2247.1655     -272.73065      46400.93       35.934276      35.934276      35.934276      1.342708       1985.2629      359.72706     -628.50847    
     98000   98000          303.92584     -2172.9546     -1862.5145     -393.0115       3278.6157     -3671.6272      1292.4948      1924.1672     -2049.7433      15.586053     -999.87983     -1607.1954     -2247.0566     -272.90827      46370.731      35.926478      35.926478      35.926478      1.3435824     -2149.2459     -4066.3861     -303.23175    
     99000   99000          301.10626     -134.005       -562.66825     -471.76281      3248.1993     -3719.9621      1233.5194      1968.3973     -2082.7127      16.186398     -1010.3334     -1601.6899     -2243.3293     -272.06186      46514.994      35.963697      35.963697      35.963697      1.3394154     -1302.9451      286.62101      614.30906    
    100000   100000         302.97011      642.19151      108.35553     -323.07502      3268.3057     -3591.3808      1325.5703      1993.6237     -2074.1321      16.550166     -1002.9806     -1605.0877     -2244.9245     -274.71994      46064.933      35.84733       35.84733       35.84733       1.3525016      1134.7201     -1414.6071      2206.4615    
    101000   101000         295.53897      22.378874     -446.62226     -461.72463      3188.1419     -3649.8666      1272.9184      1967.788      -2055.8402      16.747        -988.79433     -1613.3711     -2249.3143     -273.48258      46273.352      35.901312      35.901312      35.901312      1.3464099      7.9203636     -611.64924      670.8655     
    102000   102000         302.07306     -1421.4952     -1333.1969     -378.3785       3258.6287     -3637.0072      1299.5052      1964.6307     -2055.3432      15.164141     -1004.5975     -1611.5338     -2244.8328     -274.76482      46057.409      35.845378      35.845378      35.845378      1.3527226     -2026.2167     -1215.0428     -1023.2259    
    103000   103000         295.70839     -756.1719      -1035.5921     -521.33008      3189.9695     -3711.2996      1278.0697      1957.4637     -2088.4959      16.83184      -1028.2522     -1603.8162     -2243.1005     -271.37673      46632.428      35.993936      35.993936      35.993936      1.3360423     -1565.7303     -279.7285      -423.05695    
    104000   104000         296.58137     -1542.4379     -1492.6644     -442.52009      3199.3868     -3641.9069      1273.3938      1989.5384     -2074.3818      15.629892     -984.78655     -1612.8739     -2248.4267     -271.0786       46683.713      36.007127      36.007127      36.007127      1.3345746     -4578.2759     -749.21399      700.17617    
    105000   105000         305.40956     -349.01156     -596.34576     -360.40991      3294.6213     -3655.0312      1289.2107      1967.9748     -2079.6985      16.040424     -986.19805     -1615.0384     -2247.3222     -273.01241      46353.042      35.921909      35.921909      35.921909      1.3440951     -40.1787       -680.35619     -326.49977    
    106000   106000         296.98343      617.89454     -34.4453       -453.22848      3203.724      -3656.9525      1221.491       2020.2098     -2071.6892      16.345711     -983.86871     -1611.937      -2247.5042     -272.30878      46472.815      35.952823      35.952823      35.952823      1.340631      -311.25379     -616.77753      2781.7149    
    107000   107000         296.04916     -615.72134     -833.47038     -411.80817      3193.6456     -3605.4538      1286.0351      1992.5116     -2073.2493      15.911254     -971.27317     -1610.3104     -2245.0789     -269.49831      46957.458      36.077369      36.077369      36.077369      1.3267945     -887.93347      149.65268     -1108.8832    
    108000   108000         299.83123      475.83438     -37.346808     -357.65359      3234.4448     -3592.0984      1287.5102      1973.0185     -2047.7346      15.618927     -962.7701      -1613.32       -2244.4214     -274.17396      46156.666      35.871109      35.871109      35.871109      1.3498137      2392.0283     -1835.0017      870.47653    
    109000   109000         296.26756      395.07112     -231.33678     -496.74371      3196.0016     -3692.7453      1241.598       1935.1303     -2065.9487      14.890937     -957.30725     -1615.6246     -2245.484      -274.72586      46063.94       35.847073      35.847073      35.847073      1.3525308      2052.2442     -197.90099     -669.12985    
    110000   110000         300.99983     -24.154919     -397.18624     -380.87454      3247.0512     -3627.9257      1307.2664      1961.7074     -2076.8492      15.229138     -965.08606     -1621.2754     -2248.9181     -273.30206      46303.917      35.909215      35.909215      35.909215      1.3455211     -233.20804      189.6712      -28.927916    
    111000   111000         302.66468     -462.34979     -652.38947     -339.24896      3265.0108     -3604.2598      1301.112       1948.7245     -2045.3918      15.087372     -969.39955     -1607.1789     -2247.2133     -272.5009       46440.052      35.944372      35.944372      35.944372      1.3415768     -51.92087      -1356.1954      21.066921    
    112000   112000         295.70289     -86.915156     -473.61882     -414.48659      3189.9102     -3604.3968      1286.4304      2007.4986     -2089.0397      17.298033     -998.16477     -1592.2935     -2236.1258     -271.27376      46650.129      35.99849       35.99849       35.99849       1.3355354     -791.41316      476.76548      53.90221     
    113000   113000         301.82901     -365.63147     -634.93874     -388.52869      3255.996      -3644.5247      1282.39        1979.5649     -2066.9193      15.234707     -992.03668     -1614.8909     -2247.8673     -273.85563      46210.318      35.885003      35.885003      35.885003      1.3482465     -589.24296      437.27017     -944.92163    
    114000   114000         307.90066     -107.01962     -400.25744     -328.1111       3321.4943     -3649.6054      1251.5323      1974.0416     -2062.8008      15.126005     -960.25384     -1619.3622     -2247.8885     -273.76983      46224.8        35.888751      35.888751      35.888751      1.3478241      611.74535     -374.57953     -558.22467    
    115000   115000         303.30416      200.17401     -276.54969     -411.28731      3271.9093     -3683.1966      1237.1825      1977.7486     -2060.3556      15.437425     -993.13993     -1614.8649     -2245.2047     -274.19235      46153.57       35.870307      35.870307      35.870307      1.3499042      513.80737      264.67412     -177.95948    
    116000   116000         301.49268      686.6198       78.637048     -386.4437       3252.3679     -3638.8116      1249.0879      1983.8554     -2081.5623      15.411581     -955.95159     -1607.3854     -2242.2672     -272.47363      46444.699      35.945571      35.945571      35.945571      1.3414426      612.69848      1680.0637     -232.90274    
    117000   117000         303.9087      -528.64754     -754.35201     -394.58781      3278.4307     -3673.0185      1257.6023      1923.8635     -2052.8492      15.74138      -969.05721     -1605.5885     -2242.7308     -271.19694      46663.342      36.001888      36.001888      36.001888      1.3351572     -1819.0359      318.14355     -85.050239    
    118000   118000         303.56682      340.61625     -151.26214     -383.241        3274.7427     -3657.9837      1234.8168      1987.769      -2073.5821      16.415892     -972.66964     -1608.8701     -2241.8634     -270.99013      46698.954      36.011045      36.011045      36.011045      1.334139      -401.97173      790.09691      633.72357    
    119000   119000         295.83733      404.78921     -105.41662     -379.56237      3191.3605     -3570.9229      1275.9202      1968.5796     -2043.8723      15.472517     -917.27175     -1620.7461     -2249.0049     -272.51093      46438.342      35.943931      35.943931      35.943931      1.3416262      1033.7357     -1063.2401      1243.8721    
    120000   120000         310.04787      463.76937     -17.027954     -331.62125      3344.6574     -3676.2786      1233.64        1938.2275     -2057.8992      16.013383     -954.23944     -1605.8589     -2246.162      -272.07531      46512.695      35.963104      35.963104      35.963104      1.3394816      3281.3222     -16.027378     -1873.9867    
    121000   121000         295.15015      877.7567       169.16919     -426.86875      3183.9475     -3610.8163      1290.457       2008.0098     -2073.1944      16.438477     -979.96219     -1622.7215     -2249.8434     -271.79206      46561.168      35.975593      35.975593      35.975593      1.3380871      994.88744      644.31784      994.06482    
    122000   122000         297.52421     -869.66112     -1032.0486     -442.42262      3209.5577     -3651.9804      1274.633       1970.5811     -2076.7676      15.295441     -978.3913      -1610.9512     -2246.3797     -272.21368      46489.051      35.957009      35.957009      35.957009      1.3401628     -1840.7189     -759.96972     -8.2947624    
    123000   123000         300.19119     -970.83152     -1038.7829     -379.65591      3238.3279     -3617.9838      1296.127       1925.709      -2039.5438      15.314037     -973.15195     -1601.4921     -2240.946      -271.83869      46553.181      35.973535      35.973535      35.973535      1.3383167     -632.09491      334.85486     -2615.2545    
    124000   124000         300.71923     -848.23709     -1016.9976     -444.75136      3244.0242     -3688.7755      1289.3525      1937.009      -2058.121       15.464168     -1017.5121     -1608.6637     -2246.3044     -273.57149      46258.313      35.897422      35.897422      35.897422      1.3468476     -686.69633     -1988.4021      130.3871     
    125000   125000         298.62861      751.80142      60.299765     -445.49502      3221.4715     -3666.9665      1269.1032      1926.8345     -2047.2139      15.363765     -956.16079     -1624.6497     -2250.2435     -274.32495      46131.26       35.864527      35.864527      35.864527      1.350557      -343.6839       1474.2338      1124.8543    
    126000   126000         300.40199     -77.576644     -449.40083     -397.37657      3240.602      -3637.9785      1218.9707      2020.0249     -2068.6874      15.617424     -965.46187     -1612.0027     -2246.4395     -275.20835      45983.182      35.826112      35.826112      35.826112      1.3549062      1008.3271     -99.805848     -1141.2512    
    127000   127000         293.98487      1127.3054      296.62201     -470.17589      3171.377      -3641.5528      1252.6398      1974.6308     -2078.805       16.29277      -943.08445     -1617.3156     -2245.9111     -271.32961      46640.526      35.99602       35.99602       35.99602       1.3358104      536.79116      310.82698      2534.298     
    128000   128000         301.06772      1537.4133      689.99213     -350.59025      3247.7836     -3598.3739      1240.3384      2010.6522     -2071.8144      15.358925     -944.90621     -1605.4886     -2242.5141     -272.67836      46409.828      35.936572      35.936572      35.936572      1.3424505      1498.1334      1182.4926      1931.6137    
    129000   129000         294.00918     -764.90132     -967.16037     -446.98412      3171.6392     -3618.6233      1300.9738      1902.3578     -2048.8317      15.202175     -927.13559     -1614.6131     -2246.5768     -271.38848      46630.408      35.993417      35.993417      35.993417      1.3361002     -2977.5139      1272.914      -590.10409    
    130000   130000         295.69158      378.61369     -284.035       -539.48924      3189.7881     -3729.2774      1220.3402      1949.1846     -2084.2199      15.613107     -967.49891     -1618.9069     -2243.7895     -273.53928      46263.76       35.898831      35.898831      35.898831      1.346689       57.697668     -492.66583      1570.8092    
    131000   131000         304.71401     -232.66805     -524.0363      -365.78478      3287.1181     -3652.9029      1272.5999      1952.112      -2060.9955      14.654181     -975.33675     -1609.8171     -2246.1196     -271.34721      46637.5        35.995241      35.995241      35.995241      1.335897       1247.4365     -905.89728     -1039.5433    
    132000   132000         301.69201     -224.58287     -535.07969     -383.01294      3254.5181     -3637.5311      1276.8884      1949.9612     -2050.5425      16.105926     -974.41085     -1611.3428     -2244.1905     -272.57052      46428.19       35.941311      35.941311      35.941311      1.3419196     -1546.9528      12.990124      860.21411    
    133000   133000         305.89842     -513.02662     -642.63235     -294.21926      3299.895      -3594.1142      1270.8904      1971.5597     -2059.2917      15.984217     -941.95624     -1606.7529     -2244.5478     -271.75776      46567.044      35.977106      35.977106      35.977106      1.3379182     -681.00256     -245.83297     -612.24434    
    134000   134000         304.68313     -225.13467     -466.95917     -313.98742      3286.785      -3600.7724      1328.6222      1961.4263     -2073.9621      16.140507     -976.61754     -1610.5128     -2245.869      -271.6237       46590.027      35.983024      35.983024      35.983024      1.3372582      986.988       -898.41268     -763.97933    
    135000   135000         303.66096     -208.59635     -536.28257     -395.05634      3275.7583     -3670.8146      1237.9108      1976.3639     -2073.0952      16.464255     -973.88206     -1610.6549     -2243.9214     -272.60126      46422.954      35.93996       35.93996       35.93996       1.342071      -673.91888     -815.17605      863.30588    
    136000   136000         295.03909      907.75024      131.28495     -484.25869      3182.7494     -3667.0081      1242.0053      1961.2452     -2071.4475      16.014408     -965.2313      -1606.8989     -2242.6952     -272.17238      46496.106      35.958828      35.958828      35.958828      1.3399595      1448.943       894.87921      379.42851    
    137000   137000         302.88633      472.53555     -27.983207     -347.10555      3267.4019     -3614.5074      1268.6252      1961.0926     -2069.5738      15.619579     -940.88768     -1606.467      -2242.9163     -273.28374      46307.02       35.910017      35.910017      35.910017      1.3454309      1406.9723     -1134.3503      1144.9847    
    138000   138000         295.45807      1145.4036      296.53703     -476.44746      3187.2691     -3663.7166      1258.8992      1906.2122     -2042.9922      14.223009     -949.49357     -1609.6891     -2240.8761     -273.47918      46273.928      35.901461      35.901461      35.901461      1.3463931      494.73933      1399.3734      1542.098     
    139000   139000         295.15708     -884.55938     -1075.8481     -476.35525      3184.0222     -3660.3775      1301.7896      1953.9446     -2067.0096      15.105533     -1007.1204     -1610.4884     -2246.5989     -272.32         46470.901      35.952329      35.952329      35.952329      1.3406863     -581.46265     -793.6743      -1278.5412    
    140000   140000         299.87253     -231.16281     -533.70495     -376.73907      3234.8904     -3611.6294      1267.5593      1952.8686     -2035.0256      16.018262     -955.80691     -1609.531      -2247.712      -271.79986      46559.831      35.975248      35.975248      35.975248      1.3381255      1151.2769     -1790.0707     -54.694624    
    141000   141000         302.13839     -469.97529     -650.1429      -329.3875       3259.3334     -3588.7209      1309.9464      1970.1072     -2043.888       16.103319     -982.82547     -1612.1868     -2245.9776     -270.41923      46797.544      36.036369      36.036369      36.036369      1.3313284     -1176.178       1549.9957     -1783.7436    
    142000   142000         299.80637      539.13547     -4.147323      -370.69672      3234.1767     -3604.8734      1213.1708      2016.9404     -2038.0498      15.052699     -951.23536     -1612.2383     -2248.5138     -271.45754      46618.545      35.990364      35.990364      35.990364      1.3364402     -119.1351       533.10605      1203.4354    
    143000   143000         297.54998     -1353.6981     -1349.6025     -431.67335      3209.8357     -3641.5091      1282.4353      1980.2736     -2075.261       15.799759     -986.14015     -1613.5483     -2245.0682     -272.17561      46495.555      35.958686      35.958686      35.958686      1.3399754     -2259.4822     -445.08341     -1356.5286    
    144000   144000         293.77065     -190.8345      -561.38078     -432.22603      3169.066      -3601.2921      1289.751       1982.0009     -2080.7261      15.722334     -962.21693     -1604.1735     -2241.6497     -272.69869      46406.369      35.93568       35.93568       35.93568       1.3425506     -532.63636     -455.58986      415.72272    
    145000   145000         302.26937      254.17411     -161.88445     -333.55499      3260.7464     -3594.3014      1305.8413      1979.9558     -2079.194       15.417828     -954.80085     -1616.3866     -2245.1348     -273.25747      46311.473      35.911168      35.911168      35.911168      1.3453016      240.20149     -477.61389      999.93471    
    146000   146000         304.48277     -781.1085      -904.64609     -377.76924      3284.6235     -3662.3928      1283.2439      1976.4093     -2077.0376      16.75903      -992.68876     -1620.0788     -2248.9998     -273.61428      46251.079      35.895551      35.895551      35.895551      1.3470583     -296.05624     -1748.7684     -298.50088    
    147000   147000         298.88852     -424.40982     -732.61989     -447.48694      3224.2753     -3671.7623      1276.2299      1948.281      -2069.0509      14.918139     -979.66259     -1618.8389     -2243.639      -274.71005      46066.593      35.847761      35.847761      35.847761      1.3524529     -1393.8026     -582.4584       703.03153    
    148000   148000         306.6542      -742.927       -846.51572     -344.26461      3308.048      -3652.3126      1322.2926      1939.622      -2072.6948      14.595535     -994.18219     -1617.7216     -2244.2241     -272.99944      46355.244      35.922478      35.922478      35.922478      1.3440313      51.601787     -2409.0066      128.62379    
    149000   149000         298.67534     -1146.2323     -1195.8612     -416.99531      3221.9757     -3638.971       1301.5297      1968.6418     -2077.7588      16.483946     -992.38236     -1611.323      -2244.1623     -271.61045      46592.301      35.983609      35.983609      35.983609      1.337193      -1477.7652     -978.21153     -982.72012    
    150000   150000         296.80512     -330.84372     -717.79098     -495.12909      3201.8006     -3696.9297      1249.7802      1984.6043     -2079.4825      16.136747     -1011.3132     -1610.6413     -2246.0139     -274.22909      46147.386      35.868705      35.868705      35.868705      1.3500851     -95.78227      -499.84828     -396.90062    
    151000   151000         304.26034     -648.09376     -800.80124     -362.83842      3282.2242     -3645.0626      1294.2913      1945.3882     -2061.5596      15.359754     -989.65873     -1604.0368     -2244.8467     -273.10969      46336.531      35.917644      35.917644      35.917644      1.3445741     -1055.8672     -770.73738     -117.67668    
    152000   152000         301.26193     -935.43291     -1120.6776     -488.06065      3249.8786     -3737.9393      1242.2597      1941.4257     -2086.0898      14.508972     -998.48286     -1605.45       -2246.111      -272.903        46371.625      35.926709      35.926709      35.926709      1.3435565      82.731339     -1816.4652     -1072.5649    
    153000   153000         302.90156      497.58653      1.8706806     -332.64992      3267.5662     -3600.2162      1303.8422      1967.9606     -2038.6176      15.196253     -1011.7952     -1599.0924     -2237.7101     -274.52523      46097.605      35.855803      35.855803      35.855803      1.3515431     -438.85316      1708.0058      223.6069     
    154000   154000         295.14631     -907.55009     -1065.953      -456.66077      3183.9061     -3640.5668      1283.5884      1944.7273     -2050.0013      15.307456     -992.10817     -1599.5169     -2242.5636     -274.90429      46034.042      35.839315      35.839315      35.839315      1.3534092     -1480.8162     -1031.3157     -210.5183     
    155000   155000         304.59663     -322.17367     -559.58839     -341.60347      3285.8519     -3627.4553      1271.6568      1966.9207     -2050.0048      14.737388     -969.03841     -1613.6399     -2248.0871     -272.7722       46393.862      35.932451      35.932451      35.932451      1.3429125     -549.76137     -934.81699      518.05734    
    156000   156000         304.64439     -429.97262     -662.85737     -370.50358      3286.367      -3656.8706      1275.3579      1980.8637     -2087.978       15.542287     -990.43747     -1607.1776     -2243.0414     -271.43671      46622.124      35.991285      35.991285      35.991285      1.3363376     -595.29137      481.06512     -1175.6916    
    157000   157000         297.87837     -162.85324     -475.86477     -365.93799      3213.3783     -3579.3163      1310.195       1997.2643     -2057.8761      15.755581     -986.42104     -1613.9645     -2244.2696     -273.41947      46284.032      35.904074      35.904074      35.904074      1.3460992     -1310.5036     -750.12153      1572.0654    
    158000   158000         301.88771     -279.05077     -578.787       -390.61033      3256.6293     -3647.2396      1249.7899      2007.1244     -2063.6016      15.771151     -1008.7615     -1603.7872     -2243.7748     -273.68687      46238.811      35.892377      35.892377      35.892377      1.3474156     -268.8199      -90.647738     -477.68466    
    159000   159000         294.25762     -557.87496     -821.39323     -445.25716      3174.3193     -3619.5764      1284.7056      1966.4188     -2055.0184      14.810492     -977.92631     -1611.7943     -2240.7724     -273.73379      46230.887      35.890326      35.890326      35.890326      1.3476466     -892.08626      512.40871     -1293.9473    
    160000   160000         296.57791     -517.61155     -800.57143     -449.41039      3199.3495     -3648.7599      1249.9108      1968.3555     -2057.5688      15.372293     -967.11501     -1613.3395     -2244.3751     -272.04087      46518.584      35.964622      35.964622      35.964622      1.339312      -382.95037     -1630.853       460.96871    
    161000   161000         302.29442      35.010314     -378.12778     -401.74564      3261.0166     -3662.7622      1289.966       1955.7543     -2056.6886      15.720686     -1015.8788     -1605.3386     -2246.2973     -273.58489      46256.049      35.896836      35.896836      35.896836      1.3469135     -1525.2867      1532.0728      98.244853    
    162000   162000         305.55305     -792.97315     -890.59002     -355.90303      3296.1693     -3652.0723      1295.6691      1941.6657     -2029.9086      14.876548     -1023.5651     -1605.0979     -2245.712      -273.71298      46234.402      35.891236      35.891236      35.891236      1.3475441     -1111.5163      801.92229     -2069.3255    
    163000   163000         299.25826     -682.45858     -891.8411      -425.96412      3228.2639     -3654.228       1298.9424      1911.1972     -2066.4274      14.783887     -966.09388     -1601.0174     -2245.6128     -270.35946      46807.89       36.039024      36.039024      36.039024      1.3310341     -1338.543      -1054.8695      346.03678    
    164000   164000         301.0981      -1165.3899     -1205.5651     -417.5971       3248.1113     -3665.7084      1272.6146      1956.556      -2067.2592      15.406942     -984.59911     -1610.8473     -2247.5802     -272.96013      46361.92       35.924203      35.924203      35.924203      1.3438377     -885.75041     -556.22316     -2054.1962    
    165000   165000         293.28177      963.51874      215.64185     -427.20635      3163.7922     -3590.9985      1283.1214      2013.4585     -2059.4612      15.231461     -985.10663     -1608.8157     -2249.4263     -276.62298      45748.028      35.764937      35.764937      35.764937      1.3618707     -1623.8216      2689.9334      1824.4445    
[...]
   1965000   1965000        299.83564     -950.8036      -1146.4139     -508.28747      3234.4924     -3742.7799      1260.8242      1966.2374     -2084.5174      15.125715     -1037.2461     -1614.1652     -2249.0384     -274.99233      46019.305      35.83549       35.83549       35.83549       1.3538427     -465.00633     -941.03414     -1446.3703    
   1966000   1966000        301.36888     -240.73483     -669.45937     -509.26094      3251.0324     -3760.2933      1259.0881      1940.0678     -2071.8169      14.092949     -1044.0211     -1613.5191     -2244.1851     -277.34299      45629.261      35.73396       35.73396       35.73396       1.3654155     -1001.025       691.28322     -412.46272    
   1967000   1967000        304.98523     -1110.8799     -1143.4444     -400.5956       3290.0439     -3690.6395      1294.8376      1944.7543     -2075.0718      15.105406     -1017.0992     -1610.7666     -2242.3993     -275.99627      45851.909      35.791987      35.791987      35.791987      1.3587853     -2190.473       198.92662     -1341.0932    
   1968000   1968000        297.4384       815.74178      1.5158331     -540.78213      3208.6321     -3749.4142      1251.4504      1931.852      -2091.054       15.131245     -1001.6471     -1613.5952     -2241.5515     -277.62032      45583.679      35.722057      35.722057      35.722057      1.3667808      2065.0899      785.81264     -403.67716    
   1969000   1969000        297.092        404.52735     -176.05437     -445.32928      3204.8953     -3650.2246      1307.5261      2003.1719     -2078.2261      14.839094     -1022.5576     -1626.0454     -2248.9325     -277.26083      45642.783      35.737489      35.737489      35.737489      1.3650109      1369.1288      813.90445     -969.45116    
   1970000   1970000        292.59171     -436.71346     -880.94108     -588.82354      3156.3482     -3745.1717      1290.2522      1956.145      -2110.1301      15.555819     -1035.8102     -1617.0086     -2244.1759     -275.9151       45865.398      35.795496      35.795496      35.795496      1.3583856     -423.37592      535.23841     -1422.0029    
   1971000   1971000        298.69686      783.56281      123.6741      -399.11082      3222.2078     -3621.3186      1306.119       2003.5545     -2072.2452      15.868621     -1020.3261     -1612.1246     -2242.1648     -276.62236      45748.13       35.764963      35.764963      35.764963      1.3618676      287.51982      1696.8413      366.32736    
   1972000   1972000        300.6679      -410.13081     -720.03933     -445.4804       3243.4704     -3688.9508      1300.9772      1977.0388     -2063.2668      15.448192     -1054.931      -1617.737      -2246.4802     -275.69148      45902.6        35.805172      35.805172      35.805172      1.3572847     -382.54621     -550.42729     -297.41894    
   1973000   1973000        301.19095     -210.36658     -526.97815     -386.36317      3249.113      -3635.4761      1310.9044      1973.3804     -2058.6692      15.225281     -1010.7829     -1619.3934     -2246.1406     -276.10971      45833.07       35.787084      35.787084      35.787084      1.3593438      467.33293     -195.00404     -903.42865    
   1974000   1974000        302.69166     -248.81203     -642.88058     -476.51924      3265.3019     -3741.8212      1293.5911      1958.6808     -2083.3265      16.525251     -1067.3495     -1614.8395     -2245.1027     -276.0295       45846.388      35.79055       35.79055       35.79055       1.3589489     -716.95379      616.79707     -646.27936    
   1975000   1975000        301.57293      737.18842      95.273689     -396.38081      3253.2336     -3649.6144      1285.6171      2015.5048     -2078.9906      15.991951     -1022.814      -1617.4582     -2247.4655     -276.72921      45730.466      35.76036       35.76036       35.76036       1.3623937      933.50428      1595.1491     -317.08817    
   1976000   1976000        301.61914      278.67792     -248.76681     -436.49401      3253.732      -3690.226       1301.9241      1947.9051     -2069.4618      15.853866     -1025.3398     -1616.7354     -2244.3721     -273.9756       46190.084      35.879764      35.879764      35.879764      1.3488371     -1011.7204      1981.5579     -133.80373    
   1977000   1977000        301.40043     -236.58236     -672.82436     -514.1149       3251.3726     -3765.4875      1232.8133      1987.1381     -2106.1201      16.707551     -1028.2345     -1620.3307     -2247.4611     -275.11613      45998.596      35.830114      35.830114      35.830114      1.3544522     -840.19767     -1011.1514      1141.602     
   1978000   1978000        298.53709      833.65948      10.44634      -543.82035      3220.4843     -3764.3046      1236.3693      1958.0155     -2085.6893      16.402207     -1018.21       -1623.4963     -2247.696      -277.59168      45588.383      35.723286      35.723286      35.723286      1.3666398      529.03834      1547.1207      424.81943    
   1979000   1979000        301.24278      73.746618     -478.14739     -527.62829      3249.672      -3777.3003      1247.3741      1921.8133     -2076.0806      15.627017     -1012.0867     -1623.1096     -2250.8378     -275.06858      46006.547      35.832178      35.832178      35.832178      1.3542181     -1240.6851      1096.5516      365.37329    
   1980000   1980000        297.68672      1668.6648      626.18754     -491.34575      3211.3108     -3702.6566      1249.9934      1964.476      -2082.7076      15.281513     -982.95318     -1620.1144     -2246.6323     -275.57838      45921.438      35.810069      35.810069      35.810069      1.3567279      640.20999      2588.9936      1776.7907    
   1981000   1981000        301.35689      315.58313     -235.53663     -448.02826      3250.903      -3698.9312      1271.5218      1965.2614     -2077.1826      16.238583     -995.72583     -1627.1258     -2251.9188     -274.09965      46169.179      35.874351      35.874351      35.874351      1.3494478      208.42027      233.81008      504.51905    
   1982000   1982000        302.71458      628.08874      30.340033     -389.97349      3265.5492     -3655.5227      1294.6041      1969.3439     -2082.384       15.130013     -983.89621     -1620.8567     -2247.4637     -275.79359      45885.606      35.800753      35.800753      35.800753      1.3577874      29.513272     -532.73418      2387.4871    
   1983000   1983000        297.96975     -543.11045     -891.53092     -526.93949      3214.364      -3741.3035      1273.9225      1925.5757     -2060.7845      14.473314     -1030.0868     -1615.7487     -2248.6549     -274.92752      46030.152      35.838306      35.838306      35.838306      1.3535236      715.15834     -702.75925     -1641.7304    
   1984000   1984000        297.29899     -1130.0123     -1231.1008     -478.22384      3207.1282     -3685.352       1266.6603      1993.9556     -2069.5927      16.45308      -1035.7691     -1610.1084     -2246.9507     -277.01014      45684.088      35.748266      35.748266      35.748266      1.3637768     -1845.2028     -1046.6769     -498.15734    
   1985000   1985000        297.12177      564.26883     -103.58249     -480.46787      3205.2164     -3685.6843      1221.6439      2025.0886     -2079.2312      15.420361     -990.1739      -1625.9665     -2252.4656     -276.32061      45798.088      35.777977      35.777977      35.777977      1.3603821     -491.98454      1587.1382      597.65283    
   1986000   1986000        306.67525     -525.4165      -707.98199     -354.43198      3308.2751     -3662.7071      1301.5436      1990.7203     -2083.4209      15.840998     -1014.3352     -1621.2166     -2251.8394     -274.27699      46139.327      35.866617      35.866617      35.866617      1.3503209     -609.03045     -1859.1544      891.9353     
   1987000   1987000        293.75107     -1093.3903     -1219.5074     -482.41106      3168.8548     -3651.2659      1317.4114      1987.7829     -2072.2625      15.89269      -1044.652      -1608.3761     -2247.0624     -273.77102      46224.599      35.888699      35.888699      35.888699      1.3478299     -1455.6779     -1602.7154     -221.77757    
   1988000   1988000        296.39488     -1191.1537     -1316.8185     -511.74663      3197.3751     -3709.1217      1256.2791      2002.7846     -2075.4395      15.892331     -1048.4063     -1613.8602     -2246.3718     -273.0673       46343.724      35.919502      35.919502      35.919502      1.3443654     -2107.8947     -813.33626     -652.23025    
   1989000   1989000        304.59434      665.95403      27.470355     -421.4029       3285.8271     -3707.23        1260.8798      1982.0674     -2086.7147      15.567227     -1002.6442     -1624.9315     -2251.454      -273.81488      46217.195      35.886783      35.886783      35.886783      1.3480458      1017.6744      296.62519      683.56252    
   1990000   1990000        292.4247       586.1249      -140.8682      -534.67012      3154.5466     -3689.2167      1253.2563      1982.1276     -2077.5969      15.679781     -987.72881     -1625.9055     -2249.0491     -274.6938       46069.316      35.848467      35.848467      35.848467      1.352373       1901.4189      646.60845     -789.65261    
   1991000   1991000        299.35327     -846.10423     -1058.1212     -489.50669      3229.2889     -3718.7956      1285.9079      1964.4769     -2079.9228      15.502372     -1039.3414     -1615.3        -2250.1185     -274.62649      46080.608      35.851396      35.851396      35.851396      1.3520416     -809.70153     -1217.6102     -511.00093    
   1992000   1992000        306.41929     -2601.0274     -2124.6738     -363.66176      3305.5139     -3669.1757      1298.6255      1989.3077     -2074.1417      15.620186     -1033.2622     -1615.6996     -2249.6255     -272.59578      46423.888      35.940201      35.940201      35.940201      1.342044      -61.692377     -3284.4873     -4456.9027    
   1993000   1993000        301.27303     -317.95736     -725.89367     -511.29615      3249.9983     -3761.2945      1282.854       1875.7427     -2071.1468      14.274546     -1001.5137     -1614.7821     -2246.7231     -273.45175      46278.57       35.902661      35.902661      35.902661      1.3462581      561.5091      -2102.9373      587.55615    
   1994000   1994000        302.93483      238.40005     -290.23068     -449.42068      3267.9251     -3717.3458      1273.335       1936.1269     -2074.6317      15.10293      -1010.4989     -1615.0757     -2241.7043     -276.39303      45786.088      35.774852      35.774852      35.774852      1.3607386      446.29338      1726.9133     -1458.0066    
   1995000   1995000        295.66853     -16.486547     -532.53302     -521.44007      3189.5395     -3710.9796      1275.345       1913.6493     -2076.6003      15.63901      -981.34719     -1613.9342     -2243.7311     -274.29598      46136.133      35.86579       35.86579       35.86579       1.3504144      618.75527     -481.57596     -186.63895    
   1996000   1996000        303.82011      598.29688     -129.48656     -529.93067      3277.4752     -3807.4058      1190.9498      1954.7877     -2094.5708      15.387325     -1015.8372     -1612.2523     -2245.8703     -275.74735      45893.3        35.802754      35.802754      35.802754      1.3575598      2261.5141      51.375053     -517.99857    
   1997000   1997000        300.63317      181.95067     -365.37802     -487.55864      3243.0959     -3730.6545      1215.655       2011.6242     -2072.4146      15.622976     -1031.482      -1619.1558     -2250.5042     -274.845        46043.973      35.841892      35.841892      35.841892      1.3531173      450.82828      1104.6496     -1009.6259    
   1998000   1998000        297.95616     -324.635       -730.71385     -510.92007      3214.2175     -3725.1375      1278.6944      1936.1198     -2094.8245      16.040978     -996.36562     -1617.5664     -2247.2361     -272.59411      46424.172      35.940275      35.940275      35.940275      1.3420357     -285.76552      684.25269     -1372.3922    
   1999000   1999000        300.68174      698.58853      25.628772     -439.81441      3243.6197     -3683.4342      1315.7999      1957.4058     -2078.0556      16.097259     -1028.4641     -1619.928      -2246.2893     -277.00735      45684.548      35.748387      35.748387      35.748387      1.363763       1058.7557      1597.363      -560.35305    
   2000000   2000000        299.28927      176.36787     -365.54331     -484.25976      3228.5984     -3712.8582      1248.7175      1948.3637     -2069.0971      14.746988     -994.42734     -1613.2747     -2247.8871     -274.18587      46154.66       35.87059       35.87059       35.87059       1.3498723      1212.0271      362.45451     -1045.378     
Loop time of 33048.5 on 1 procs for 2000000 steps with 3620 atoms

Performance: 5.229 ns/day, 4.590 hours/ns, 60.517 timesteps/s, 219.072 katom-step/s
93.4% CPU use with 1 MPI tasks x 1 OpenMP threads

MPI task timing breakdown:
Section |  min time  |  avg time  |  max time  |%varavg| %total
---------------------------------------------------------------
Pair    | 1048.7     | 1048.7     | 1048.7     |   0.0 |  3.17
Bond    | 16093      | 16093      | 16093      |   0.0 | 48.69
Kspace  | 7285.1     | 7285.1     | 7285.1     |   0.0 | 22.04
Neigh   | 3307.5     | 3307.5     | 3307.5     |   0.0 | 10.01
Comm    | 282.43     | 282.43     | 282.43     |   0.0 |  0.85
Output  | 24.416     | 24.416     | 24.416     |   0.0 |  0.07
Modify  | 4899.5     | 4899.5     | 4899.5     |   0.0 | 14.83
Other   |            | 108.4      |            |       |  0.33

Nlocal:           3620 ave        3620 max        3620 min
Histogram: 1 0 0 0 0 0 0 0 0 0
Nghost:          12445 ave       12445 max       12445 min
Histogram: 1 0 0 0 0 0 0 0 0 0
Neighs:              0 ave           0 max           0 min
Histogram: 1 0 0 0 0 0 0 0 0 0
FullNghs:   1.7998e+06 ave  1.7998e+06 max  1.7998e+06 min
Histogram: 1 0 0 0 0 0 0 0 0 0

Total # of neighbors = 1799800
Ave neighs/atom = 497.18232
Ave special neighs/atom = 5.9723757
Neighbor list builds = 46946
Dangerous builds = 0

# --- Cleanup ---
unfix npt_fix

undump dump_npt

# --- Write Output ---
write_dump all custom npt_prod300_last.dump id type mol x y z xu yu zu vx vy vz modify sort id
write_data /home/arz2/PolyJarvis/data/PVC1/lammps/equil/npt_prod300/npt_prod300_out.data
System init for write_data ...
PPPM initialization ...
  using 12-bit tables for long-range coulomb
  G vector (1/distance) = 0.29541673
  grid = 24 24 24
  stencil order = 5
  estimated absolute RMS force accuracy = 0.0003765432
  estimated relative force accuracy = 1.1339487e-06
  using double precision KISS FFT
  3d grid and FFT values/proc = 29791 13824
Generated 6 of 6 mixed pair_coeff terms from sixthpower/sixthpower mixing rule

print "STAGE COMPLETE: NPT T=300.0->300.0K P=1.0->1.0atm steps=2000000"
STAGE COMPLETE: NPT T=300.0->300.0K P=1.0->1.0atm steps=2000000
quit
n ...
  using 12-bit tables for long-range coulomb
  G vector (1/distance) = 0.29541673
  grid = 24 24 24
  stencil order = 5
  estimated absolute RMS force accuracy = 0.0003765432
  estimated relative force accuracy = 1.1339487e-06
  using double precision KISS FFT
  3d grid and FFT values/proc = 29791 13824


---------------------------------------------------------------------
    Device Time Info (average) for kspace: 
---------------------------------------------------------------------
Data Out:        79.5642 s.
Data In:         466.7158 s.
Kernel (map):    47.0315 s.
Kernel (rho):    451.8268 s.
Force interp:    83.8555 s.
Total rho:       578.4225 s.
Total interp:    550.5713 s.
Force copy:      33.4107 s.
Total:           1162.4045 s.
CPU Poisson:     7149.7084 s.
CPU Data Cast:   26.8226 s.
CPU Idle Time:   19.4445 s.
Max Mem / Proc:  7.89 MB.
---------------------------------------------------------------------


--------------------------------------------------------------------------
- Using acceleration for pppm:
-  with 1 proc(s) per device.
-  with 1 thread(s) per proc.
-  Horizontal vector operations: ENABLED
-  Shared memory system: No
--------------------------------------------------------------------------
Device 0: Quadro RTX 6000, 72 CUs, 23/24 GB, 1.8 GHZ (Mixed Precision)
--------------------------------------------------------------------------

Initializing Device and compiling on process 0...Done.
Initializing Device 0 on core 0...Done.



---------------------------------------------------------------------
      Device Time Info (average): 
---------------------------------------------------------------------
Data Transfer:   43.8201 s.
Neighbor copy:   209.9639 s.
Neighbor unpack: 0.0000 s.
Force calc:      527.2310 s.
Device Overhead: 39.3664 s.
CPU Cast/Pack:   57.7283 s.
CPU Driver_Time: 30.1864 s.
CPU Idle_Time:   11.8384 s.
Average split:   1.0000.
Max Mem / Proc:  10.41 MB.
Prefetch mode:   None.
Vector width:    32.
Lanes / atom:    8.
Pair block:      256.
Neigh block:     128.
Neigh mode:      Host.
---------------------------------------------------------------------


--------------------------------------------------------------------------
- Using acceleration for lj/class2/coul/long:
-  with 1 proc(s) per device.
-  with 1 thread(s) per proc.
-  Horizontal vector operations: ENABLED
-  Shared memory system: No
--------------------------------------------------------------------------
Device 0: Quadro RTX 6000, 72 CUs, 23/24 GB, 1.8 GHZ (Mixed Precision)
--------------------------------------------------------------------------

Initializing Device and compiling on process 0...Done.
Initializing Device 0 on core 0...Done.

Generated 6 of 6 mixed pair_coeff terms from sixthpower/sixthpower mixing rule
STAGE COMPLETE: NPT T=300.0->300.0K P=1.0->1.0atm steps=2000000
Cuda driver error 4 in call at file '/home/arz2/lammps/lib/gpu/geryon/nvd_timer.h' in line 98.
Cuda driver error 4 in call at file '/home/arz2/lammps/lib/gpu/geryon/nvd_timer.h' in line 99.
Cuda driver error 4 in call at file '/home/arz2/lammps/lib/gpu/geryon/nvd_timer.h' in line 98.
Cuda driver error 4 in call at file '/home/arz2/lammps/lib/gpu/geryon/nvd_timer.h' in line 99.
Cuda driver error 4 in call at file '/home/arz2/lammps/lib/gpu/geryon/nvd_timer.h' in line 98.
Cuda driver error 4 in call at file '/home/arz2/lammps/lib/gpu/geryon/nvd_timer.h' in line 99.
Cuda driver error 4 in call at file '/home/arz2/lammps/lib/gpu/geryon/nvd_timer.h' in line 98.
Cuda driver error 4 in call at file '/home/arz2/lammps/lib/gpu/geryon/nvd_timer.h' in line 99.
Cuda driver error 4 in call at file '/home/arz2/lammps/lib/gpu/geryon/nvd_timer.h' in line 98.
Cuda driver error 4 in call at file '/home/arz2/lammps/lib/gpu/geryon/nvd_timer.h' in line 99.
Cuda driver error 4 in call at file '/home/arz2/lammps/lib/gpu/geryon/nvd_timer.h' in line 98.
Cuda driver error 4 in call at file '/home/arz2/lammps/lib/gpu/geryon/nvd_timer.h' in line 99.
Cuda driver error 4 in call at file '/home/arz2/lammps/lib/gpu/geryon/nvd_timer.h' in line 98.
Cuda driver error 4 in call at file '/home/arz2/lammps/lib/gpu/geryon/nvd_timer.h' in line 99.
Cuda driver error 4 in call at file '/home/arz2/lammps/lib/gpu/geryon/nvd_timer.h' in line 98.
Cuda driver error 4 in call at file '/home/arz2/lammps/lib/gpu/geryon/nvd_timer.h' in line 99.
Cuda driver error 4 in call at file '/home/arz2/lammps/lib/gpu/geryon/nvd_timer.h' in line 98.
Cuda driver error 4 in call at file '/home/arz2/lammps/lib/gpu/geryon/nvd_timer.h' in line 99.
Cuda driver error 4 in call at file '/home/arz2/lammps/lib/gpu/geryon/nvd_timer.h' in line 98.
Cuda driver error 4 in call at file '/home/arz2/lammps/lib/gpu/geryon/nvd_timer.h' in line 99.
