units real
atom_style full
boundary p p p

# --- Force Field Styles ---
pair_style lj/class2/coul/long 9.5 9.5
kspace_style pppm 1e-6
dielectric 1.000000
bond_style class2
angle_style class2
dihedral_style class2
improper_style class2
special_bonds lj/coul 0 0 1
pair_modify mix sixthpower tail yes
neighbor 2.0 bin
neigh_modify delay 0 every 1 check yes
neigh_modify one 4000
# GPU disabled (CPU run)

read_data /home/arz2/PolyJarvis/data/PSU4/lammps/equil/npt_prod300/npt_prod300_out.data
Reading data file ...
  orthogonal box = (5.9633458 5.9633458 5.9633458) to (55.929296 55.929296 55.929296)
  1 by 1 by 1 MPI processor grid
  reading atoms ...
  10816 atoms
  reading velocities ...
  10816 velocities
  scanning bonds ...
  4 = max bonds/atom
  scanning angles ...
  16 = max angles/atom
  scanning dihedrals ...
  38 = max dihedrals/atom
  scanning impropers ...
  12 = max impropers/atom
  orthogonal box = (5.9633458 5.9633458 5.9633458) to (55.929296 55.929296 55.929296)
  1 by 1 by 1 MPI processor grid
  reading bonds ...
  11608 bonds
  reading angles ...
  19600 angles
  reading dihedrals ...
  29184 dihedrals
  reading impropers ...
  8000 impropers
Finding 1-2 1-3 1-4 neighbors ...
  special bond factors lj:    0        0        1       
  special bond factors coul:  0        0        1       
     4 = max # of 1-2 neighbors
    10 = max # of 1-3 neighbors
    14 = max # of special neighbors
  special bonds CPU = 0.006 seconds
  read_data CPU = 0.400 seconds


# --- Thermo Output ---
thermo_style custom step time temp press enthalpy etotal ke pe ebond eangle edihed eimp evdwl ecoul elong etail vol lx ly lz density pxx pyy pzz
thermo_modify flush yes
thermo 500

# --- Velocity initialization at T_START (once only — Rule A) ---
velocity all create 750.0 581931 mom yes rot yes dist gaussian

# --- Temperature staircase (inherits momenta across steps — Rule A) ---
variable temps index 750 730 710 690 670 650 630 610 590 570 550 530 510 490 470 450 430 410 390 370 350 330 310 290 270 250
label TEMP_LOOP
  timestep 1
  fix npt_tg all npt temp ${temps} ${temps} 100.0 iso 1.0 1.0 1000.0
  fix npt_tg all npt temp 750 ${temps} 100.0 iso 1.0 1.0 1000.0
  fix npt_tg all npt temp 750 750 100.0 iso 1.0 1.0 1000.0
  run 200000
PPPM Kokkos initialization ...
  using 12-bit tables for long-range coulomb
  G vector (1/distance) = 0.30185545
  grid = 36 36 36
  stencil order = 5
  estimated absolute RMS force accuracy = 0.00028929117
  estimated relative force accuracy = 8.7119176e-07
  using double precision cuFFT
  3d grid and FFT values/proc = 79507 46656
Generated 28 of 28 mixed pair_coeff terms from sixthpower/sixthpower mixing rule
Neighbor list info ...
  update: every = 1 steps, delay = 0 steps, check = yes
  max neighbors/atom: 4000, page size: 100000
  master list distance cutoff = 11.5
  ghost atom cutoff = 11.5
  binsize = 11.5, bins = 5 5 5
  1 neighbor lists, perpetual/occasional/extra = 1 0 0
  (1) pair lj/class2/coul/long/kk, perpetual
      attributes: full, newton off, kokkos_device
      pair build: full/bin/kk/device
      stencil: full/bin/3d
      bin: kk/device
Per MPI rank memory allocation (min/avg/max) = 63.61 | 63.61 | 63.61 Mbytes
   Step          Time           Temp          Press         Enthalpy        TotEng         KinEng         PotEng         E_bond        E_angle        E_dihed        E_impro         E_vdwl         E_coul         E_long         E_tail         Volume           Lx             Ly             Lz          Density          Pxx            Pyy            Pzz      
         0   0              750            5008.9402      47974.092      38861.453      24178.096      14683.357      4989.2674      5082.0704      3839.0734      380.4107      -588.70181      8116.8854     -7135.6482     -876.51014      124744.8       49.96595       49.96595       49.96595       1.1783825      4737.3543      4819.7376      5469.7288    
       500   500            700.0785       1749.1381      53601.796      50305.81       22568.753      27737.057      9740.732       8872.1674      6706.2147      857.83273      521.17459      8157.4823     -7118.5465     -846.24091      129206.8       50.55473       50.55473       50.55473       1.1376885      1619.0272      832.84237      2795.5448    
      1000   1000           754.44855     -141.59337      53966.864      54242.792      24321.505      29921.286      10596.434      9380.4031      7092.346       913.30854      900.70552      8156.7983     -7118.7097     -818.28158      133621.59      51.124084      51.124084      51.124084      1.1000999     -916.3457      -92.190895      583.75648    
      1500   1500           763.51146     -963.55712      52927.362      54828.835      24613.671      30215.164      10556.521      9469.1886      7185.8908      927.9078       1040.6965      8153.115      -7118.1553     -808.05804      135312.16      51.338788      51.338788      51.338788      1.0863553     -568.12205     -1502.9742     -819.57509    
      2000   2000           761.9386      -1020.2015      52642.109      54668.907      24562.966      30105.942      10661.703      9301.4993      7113.7591      928.44511      1059.0046      8157.8583     -7116.3274     -802.65844      136222.43      51.453652      51.453652      51.453652      1.0790961     -137.99894     -2204.927      -717.67849    
      2500   2500           744.26374     -1798.0428      50546.971      54102.684      23993.173      30109.511      10609.141      9313.1695      7280.163       934.96738      940.54112      8151.6134     -7120.0845     -806.35941      135597.2       51.374812      51.374812      51.374812      1.0840717     -455.68288     -1587.7537     -3350.6917    
      3000   3000           750.43341     -998.49179      51981.965      53975.953      24192.068      29783.886      10203.223      9187.96        7408.7189      920.41991      1028.6446      8151.7463     -7116.8267     -798.50438      136931.1       51.542724      51.542724      51.542724      1.0735114      132.68701     -708.48796     -2419.6744    
      3500   3500           746.80314      1700.1501      57852.522      54447.577      24075.037      30372.54       10492.548      9489.4821      7231.5509      955.70118      1162.028       8159.0906     -7117.8602     -796.21891      137324.15      51.591993      51.591993      51.591993      1.0704388      3099.3249      934.95516      1066.1703    
      4000   4000           751.74131     -129.5227       54567.541      54826.873      24234.231      30592.642      10599.327      9480.5567      7352.1233      939.08193      1173.5654      8166.891      -7118.9033     -796.42674      137288.31      51.587505      51.587505      51.587505      1.0707182     -3.5817779      167.48862     -552.47494    
      4500   4500           745.94811      18.443456      54361.873      54324.802      24047.473      30277.329      10606.8        9192.5946      7285.2156      963.30379      1145.9482      8193.7569     -7110.2895     -793.34264      137822.02      51.654266      51.654266      51.654266      1.0665719      196.81367      1078.2053     -1219.6886    
      5000   5000           748.92564      618.01058      55370.74       54123.034      24143.461      29979.573      10370.352      9263.0157      7142.2079      916.40703      1210.3541      8193.2164     -7115.9797     -789.83949      138433.29      51.730521      51.730521      51.730521      1.0618623      1867.0339     -273.26947      260.26735    
      5500   5500           750.47746     -649.76245      53078.742      54392.51       24193.488      30199.022      10187.491      9507.6209      7332.7         909.40676      1190.3919      8184.5712     -7113.1604     -788.66254      138639.88      51.756241      51.756241      51.756241      1.06028       -1993.6197      703.90862     -659.57627    
      6000   6000           755.30461      463.325        55761.605      54820.387      24349.103      30471.284      10293.24       9408.4521      7430.2307      976.25705      1279.9339      8192.8709     -7109.701      -784.96549      139292.85      51.837368      51.837368      51.837368      1.0553097      621.05656      174.43086      594.48756    
      6500   6500           752.85846      994.76527      56942.534      54925.225      24270.245      30654.98       10362.266      9545.5829      7336.1379      960.27772      1395.816       8162.8945     -7107.9952     -786.32768      139051.55      51.807418      51.807418      51.807418      1.057141       2170.5094     -11.153675      824.94003    
      7000   7000           752.87661      130.02307      55073.727      54809.854      24270.83       30539.024      10399.666      9419.176       7478.5113      969.85082      1216.3105      8166.0593     -7110.5505     -785.74186      139155.22      51.82029       51.82029       51.82029       1.0563534     -79.361314      1438.0802     -968.64974    
      7500   7500           742.23105     -539.67291      53540.086      54644.342      23927.644      30716.697      10420.143      9514.3786      7373.812       959.64985      1373.0297      8182.2641     -7106.5802     -779.32101      140301.72      51.962217      51.962217      51.962217      1.0477212     -1416.7928     -1219.6853      1017.4593    
      8000   8000           751.17432     -616.20918      53205.321      54470.218      24215.953      30254.265      10339.012      9319.9092      7292.5061      932.46025      1297.0872      8177.966      -7104.6754     -776.83448      140750.81      52.017599      52.017599      52.017599      1.0443783     -1325.5203     -1420.8034      897.69613    
      8500   8500           739.71941      1963.7926      58079.122      54097.046      23846.675      30250.37       10481.093      9264.4513      7151.8758      929.42143      1348.9934      8182.6904     -7108.1545     -786.39617      139039.44      51.805913      51.805913      51.805913      1.0572331      2064.2068      2211.2282      1615.9429    
      9000   9000           748.03679     -342.3705       53851.985      54544.49       24114.807      30429.683      10455.988      9374.0101      7337.9182      966.32711      1228.0364      8174.2987     -7106.8945     -788.36783      138691.71      51.76269       51.76269       51.76269       1.0598838     -1619.0721      639.45952     -47.498891    
      9500   9500           752.589        751.58999      56199.182      54667.901      24261.558      30406.343      10439.241      9332.0326      7272.2315      913.93545      1364.383       8190.2916     -7105.7728     -782.67491      139700.51      51.887888      51.887888      51.887888      1.0522302      491.67417      677.02062      1086.0752    
     10000   10000          749.74476      496.37313      55963.616      54949.808      24169.867      30779.941      10649.032      9488.5592      7274.652       935.64095      1350.4465      8191.0416     -7109.4313     -780.74298      140046.19      51.930651      51.930651      51.930651      1.0496329      1754.8785     -37.289537     -228.4696     
     10500   10500          752.26682     -267.65048      54461.351      55008.725      24251.172      30757.553      10533.411      9433.5851      7400.5131      983.68241      1316.0388      8197.6055     -7107.2829     -779.72121      140229.71      51.953325      51.953325      51.953325      1.0482592      155.08608      1130.7471     -2088.7846    
     11000   11000          757.27036      817.37095      56693.567      55030.539      24412.474      30618.066      10536.496      9468.4251      7164.7339      937.56097      1450.616       8176.605      -7116.3714     -783.74544      139509.69      51.864252      51.864252      51.864252      1.0536694      1993.6444     -47.325882      505.7943     
     11500   11500          752.94012      1338.1641      57358.9        54637.73       24272.878      30364.852      10253.384      9422.5536      7283.0405      942.19401      1421.7222      8159.2984     -7117.3404     -784.16781      139434.55      51.854939      51.854939      51.854939      1.0542372      310.57309      859.19095      2844.7281    
     12000   12000          759.17114      241.54571      55157.576      54665.849      24473.75       30192.099      10023.152      9410.0617      7431.6273      918.66921      1325.9341      8188.8559     -7106.2008     -783.30454      139588.21      51.873982      51.873982      51.873982      1.0530767      1248.3319     -1001.8913      478.19657    
     12500   12500          752.93151      1916.0448      58810.232      54910.596      24272.6        30637.996      10422.836      9525.4024      7205.3494      921.22644      1492.9602      8180.4593     -7110.2381     -783.49615      139554.08      51.869753      51.869753      51.869753      1.0533343      2091.135       2260.1658      1396.8336    
     13000   13000          751.39841     -145.34454      54470.485      54769.309      24223.177      30546.133      10239.736      9481.157       7307.1605      927.76044      1509.9571      8190.5284     -7110.1667     -775.60118      140974.62      52.045156      52.045156      52.045156      1.0427202     -1053.6922      938.2154      -320.55682    
     13500   13500          748.34694      626.00238      56120.668      54835.347      24124.805      30710.542      10469.55       9377.804       7349.5594      915.59513      1537.5914      8171.9068     -7111.4639     -776.63988      140786.08      52.021943      52.021943      52.021943      1.0441167      868.2919      -285.29169      1295.0069    
     14000   14000          738.50959     -870.77607      52223.862      54010.881      23807.674      30203.208      10144.125      9266.1977      7293.0644      933.16314      1485.1682      8188.6181     -7107.1288     -777.02053      140717.11      52.013447      52.013447      52.013447      1.0446284     -1295.2352     -955.02456     -362.06846    
     14500   14500          743.68271     -961.82402      52485.835      54474.874      23974.442      30500.431      10257.136      9382.8692      7457.3672      922.59866      1408.6425      8184.9736     -7113.1557     -771.09452      141798.55      52.146351      52.146351      52.146351      1.0366615     -725.12715     -1435.4906     -724.85426    
     15000   15000          747.96644      460.56697      55663.236      54714.154      24112.539      30601.615      10246.862      9488.973       7342.2505      947.77903      1518.1554      8169.3325     -7111.7372     -773.82823      141297.61      52.084873      52.084873      52.084873      1.0403367      1180.2051     -398.34381      599.8396     
     15500   15500          754.03242      524.53434      55955.387      54884.694      24308.091      30576.603      10309.174      9514.6208      7304.9248      911.37107      1456.9272      8189.1259     -7109.5405     -781.20341      139963.65      51.920447      51.920447      51.920447      1.0502519      567.09905     -14.453008      1020.957     
     16000   16000          748.7029      -14.781324      54839.748      54870.115      24136.28       30733.835      10264.793      9604.3812      7313.2805      943.76242      1544.2493      8174.3074     -7110.9392     -776.18345      140868.87      52.032138      52.032138      52.032138      1.0435031      815.95513      113.9886      -974.2877     
     16500   16500          736.66565      237.10489      54838.04       54345.108      23748.23       30596.878      10480.009      9309.4096      7351.3715      945.82848      1446.0382      8170.1316     -7105.9105     -767.02386      142551.08      52.238437      52.238437      52.238437      1.0311889     -315.43783      111.40925      915.34326    
     17000   17000          738.7595      -726.80891      52821.489      54330.801      23815.73       30515.07       10111.322      9282.8636      7524.7074      957.10373      1577.2172      8173.8284     -7111.9721     -767.88559      142391.11      52.218889      52.218889      52.218889      1.0323474     -849.15202     -1256.7517     -74.523023    
     17500   17500          746.79203     -670.38916      53145.523      54538.45       24074.679      30463.771      10352.378      9332.8654      7337.6164      929.1015       1435.615       8180.8099     -7104.6156     -767.45694      142470.64      52.228609      52.228609      52.228609      1.0317711     -1582.1071      675.72359     -1104.784     
     18000   18000          748.68293      1086.5213      56888.862      54645.82       24135.636      30510.183      10290.219      9333.7303      7411.3765      917.70723      1476.6796      8185.7741     -7105.3036     -772.42446      141554.4       52.116406      52.116406      52.116406      1.0384495      1169.1609      777.61121      1312.7917    
     18500   18500          754.11264      59.722645      55145.018      55020.19       24310.676      30709.513      10483.883      9376.5288      7294.5721      935.00853      1562.9859      8163.4213     -7106.8866     -762.92043      143317.81      52.331926      52.331926      52.331926      1.0256722      733.73532     -715.72544      161.15806    
     19000   19000          751.33876      888.44048      56800.151      54941.552      24221.254      30720.299      10524.167      9343.7954      7276.8619      929.33516      1567.3078      8182.8188     -7103.9871     -762.25104      143443.66      52.34724       52.34724       52.34724       1.0247723     -559.77595      1001.0734      2224.024     
     19500   19500          747.56093     -140.87943      54431.024      54722.955      24099.466      30623.489      10374.425      9364.0552      7341.3964      929.68324      1515.4692      8192.8822     -7094.4227     -769.52473      142087.81      52.181786      52.181786      52.181786      1.0345511      425.508        759.74312     -1607.8894    
     20000   20000          748.17937     -680.06637      53330.482      54728.699      24119.403      30609.296      10253.781      9410.3821      7414.5753      933.60461      1524.3971      8176.7355     -7104.1798     -775.58958      140976.73      52.045415      52.045415      52.045415      1.0427047     -808.6203      -728.08616     -503.49264    
     20500   20500          758.17945      196.65556      55572.765      55167.429      24441.78       30725.649      10445.453      9249.7118      7459.3381      935.64489      1553.6202      8184.1471     -7102.2662     -773.65247      141329.71      52.088817      52.088817      52.088817      1.0401004      370.56897     -941.14833      1160.546     
     21000   21000          754.08423     -1137.0076      52847.095      55228.896      24309.761      30919.135      10444.981      9401.7655      7469.9542      955.08632      1560.9709      8186.6668     -7100.2894     -761.22513      143636.98      52.370746      52.370746      52.370746      1.0233931     -986.78732     -728.55309     -1695.6825    
     21500   21500          742.02293      117.11672      54952.998      54708.742      23920.935      30787.807      10336.684      9445.3904      7444.3541      940.08054      1546.7989      8186.041      -7111.5418     -764.59064      143004.74      52.293792      52.293792      52.293792      1.0279177      749.68588      323.54154     -721.87726    
     22000   22000          755.63844      1196.3214      57511.158      55029.192      24359.865      30669.328      10335.275      9328.0869      7278.2046      961.13937      1679.6806      8188.7498     -7101.8087     -768.61229      142256.49      52.202427      52.202427      52.202427      1.0333244      495.45606      3102.4384     -8.9302087    
     22500   22500          749.45936     -98.042495      54552.584      54757.566      24160.667      30596.899      10214.946      9399.9072      7486.8785      938.96562      1483.2219      8180.7382     -7107.7587     -762.70043      143359.15      52.336957      52.336957      52.336957      1.0253765     -532.28972      101.74951      136.41273    
     23000   23000          735.29979      2393.8955      59553.465      54558.969      23704.198      30854.771      10396.348      9446.8537      7265.2765      953.27754      1720.4045      8181.0023     -7108.392      -764.30868      143057.49      52.300222      52.300222      52.300222      1.0275386      2138.4055      2712.4802      2330.8009    
     23500   23500          746.88992     -1684.9413      51410.38       54935.632      24077.834      30857.798      10358.756      9580.8213      7353.9288      922.18357      1539.1612      8206.9035     -7103.9568     -762.16652      143459.57      52.349175      52.349175      52.349175      1.0246587     -724.94723     -43.129818     -4286.7468    
     24000   24000          756.54404     -746.43169      53578.332      55142.426      24389.059      30753.368      10113.217      9434.3722      7575.758       965.72073      1579.7709      8192.3257     -7107.7966     -760.99614      143680.21      52.375998      52.375998      52.375998      1.0230852     -39.655866     -1772.5666     -427.07261    
     24500   24500          751.1157       1453.4415      58042          55019.003      24214.063      30804.94       10441.691      9408.0795      7354.8317      944.17334      1589.0681      8179.868      -7112.7716     -766.68182      142614.68      52.246204      52.246204      52.246204      1.030729       2343.4336      200.40926      1816.4817    
     25000   25000          745.17702      720.09167      55813.925      54326.486      24022.615      30303.871      10364.491      9197.5126      7250.7715      933.66986      1480.5275      8188.886      -7111.987      -771.9763       141636.58      52.126489      52.126489      52.126489      1.037847       283.61572      1080.5341      796.12524    
     25500   25500          746.57482      727.42769      56204.787      54697.794      24067.676      30630.117      10361.697      9294.6749      7373.9444      983.24802      1559.7803      8173.6307     -7116.8579     -769.72203      142051.39      52.177327      52.177327      52.177327      1.0348163      708.24554     -143.55971      1617.5972    
     26000   26000          754.81931      788.31663      56628.902      54974.575      24333.458      30641.117      10489.562      9194.8336      7296.4004      921.99368      1666.0817      8186.5412     -7114.2946     -759.86186      143894.68      52.402047      52.402047      52.402047      1.0215603     -616.4553       1176.2014      1805.2038    
     26500   26500          751.35194      357.40456      55879.101      55126.823      24221.679      30905.144      10336.282      9449.9898      7456.0861      937.99537      1626.0604      8203.7329     -7105.0025     -757.59485      144325.27      52.454264      52.454264      52.454264      1.0185125      1979.5396      1226.2581     -2133.5841    
     27000   27000          750.43686     -422.83018      54197.593      55082.469      24192.179      30890.291      10484.589      9370.4592      7507.1414      921.53262      1546.1718      8171.7361     -7111.3393     -761.97089      143496.4       52.353655      52.353655      52.353655      1.0243956     -1550.9878      187.71325      94.784023    
     27500   27500          736.74763     -253.37561      53598.441      54130.163      23750.873      30379.29       10178.87       9148.5442      7424.0674      919.80884      1652.5361      8170.3836     -7114.9196     -759.86377      143894.32      52.402003      52.402003      52.402003      1.0215628     -628.93853     -940.87059      809.68229    
     28000   28000          758.38151     -371.18628      54298.352      55076.863      24448.294      30628.569      10400.127      9457.4188      7265.6725      895.14282      1528.8659      8189.3655     -7108.0235     -760.29552      143812.61      52.392082      52.392082      52.392082      1.0221433     -339.70116     -1192.6239      418.76626    
     28500   28500          757.29452      114.31584      55235.483      54996.777      24413.252      30583.525      10211.751      9482.8569      7413.6218      912.20549      1502.41        8171.5581     -7110.8781     -763.65576      143179.8       52.315123      52.315123      52.315123      1.0266608     -1123.6984      884.8548       581.79113    
     29000   29000          746.98461     -856.8835       53299.239      55081.745      24080.887      31000.859      10520.626      9272.5177      7610.5971      992.22358      1548.2097      8171.82       -7115.1355     -766.55966      142637.41      52.248979      52.248979      52.248979      1.0305648     -248.45212     -1152.6908     -1169.5075    
     29500   29500          753.76852     -906.30562      53060.514      54960.28       24299.583      30660.697      10353.673      9317.3498      7452.2869      935.9221       1534.7094      8175.6327     -7108.8765     -760.72853      143730.75      52.382139      52.382139      52.382139      1.0227254     -2316.0911     -1710.5267      1307.7009    
     30000   30000          747.46605     -277.84128      54155.338      54734.288      24096.407      30637.88       10294.18       9210.831       7579.0789      972.37971      1517.796       8176.458      -7112.8436     -765.26372      142878.96      52.278457      52.278457      52.278457      1.0288225      2100.8089      11.38101      -2945.7137    
     30500   30500          748.6926      -173.42321      54319.378      54678.736      24135.948      30542.788      10331.26       9318.4709      7345.7653      933.86352      1558.1672      8172.3808     -7117.1197     -769.54566      142083.94      52.181313      52.181313      52.181313      1.0345792     -520.24826      572.04893     -572.0703     
     31000   31000          750.13964     -1847.3679      51093.658      54969.96       24182.597      30787.363      10180.161      9367.314       7665.0045      947.77692      1569.8678      8168.5022     -7111.2639     -759.96053      143876         52.399779      52.399779      52.399779      1.0216929     -2574.1765     -2500.0322     -467.89494    
     31500   31500          748.76379     -423.92931      54087.607      54981.746      24138.243      30843.503      10324.101      9473.5866      7523.1725      953.50179      1486.9329      8194.9178     -7112.7097     -756.03794      144622.48      52.490245      52.490245      52.490245      1.0164194      1281.9263     -813.96759     -1739.7467    
     32000   32000          749.83077     -500.81167      54134.345      55184.326      24172.64       31011.686      10617.999      9380.014       7365.1411      943.47701      1630.9656      8179.2059     -7105.1174     -760.58635      143757.62      52.385403      52.385403      52.385403      1.0225343     -821.31141     -1210.0497      528.9261     
     32500   32500          756.77318      212.10881      55665.535      55222.994      24396.446      30826.549      10371.028      9351.1549      7476.3868      950.45422      1590.5931      8192.9153     -7105.9833     -764.29359      143060.32      52.300566      52.300566      52.300566      1.0275183      350.12212      955.32516     -669.12085    
     33000   33000          759.2652       60.446195      55507.203      55380.283      24476.782      30903.501      10467.884      9433.6099      7391.7265      937.71185      1580.6271      8197.631      -7105.6888     -759.43849      143974.9       52.411783      52.411783      52.411783      1.0209911     -327.03051     -398.23846      906.60755    
     33500   33500          747.67064      669.28388      56393.317      54994.207      24103.003      30891.204      10301.265      9585.5761      7267.6902      933.82633      1731.047       8183.639      -7111.8401     -762.80517      143339.46      52.334562      52.334562      52.334562      1.0255173     -806.15395      459.89143      2354.1142    
     34000   34000          746.90827      567.95582      56214.31       55034.377      24078.426      30955.951      10492.019      9597.184       7333.8128      911.80404      1564.8155      8164.9904     -7108.6743     -767.56041      142451.43      52.226262      52.226262      52.226262      1.0319102      711.45864      694.08451      298.32431    
     34500   34500          744.8735       1250.2273      57459.045      54833.585      24012.83       30820.755      10730.4        9428.2473      7035.8704      889.29182      1665.0128      8177.8459     -7105.9132     -759.34454      143992.71      52.413944      52.413944      52.413944      1.0208648     -320.70589      2488.0874      1583.3004    
     35000   35000          751.29027     -1415.2308      52358.169      55335.809      24219.69       31116.118      10548.06       9526.1195      7532.6955      944.92292      1493.5965      8175.7749     -7105.0509     -757.89744      144267.65      52.447282      52.447282      52.447282      1.0189193     -2215.7254     -843.10819     -1186.8587    
     35500   35500          759.59317      211.02223      55864.691      55420.944      24487.355      30933.589      10471.179      9470.9639      7311.077       928.27139      1692.5836      8170.0165     -7110.5024     -758.31208      144188.76      52.437721      52.437721      52.437721      1.0194767      408.5948       1400.2864     -1175.8145    
     36000   36000          740.59675     -109.32878      55034.662      55267.28       23874.959      31392.321      10662.502      9648.3741      7392.5216      940.90133      1683.9748      8174.6604     -7110.6134     -749.45733      145892.34      52.643428      52.643428      52.643428      1.0075724      1737.3323     -1785.9585     -279.3601     
     36500   36500          749.522        1393.3601      57773.056      54832.936      24162.686      30670.25       10500.117      9325.9736      7208.9125      916.57289      1680.203       8153.6887     -7115.218      -755.70743      144685.73      52.497896      52.497896      52.497896      1.015975       1318.9651      1425.2244      1435.8908    
     37000   37000          747.59608      1501.9188      57861.921      54693.899      24100.599      30593.3        10443.604      9342.4263      7212.4048      913.32206      1594.2907      8194.9998     -7107.747      -755.98575      144632.46      52.491453      52.491453      52.491453      1.0163492      915.04314      2594.519       996.19413    
     37500   37500          742.9947      -980.68248      52480.574      54548.769      23952.262      30596.507      10198.442      9362.2948      7450.1571      916.95375      1570.4445      8204.7706     -7106.5558     -756.12255      144606.3       52.488287      52.488287      52.488287      1.0165331      400.58009     -1482.4222     -1860.2054    
     38000   38000          744.83801      310.62518      55688.712      55036.545      24011.686      31024.859      10298.923      9324.3352      7584.5247      993.86578      1745.6036      8185.6927     -7108.0866     -759.50953      143961.44      52.410148      52.410148      52.410148      1.0210866     -453.33083      392.15381      993.05256    
     38500   38500          747.36339      21.90744       55138.899      55092.93       24093.098      30999.832      10466.261      9311.6786      7601.061       944.70978      1622.8232      8165.5524     -7112.2541     -759.9321       143881.38      52.400432      52.400432      52.400432      1.0216547     -486.13047      498.29364      53.559152    
     39000   39000          744.35687      1007.1675      57022.866      54915.521      23996.175      30919.346      10223.542      9531.4571      7538.6966      948.92344      1580.3125      8198.9911     -7102.5774     -762.11654      143468.98      52.350319      52.350319      52.350319      1.0245915      334.37612      1107.3249      1579.8015    
     39500   39500          747.55098     -592.83322      53473.951      54708.751      24099.145      30609.606      10043.9        9561.2939      7412.8321      941.27083      1584.18        8176.527      -7110.398      -765.58104      142819.74      52.271233      52.271233      52.271233      1.0292492     -374.28757     -926.8089      -477.40318    
     40000   40000          749.51259     -1300.9192      52056.596      54771.046      24162.383      30608.664      10084.298      9405.6193      7597.5595      939.59778      1499.9193      8192.3393     -7110.6691     -764.22922      143072.36      52.302035      52.302035      52.302035      1.0274318     -1589.8065      763.14877     -3076.0997    
     40500   40500          747.67028     -1138.8406      52570.392      54954.037      24102.991      30851.046      10252.159      9586.1671      7434.5522      927.89564      1554.4702      8199.5173     -7103.7162     -761.86247      143516.82      52.356138      52.356138      52.356138      1.0242499     -1671.4426     -1633.7398     -111.33928    
     41000   41000          751.11484      936.03456      57316.264      55346.408      24214.035      31132.373      10533.762      9385.2024      7524.2649      952.64245      1671.1411      8176.1548     -7110.7952     -757.72692      144300.12      52.451216      52.451216      52.451216      1.01869        678.75367      675.20019      1454.1498    
     41500   41500          748.16188      821.00922      56914.347      55183.479      24118.839      31064.64       10353.856      9376.2269      7616.8679      941.05778      1708.5256      8179.1525     -7111.047      -756.37885      144557.3       52.482358      52.482358      52.482358      1.0168777      305.93834      1849.9274      307.16188    
     42000   42000          751.78271      928.66156      57160.823      55207.489      24235.565      30971.923      10433.45       9401.6865      7480.3873      949.08222      1631.9483      8173.0251     -7097.6561     -758.11705      144225.86      52.442217      52.442217      52.442217      1.0192145      1854.0139      754.7495       177.22125    
     42500   42500          748.56326     -1715.1102      51547.488      55161.095      24131.779      31029.317      10353.382      9280.1391      7737.7334      965.08178      1614.3548      8186.5365     -7107.9111     -756.84409      144468.44      52.471602      52.471602      52.471602      1.0175032     -2306.8676     -1404.7021     -1433.7611    
     43000   43000          749.5688       847.06357      56619.915      54847.021      24164.195      30682.826      10291.845      9473.4087      7337.5597      921.07842      1585.1144      8182.0274     -7108.2075     -761.88335      143512.89      52.35566       52.35566       52.35566       1.024278       1906.6293      256.49695      378.06449    
     43500   43500          748.79852      560.6879       56257.052      55087.883      24139.363      30948.52       10315.165      9499.4775      7519.4425      949.68059      1591.7589      8175.3217     -7102.3268     -764.7141       142981.65      52.290978      52.290978      52.290978      1.0280836      765.13301      819.41334      97.517366    
     44000   44000          754.90768     -663.73427      53653.12       55041.399      24336.307      30705.092      10171.277      9500.0962      7460.6513      941.04694      1541.5565      8189.3351     -7098.8708     -762.38234      143418.96      52.344235      52.344235      52.344235      1.0249488     -727.56336     -1006.4057     -257.2338     
     44500   44500          750.44744      2264.0265      59169.958      54455.557      24192.52       30263.037      10185.127      9244.3142      7146.2072      894.67746      1726.3965      8174.7766     -7108.4619     -765.79108      142780.56      52.266453      52.266453      52.266453      1.0295315      4681.0054      2366.7817     -255.70754    
     45000   45000          747.64746      187.26974      55006.791      54615.913      24102.256      30513.657      10333.454      9351.1006      7302.6113      898.45205      1547.346       8185.5538     -7104.8608     -763.97841      143119.33      52.307758      52.307758      52.307758      1.0270946      271.78654      1183.5875     -893.56487    
     45500   45500          750.0772      -844.76433      53007.553      54794.566      24180.584      30613.981      9992.4875      9426.5072      7476.2761      945.51846      1682.488       8191.9359     -7101.2319     -753.8123       145049.48      52.541854      52.541854      52.541854      1.0134272     -1929.7804      440.48397     -1044.9965    
     46000   46000          750.78902     -771.73805      53243.328      54868.653      24203.532      30665.122      10271.965      9280.1775      7527.6587      924.99604      1581.4937      8185.3856     -7106.5546     -757.15522      144409.07      52.464414      52.464414      52.464414      1.0179215     -918.56489     -566.73606     -829.91321    
     46500   46500          751.65183     -453.36031      54204.105      55158.48       24231.346      30927.134      10443.137      9461.1055      7423.1142      946.1777       1579.6739      8183.4732     -7109.5473     -757.49452      144344.39      52.456579      52.456579      52.456579      1.0183776     -1186.2628      456.04588     -629.86396    
     47000   47000          758.52012      244.13574      56031.537      55520.984      24452.762      31068.221      10597.783      9388.4703      7491.6805      914.91154      1612.6276      8173.9509     -7111.203      -762.51025      143394.9       52.341308      52.341308      52.341308      1.0251208      1092.2314     -145.23283     -214.59135    
     47500   47500          759.09063     -415.76193      54417.829      55289.979      24471.154      30818.825      10497.217      9332.1017      7372.0753      968.04593      1577.1401      8184.5503     -7112.3046     -760.16646      143837.03      52.395047      52.395047      52.395047      1.0219698     -1737.7846     -1336.8537      1827.3524    
     48000   48000          758.36732      62.719835      55326.785      55195.487      24447.837      30747.651      10286.162      9297.9085      7508.3465      946.24353      1647.6767      8175.1698     -7113.8562     -761.7317       143541.46      52.359134      52.359134      52.359134      1.0240741     -1694.3814      1024.5992      857.94163    
     48500   48500          749.15038     -570.66258      54077.134      55268.073      24150.706      31117.367      10180.549      9366.041       7763.0235      971.06739      1749.4896      8195.2066     -7108.0098     -764.09101      143098.24      52.305188      52.305188      52.305188      1.0272459     -693.88983     -691.75498     -326.34292    
     49000   49000          757.17213     -623.12053      53965.588      55279.935      24409.307      30870.629      10335.312      9385.3356      7469.9608      957.70801      1651.7613      8176.6083     -7106.0578     -755.99205      144631.26      52.491307      52.491307      52.491307      1.0163577      597.46816     -1561.7356     -905.09417    
     49500   49500          749.39532     -1172.7346      52439.78       54905.126      24158.602      30746.524      10249.469      9469.7342      7476.2922      918.5104       1556.7499      8187.1069     -7111.3389     -758.53768      144145.88      52.432522      52.432522      52.432522      1.01978       -2526.0977     -1180.0889      187.98276    
     50000   50000          756.4597       702.4959       56403.201      54934.239      24386.34       30547.899      10223.69       9254.3538      7463.5403      939.9761       1592.2771      8180.9816     -7106.9199     -762.58527      143380.8       52.339592      52.339592      52.339592      1.0252216      714.57523      1335.4346      57.477848    
     50500   50500          757.07704     -731.27776      53576.433      55101.308      24406.241      30695.067      10215.953      9335.3507      7596.4649      967.38218      1504.4083      8184.8787     -7109.3708     -764.72178      142980.21      52.290803      52.290803      52.290803      1.028094      -426.82531     -1581.7864     -185.22158    
     51000   51000          756.6431       188.46057      55527.883      55134.083      24392.252      30741.83       10512.065      9337.2992      7359.6169      962.72904      1480.1316      8195.5764     -7105.5882     -763.13183      143278.1       52.327093      52.327093      52.327093      1.0259564      510.85893     -1144.7267      1199.2494    
     51500   51500          743.912       -550.64933      53880.679      55028.575      23981.834      31046.741      10313.241      9569.9049      7541.4515      948.93366      1590.1941      8188.4484     -7105.4322     -764.94056      142939.32      52.285818      52.285818      52.285818      1.0283881     -1141.4729     -800.44076      289.96572    
     52000   52000          743.6963       766.94736      56267.6        54670.575      23974.88       30695.695      10405.903      9212.573       7482.3937      937.24668      1575.2883      8186.9499     -7104.659      -765.78896      142780.96      52.266501      52.266501      52.266501      1.0295287      315.18003      1727.2444      258.41761    
     52500   52500          747.2164      -752.41204      53287.273      54873.722      24088.359      30785.363      10434.46       9370.4156      7362.2476      924.40145      1617.3082      8188.9082     -7112.3782     -756.28395      144575.44      52.484553      52.484553      52.484553      1.0167501     -220.39104     -2355.4201      318.575      
     53000   53000          750.52183      66.563209      55247.691      55107.82       24194.918      30912.902      10582.331      9232.1601      7452.1767      946.1113       1620.4289      8189.0706     -7109.3768     -758.86037      144084.59      52.425089      52.425089      52.425089      1.0202139      488.9378       1128.545      -1417.7931    
     53500   53500          749.2993       404.02331      55935.075      55087.157      24155.507      30931.65       10595.872      9305.3863      7384.1894      931.65235      1635.1581      8180.9187     -7101.5268     -759.81473      143903.61      52.40313       52.40313       52.40313       1.0214969     -179.70833      847.42491      544.35333    
     54000   54000          744.61561     -48.124329      54767.645      54868.87       24004.516      30864.354      10438.073      9347.9469      7417.8194      959.68572      1620.8107      8189.054      -7109.0362     -758.10525      144228.1       52.442489      52.442489      52.442489      1.0191987     -385.12667      1218.8019     -978.04821    
     54500   54500          746.21462      203.72879      55800.658      55368.268      24056.064      31312.204      10541.851      9515.4467      7529.8068      953.24974      1708.9317      8172.2708     -7109.3528     -751.33188      145528.34      52.59961       52.59961       52.59961       1.0100925      32.601949      79.179472      499.40494    
     55000   55000          745.94134      1208.0143      57200.094      54648.03       24047.255      30600.775      10128.246      9303.7533      7353.6229      945.69048      1793.9806      8186.7736     -7111.292      -754.80659      144858.41      52.518773      52.518773      52.518773      1.0147639      1656.8175      1001.0895      966.13608    
     55500   55500          739.42048      1049.6546      56909.297      54709.939      23837.039      30872.901      10331.66       9468.2263      7460.0436      943.16678      1606.0246      8169.3373     -7105.5577     -761.03729      143672.44      52.375054      52.375054      52.375054      1.0231405     -124.71491      689.76775      2583.9109    
     56000   56000          755.67041      426.85376      55908.441      55016.039      24360.895      30655.144      10129.973      9478.0561      7500.5637      928.24341      1543.3987      8180.0234     -7105.1147     -762.73541      143352.57      52.336157      52.336157      52.336157      1.0254235      1818.7488      333.97898     -872.1665     
     56500   56500          742.81681      1557.1674      58030.668      54762.16       23946.528      30815.632      10422.245      9344.0891      7432.5961      968.27507      1596.8708      8162.6571     -7111.1012     -759.69803      143925.71      52.405813      52.405813      52.405813      1.02134       -462.75797      2422.1053      2712.155     
     57000   57000          742.35914     -1091.5054      52447.138      54745.091      23931.774      30813.318      10390.242      9463.7004      7403.7282      929.88378      1553.6813      8178.2294     -7106.1473     -757.42546      144357.55      52.458174      52.458174      52.458174      1.0182848     -1764.3776     -779.3572      -730.78135    
     57500   57500          753.53851     -2047.7678      50692.42       54983.545      24292.168      30691.377      10177.794      9441.0698      7436.6149      945.49045      1627.4891      8171.195      -7108.2765     -760.96516      143686.06      52.376709      52.376709      52.376709      1.0230435     -2315.0186     -2866.6846     -961.60012    
     58000   58000          751.77314      53.687748      55182.866      55070.699      24235.257      30835.441      10294.908      9290.5124      7508.5545      956.81088      1720.0099      8176.2346     -7111.5886     -763.24539      143256.79      52.324498      52.324498      52.324498      1.0261091     -354.87733     -975.85301      1491.7936    
     58500   58500          746.94391     -825.85696      52979.007      54697.774      24079.575      30618.198      10234.15       9433.1758      7460.9296      942.81024      1474.4407      8181.1054     -7108.4129     -766.20203      142703.98      52.257107      52.257107      52.257107      1.030084      -2168.524       387.26837     -696.31527    
     59000   59000          741.32845      416.36302      55679.88       54824.561      23898.547      30926.014      10563.49       9410.4401      7402.3449      967.51909      1511.139       8184.2007     -7113.1198     -776.24593      140857.53      52.030742      52.030742      52.030742      1.0435871      1508.1944      65.134334     -324.23967    
     59500   59500          755.44518     -162.39722      54848.648      55186.684      24353.634      30833.05       10466.318      9346.5329      7423.6007      929.04589      1573.2267      8197.3489     -7103.0236     -766.07464      142727.71      52.260004      52.260004      52.260004      1.0299127      614.13797     -808.23824     -293.0914     
     60000   60000          759.30203      1044.7668      57201.152      55010.185      24477.969      30532.216      10426.213      9258.8255      7249.5978      924.80873      1604.9         8178.4867     -7110.6159     -760.39431      143793.92      52.389813      52.389813      52.389813      1.0222761      719.40766      720.13959      1694.7533    
     60500   60500          741.22899      1015.0798      56661.457      54554.565      23895.34       30659.224      10315.077      9507.5919      7228.3395      924.57591      1609.5987      8187.2799     -7113.2393     -768.26868      142320.11      52.210208      52.210208      52.210208      1.0328624      1357.0735      1276.6723      411.49343    
     61000   61000          749.09635     -1630.0015      51514.026      54905.934      24148.964      30756.969      10270.182      9455.379       7514.537       911.38639      1534.6138      8178.9776     -7108.1069     -766.30071      142685.61      52.254864      52.254864      52.254864      1.0302167     -2079.8385     -332.64115     -2477.5248    
     61500   61500          748.32516     -263.0939       54422.703      54972.802      24124.103      30848.699      10558.409      9474.517       7359.2343      918.62476      1447.1974      8197.0538     -7106.3375     -762.64943      143368.73      52.338124      52.338124      52.338124      1.0253079     -871.49084      902.04627     -819.83713    
     62000   62000          754.81308     -684.52057      53983.91       55419.74       24333.257      31086.483      10565.816      9336.2326      7575.8969      957.9503       1581.0475      8178.7217     -7109.182      -760.21888      143827.11      52.393842      52.393842      52.393842      1.0220402     -94.009315     -1233.934      -725.61836    
     62500   62500          757.14167     -189.25132      54875.3        55271.994      24408.325      30863.669      10339.495      9623.398       7339.497       961.38643      1542.0055      8168.8949     -7111.0079     -760.74461      143727.71      52.38177       52.38177       52.38177       1.022747      -89.748814     -855.2946       377.28947    
     63000   63000          751.161       -656.53664      53661.292      55027.956      24215.523      30812.433      10567.158      9433.5444      7285.0843      923.93849      1519.2653      8187.9969     -7104.5543     -766.04182      142733.83      52.26075       52.26075       52.26075       1.0298686     -433.24038     -1894.2172      357.84764    
     63500   63500          750.52398      461.76365      55806.996      54852.902      24194.987      30657.915      10209.162      9436.0048      7435.7184      940.8839       1553.1871      8189.4138     -7106.4547     -771.76307      141675.71      52.13129       52.13129       52.13129       1.0375603     -298.21901      1317.8503      365.6597     
     64000   64000          751.6904       310.96442      55868.082      55223.058      24232.59       30990.469      10310.132      9543.6216      7558.627       961.17318      1554.9536      8167.7855     -7105.8239     -768.75944      142229.25      52.199095      52.199095      52.199095      1.0335222      271.88442     -640.52865      1301.5375    
     64500   64500          749.47836     -866.50483      53101.344      54926.857      24161.279      30765.578      10334          9369.3345      7406.8094      928.57312      1643.306       8188.3551     -7104.8004     -756.90485      144456.84      52.470198      52.470198      52.470198      1.0175849     -3092.4138      308.4455       184.45378    
     65000   65000          748.98051      331.02516      55582.065      54891.326      24145.23       30746.096      10219.143      9451.0083      7394.3852      930.54992      1666.6574      8186.7112     -7102.3587     -764.19121      143079.48      52.302902      52.302902      52.302902      1.0273807      1845.9842     -58.081986     -794.82678    
     65500   65500          742.96673      899.11611      56675.726      54809.13       23951.361      30857.77       10414.213      9402.29        7366.1017      971.68671      1627.4053      8181.4343     -7105.3614     -768.10525      142350.39      52.213911      52.213911      52.213911      1.0326427      1567.1931      791.24807      338.90718    
     66000   66000          758.29125      388.11311      56244.147      55437.643      24445.384      30992.259      10563.349      9474.7183      7407.0548      960.65164      1522.9616      8169.8621     -7106.3385     -767.37385      142486.07      52.230494      52.230494      52.230494      1.0316594     -767.52112      2432.9109     -501.05048    
     66500   66500          751.18644     -1024.0143      52856.608      54986.935      24216.343      30770.591      10377.294      9509.0966      7434.5888      921.4767       1459.6284      8180.7361     -7112.2289     -766.50532      142647.52      52.250214      52.250214      52.250214      1.0304918      84.692688     -1465.2365     -1691.4992    
     67000   67000          753.24741      949.80462      56822.43       54847.256      24282.784      30564.473      10368.087      9383.7965      7277.9461      935.91874      1525.0554      8180.4613     -7106.7922     -766.80371      142592.01      52.243436      52.243436      52.243436      1.0308929      1189.5943      847.71891      812.10061    
     67500   67500          746.60334      325.90957      55263.76       54588.916      24068.596      30520.32       10427.741      9273.9001      7357.8642      902.42165      1505.6834      8168.1684     -7115.4585     -770.10275      141981.16      52.168727      52.168727      52.168727      1.0353281      632.24287      1256.7014     -911.21556    
     68000   68000          756.78418      760.0131       56657.306      55078.64       24396.8        30681.84       10499.717      9412.6613      7237.8101      929.05829      1561.4945      8157.4998     -7116.4016     -767.69038      142427.32      52.223315      52.223315      52.223315      1.0320849      1346.3287      721.59487      212.11572    
     68500   68500          752.81921     -931.87879      53242.919      55172.266      24268.98       30903.287      10709.711      9377.4167      7404.2888      930.40233      1423.2104      8173.8107     -7115.5531     -770.20134      141962.99      52.166501      52.166501      52.166501      1.0354607     -2118.7689     -817.83435      140.9669     
     69000   69000          751.67465      693.50235      56203.146      54766.583      24232.082      30534.501      10088.816      9502.7957      7407.0748      925.86426      1534.7406      8188.0886     -7112.879      -769.80136      142036.75      52.175535      52.175535      52.175535      1.034923      -549.53185      1225.0347      1405.0042    
     69500   69500          752.69101      727.69391      56648.89       55135.433      24264.847      30870.586      10286.485      9471.025       7541.1355      952.44847      1550.4914      8178.88       -7109.8797     -766.71491      142608.52      52.245453      52.245453      52.245453      1.0307735      345.38739      353.37234      1484.322     
     70000   70000          751.43944     -264.35147      54309.095      54853.331      24224.499      30628.832      10454.906      9313.9134      7400.6856      937.096        1431.0021      8204.5        -7113.2711     -774.5496       141166.02      52.068698      52.068698      52.068698      1.0413065     -433.16638      932.46168     -1292.3497    
     70500   70500          741.62892     -360.52411      53860.853      54599.7        23908.233      30691.467      10218.762      9355.8148      7680.9137      946.09032      1440.0668      8164.425      -7114.6058     -778.09893      140522.08      51.989407      51.989407      51.989407      1.0460782      1297.7825      543.73548     -2923.0903    
     71000   71000          739.56069      192.3119       54949.023      54551.562      23841.559      30710.003      10357.326      9209.5748      7579.6419      941.13076      1562.3046      8171.372      -7111.3472     -771.55346      141714.2       52.13601       52.13601       52.13601       1.0372785     -841.33481      2095.133      -676.86247    
     71500   71500          736.08058     -231.28131      54057.108      54536.187      23729.369      30806.818      10532.073      9228.7458      7428.0227      940.82995      1569.2503      8210.5772     -7102.6812     -769.8198       142033.35      52.175118      52.175118      52.175118      1.0349477     -362.55625     -1499.706       1168.4183    
     72000   72000          744.35075     -265.14846      54284.318      54836.151      23995.978      30840.173      10271.463      9442.4904      7572.3399      953.75959      1530.8603      8180.5985     -7111.339      -766.19082      142706.07      52.257362      52.257362      52.257362      1.0300689     -993.98852      1026.36       -827.81684    
     72500   72500          755.88253      83.75266       55256.653      55081.363      24367.733      30713.629      10384.747      9235.7155      7526.1781      955.72852      1554.8227      8168.6759     -7112.2383     -761.8975       143510.22      52.355336      52.355336      52.355336      1.024297       810.14598     -300.53643     -258.35157    
     73000   73000          756.00662      504.88684      55952.877      54909.747      24371.734      30538.013      10147.663      9295.2654      7562.0964      956.76557      1503.7869      8182.575      -7110.1393     -771.81076      141666.96      52.130216      52.130216      52.130216      1.0376244     -524.18957     -124.41196      2163.2621    
     73500   73500          753.88616     -1946.9475      50599.943      54684.032      24303.375      30380.656      10248.28       9350.7485      7296.4352      928.95748      1480.0556      8185.3111     -7109.1312     -760.17636      143835.15      52.394819      52.394819      52.394819      1.0219831     -95.857463     -2981.2046     -2763.7806    
     74000   74000          749.91084     -34.430697      54971.618      55043.422      24175.221      30868.201      10378.11       9456.6033      7454.1492      949.55438      1566.8438      8167.9953     -7105.0556     -764.62781      142997.78      52.292945      52.292945      52.292945      1.0279676     -851.73247      1384.1861     -635.74571    
     74500   74500          755.20359     -602.53632      54036.453      55285.757      24345.846      30939.911      10355.357      9526.521       7458.7122      949.16219      1575.7348      8181.4475     -7107.0236     -769.07773      142170.39      52.191893      52.191893      52.191893      1.0339501     -369.7525      -38.077215     -1399.7793    
     75000   75000          760.22236     -1633.0314      51716.629      55109.042      24507.638      30601.404      9968.044       9544.5447      7586.6938      942.16938      1502.8251      8170.6564     -7113.5298     -767.61095      142442.06      52.225116      52.225116      52.225116      1.0319782     -2225.6915     -934.64753     -1738.7551    
     75500   75500          749.3584      -1247.4971      52294.376      54900.537      24157.412      30743.125      10337.178      9384.8553      7512.1197      950.48369      1506.7343      8164.3221     -7112.5678     -763.29697      143247.11      52.323319      52.323319      52.323319      1.0261784     -1372.5486     -561.67666     -1808.266     
     76000   76000          743.96145      877.75636      56315.556      54489.05       23983.428      30505.622      10188.613      9410.1329      7194.2708      938.71111      1699.4177      8182.6712     -7108.1948     -766.31647      142682.67      52.254506      52.254506      52.254506      1.0302379      2305.964      -70.354826      397.65987    
     76500   76500          747.90487      1688.8943      58123.335      54625.458      24110.554      30514.904      10261.244      9471.6494      7221.2479      937.98153      1555.5247      8174.0852     -7106.8287     -769.9335       142012.37      52.17255       52.17255       52.17255       1.0351006      1750.5725      1930.5928      1385.5176    
     77000   77000          741.43484     -1221.7759      52391.498      54925.434      23901.977      31023.457      10487.305      9538.9715      7518.2224      921.8361       1487.151       8173.7636     -7103.792      -768.86706      142209.35      52.19666       52.19666       52.19666       1.0336669     -56.854989     -2638.0656     -970.40692    
     77500   77500          744.18102      37.506908      54672.814      54595.042      23990.507      30604.536      10447.873      9374.4075      7235.0553      912.80826      1564.3001      8172.4116     -7102.3199     -769.03553      142178.19      52.192848      52.192848      52.192848      1.0338934      988.61267     -682.45979     -193.63217    
     78000   78000          755.30723     -656.03739      53362.83       54732.22       24349.187      30383.032      9998.51        9394.6085      7489.6324      941.18873      1470.7972      8189.2104     -7100.9147     -763.93586      143127.31      52.308729      52.308729      52.308729      1.0270374     -473.5952      -563.58154     -930.93542    
     78500   78500          759.6224      -871.96068      53271.475      55107.045      24488.297      30618.748      10304.32       9498.5981      7264.007       940.99719      1539.1693      8175.5003     -7103.8447     -757.49744      144343.83      52.456512      52.456512      52.456512      1.0183815     -5.6759143     -865.22786     -1744.9783    
     79000   79000          752.35885      1433.9627      58359.967      55324.727      24254.139      31070.588      10512.048      9578.168       7303.651       932.65714      1682.6127      8170.2109     -7108.7592     -753.35588      145137.36      52.552463      52.552463      52.552463      1.0128136      2039.87        916.67902      1345.3392    
     79500   79500          760.43896      729.65425      57056.378      55535.48       24514.621      31020.859      10419.107      9291.2265      7561.9694      983.47484      1714.9815      8158.4983     -7108.3989     -765.01902      142924.66      52.28403       52.28403       52.28403       1.0284936      1706.5359      913.77821     -431.3514     
     80000   80000          745.83242      344.20473      55592.073      54878.489      24043.743      30834.746      10411.422      9520.2185      7408.8589      938.39527      1473.4396      8185.9723     -7103.5613     -769.1784       142151.78      52.189616      52.189616      52.189616      1.0340855      240.70643      1286.5841     -494.67639    
     80500   80500          741.70367      1689.9812      58263.999      54718.567      23910.643      30807.924      10344.213      9452.4786      7390.7163      926.69675      1616.9038      8183.1328     -7106.2179     -760.09504      143850.54      52.396688      52.396688      52.396688      1.0218738      1274.5655      2414.9917      1380.3863    
     81000   81000          748.65361     -1097.3671      52283.321      54592.364      24134.691      30457.673      10227.885      9224.171       7341.061       897.9131       1703.0459      8171.0606     -7107.4635     -757.83573      144279.4       52.448705      52.448705      52.448705      1.0188363     -415.46981     -1390.0494     -1486.5821    
     81500   81500          751.066        723.88056      56528.237      55011.312      24212.461      30798.851      10400.369      9268.8938      7413.8391      967.04698      1699.9016      8157.2192     -7108.4184     -760.95309      143688.33      52.376986      52.376986      52.376986      1.0230273      878.49987      683.855        609.28682    
     82000   82000          750.37293     -1850.3808      51305.548      55169.928      24190.118      30979.81       10254.944      9501.4418      7599.0925      919.62713      1646.0838      8167.6816     -7109.0605     -763.54841      143199.93      52.317575      52.317575      52.317575      1.0265165     -948.19013     -899.38779     -3703.5644    
     82500   82500          762.43101      408.92913      56207.127      55360.126      24578.84       30781.286      10481.99       9267.711       7453.0497      940.97667      1567.5137      8175.0308     -7104.9857     -769.87378      142023.39      52.173899      52.173899      52.173899      1.0350203      628.46055      240.77362      357.55323    
     83000   83000          753.75107      307.70235      55832.967      55198.916      24299.021      30899.895      10510.595      9412.7248      7534.6278      940.22198      1440.8635      8172.435      -7111.5728     -773.85896      141292         52.084183      52.084183      52.084183      1.040378      -161.40732      924.50725      160.00713    
     83500   83500          750.4333      -969.71562      52828.407      54829.967      24192.064      30637.903      10412.268      9400.4416      7463.5359      916.02828      1354.294       8201.5941     -7110.2592     -772.55825      141529.89      52.113397      52.113397      52.113397      1.0386293     -1711.0507     -1476.1302      278.03403    
     84000   84000          755.21439      2419.756       59744.54       54740.299      24346.194      30394.105      10252.236      9297.5404      7265.4729      942.82806      1549.2984      8191.8843     -7105.1557     -771.06077      141804.75      52.147112      52.147112      52.147112      1.0366161      2121.6182      2979.7997      2157.8502    
     84500   84500          750.45935      382.71352      55652.307      54859.122      24192.904      30666.218      10520.89       9335.9894      7291.07        954.14056      1482.9911      8186.626      -7105.4887     -769.40345      142110.21      52.184528      52.184528      52.184528      1.034388      -251.58511      686.99962      712.72606    
     85000   85000          752.81017     -279.17567      54457.703      55044.364      24268.688      30775.676      10370.241      9468.0234      7330.356       902.30739      1625.5526      8184.6545     -7105.459      -758.83128      144090.11      52.425759      52.425759      52.425759      1.0201748     -1105.9717      574.42079     -305.97605    
     85500   85500          756.18751     -240.81506      54717.566      55221.648      24377.565      30844.083      10302.065      9588.4537      7316.7988      943.4481       1587.0502      8206.3938     -7100.1269     -761.79508      143529.52      52.357682      52.357682      52.357682      1.0241593     -2568.6429      444.82701      1401.3707    
     86000   86000          750.3072       301.08674      55717.63       55091.694      24187.999      30903.695      10480.03       9485.5309      7400.2449      918.74063      1549.6998      8178.04       -7108.5912     -767.03911      142548.25      52.238091      52.238091      52.238091      1.0312094      1180.8188     -792.49132      514.93276    
     86500   86500          738.82047      1764.3796      57969.078      54320.231      23817.696      30502.535      10235.963      9490.8406      7250.5154      947.57578      1495.501       8192.9562     -7110.8169     -771.06622      141803.75      52.146989      52.146989      52.146989      1.0366234      2425.6739      1665.7141      1201.7509    
     87000   87000          753.03324      1430.6739      57988.719      55024.273      24275.88       30748.393      10446.321      9463.3314      7255.3         966.37335      1552.9654      8179.1841     -7115.082      -769.57735      142078.09      52.180597      52.180597      52.180597      1.0346218      1689.4109      1727.0019      875.60875    
     87500   87500          751.84148      286.22438      55460.996      54856.989      24237.46       30619.529      10536.424      9196.0105      7302.2542      911.91921      1595.7531      8181.7728     -7104.6049     -755.64869      144696.98      52.499257      52.499257      52.499257      1.0158961      799.42738     -114.20465      173.45041    
     88000   88000          754.95359     -667.81585      53391.15       54793.69       24337.787      30455.903      10406.021      9101.3588      7326.7158      944.74824      1608.5804      8167.0842     -7098.6055     -759.27087      144006.69      52.415639      52.415639      52.415639      1.0207657     -170.45361      125.755       -1958.7489    
     88500   88500          749.12502      1378.3085      57740.614      54865.21       24149.888      30715.321      10309.28       9449.7635      7321.0694      936.18176      1602.605       8199.441      -7103.0191     -764.36866      143046.26      52.298854      52.298854      52.298854      1.0276192      608.73282      734.00168      2792.191     
     89000   89000          743.40924     -234.4152       54777.206      55267.669      23965.626      31302.043      10389.053      9565.2017      7661.1267      984.14184      1619.2509      8187.2258     -7103.9573     -762.1403       143464.51      52.349775      52.349775      52.349775      1.0246234      601.37889     -813.57817     -491.0463     
     89500   89500          751.62625      305.62409      56008.083      55364.334      24230.522      31133.813      10586.766      9560.5038      7334.0498      951.77961      1636.0916      8171.6583     -7107.0368     -757.05299      144428.57      52.466775      52.466775      52.466775      1.017784      -370.3131       48.007582      1239.1778    
     90000   90000          743.23968     -12.957569      54755.266      54782.384      23960.16       30822.224      10268.139      9354.3829      7534.8379      952.92429      1641.4921      8174.0906     -7103.6434     -761.93973      143502.27      52.354368      52.354368      52.354368      1.0243538      1330.9421      1031.608      -2401.4228    
     90500   90500          742.85258     -331.68766      53880.903      54571.932      23947.681      30624.251      10133.778      9248.8351      7642.7893      968.78345      1556.6568      8177.5756     -7104.167      -765.39955      142853.6       52.275364      52.275364      52.275364      1.0290052     -828.1893      -290.45422      123.58055    
     91000   91000          746.15595      487.398        56031.424      55011.006      24054.173      30956.833      10542.299      9450.0563      7334.8439      950.64474      1603.887       8175.8617     -7100.7592     -761.65929      143555.11      52.360793      52.360793      52.360793      1.0239767     -829.19641      19.40032       2271.9901    
     91500   91500          745.93226      1064.8123      57038.596      54801.398      24046.962      30754.436      10417.286      9261.5223      7390.4906      966.56437      1650.1627      8175.8183     -7107.4087     -758.96863      144064.03      52.422596      52.422596      52.422596      1.0203594     -416.34978      2094.2354      1516.5512    
     92000   92000          742.94147      1798.2812      58363.175      54594.475      23950.546      30643.929      10287.113      9350.5196      7310.6572      944.59459      1684.5077      8175.3306     -7108.7934     -760.88907      143700.42      52.378455      52.378455      52.378455      1.0229413      1499.0583      1772.5036      2123.2818    
     92500   92500          747.04795      850.78103      56454.76       54647.607      24082.929      30564.679      10413.708      9152.2266      7309.2561      927.81872      1698.3054      8171.2506     -7107.8873     -750.72066      145646.83      52.613882      52.613882      52.613882      1.0092708     -273.39232      919.44174      1906.2937    
     93000   93000          750.39789      848.70069      56768.362      54983.977      24190.923      30793.054      10429.491      9344.756       7322.438       947.60219      1689.8667      8169.4587     -7110.5586     -758.44026      144164.4       52.434767      52.434767      52.434767      1.0196491     -941.37473      1337.8363      2149.6405    
     93500   93500          744.97731     -108.56841      54739.078      54966.22       24016.177      30950.043      10388.538      9446.0262      7487.8951      960.21001      1588.474       8187.4886     -7108.5892     -762.18696      143455.72      52.348707      52.348707      52.348707      1.0246861      1750.174       105.09111     -2180.9704    
     94000   94000          739.15147     -653.8983       53420.097      54792.239      23828.366      30963.873      10275.09       9426.9636      7630.446       950.36382      1606.3609      8180.7385     -7106.0895     -759.9172       143884.21      52.400775      52.400775      52.400775      1.0216347     -1127.9298     -2207.732       1373.9669    
     94500   94500          748.07579     -24.191031      54563.421      54613.552      24116.064      30497.488      10251.741      9449.4485      7325.3397      946.54157      1462.5229      8165.1617     -7103.268      -769.4899       142094.24      52.182573      52.182573      52.182573      1.0345042      169.68995     -139.08259     -103.18046    
     95000   95000          753.38388     -641.88764      53785.036      55118.215      24287.183      30831.032      10097.105      9477.7223      7579.4271      952.8084       1604.266       8217.7334     -7098.0297     -767.76055      142414.3       52.221723      52.221723      52.221723      1.0321793     -25.358679     -991.61978     -908.68447    
     95500   95500          745.56293      997.22279      56988.272      54894.803      24035.056      30859.747      10330.013      9328.683       7552.4569      961.04057      1614.2026      8180.6082     -7107.2573     -759.59288      143945.64      52.408231      52.408231      52.408231      1.0211987      883.01316      1094.9369      1013.7183    
     96000   96000          743.93736     -139.23632      54209.455      54503.538      23982.651      30520.886      10189.184      9267.242       7407.0023      935.02462      1644.3819      8181.6919     -7103.6405     -754.98539      144824.1       52.514627      52.514627      52.514627      1.0150043     -2230.2352      973.46408      839.06214    
     96500   96500          754.63231     -428.71792      54319.346      55231.567      24327.429      30904.137      10234.191      9412.4578      7562.0443      940.97809      1664.9038      8188.1043     -7098.5415     -749.42304      145899.01      52.644231      52.644231      52.644231      1.0075263     -1685.5125      155.76098      243.59776    
     97000   97000          749.33919     -702.23654      53446.732      54938.693      24156.793      30781.901      10391.284      9202.9002      7435.102       927.81106      1758.1248      8174.5734     -7107.895      -750.55251      145679.46      52.61781       52.61781       52.61781       1.0090448     -787.17853     -931.08392     -388.44718    
     97500   97500          753.14358      309.68323      55581.978      54928.144      24279.437      30648.708      10173.185      9195.7651      7540.9585      935.02132      1722.4925      8186.9031     -7105.6183     -755.2757       144768.44      52.507897      52.507897      52.507897      1.0153946      721.02056      1159.0858     -951.05667    
     98000   98000          737.00547     -395.0377       53924.485      54758.299      23759.185      30999.114      10327.844      9438.8497      7525.4446      981.13091      1644.3604      8185.1734     -7103.6882     -755.48244      144728.82      52.503107      52.503107      52.503107      1.0156726      317.86619     -1451.4479     -51.53137     
     98500   98500          756.99701     -905.50134      53217.302      55130.758      24403.661      30727.097      10138.748      9456.374       7533.6188      931.14932      1576.0941      8194.7902     -7103.677      -754.61592      144895.01      52.523196      52.523196      52.523196      1.0145076     -1662.2753     -2638.6071      1584.3784    
     99000   99000          747.57784      1538.1671      58140.113      54905.927      24100.011      30805.916      10338.647      9434.8938      7329.7284      968.96665      1640.4398      8196.9944     -7103.7541     -758.39215      144173.54      52.435875      52.435875      52.435875      1.0195844      1475.3585      1651.7243      1487.4186    
     99500   99500          749.17023      922.81298      57085.222      55146.112      24151.346      30994.766      10396.66       9560.895       7354.9263      952.34281      1653.3421      8177.5513     -7100.951      -758.86845      144083.05      52.424903      52.424903      52.424903      1.0202247      801.20867      384.84679      1582.3835    
    100000   100000         754.89179      1019.0554      57362.595      55223.175      24335.794      30887.381      10446.634      9502.5842      7352.9411      938.38766      1543.3757      8200.8858     -7097.4272     -759.55115      143953.55      52.409191      52.409191      52.409191      1.0211426      1827.3319     -220.03174      1449.866     
    100500   100500         756.25601      571.7243       56042.017      54850.398      24379.774      30470.624      10184.689      9269.6346      7407.488       923.43053      1600.6819      8186.9027     -7102.2025     -765.07575      142914.06      52.282738      52.282738      52.282738      1.0285698     -1138.2363      1812.0869      1041.3223    
    101000   101000         761.16409     -2748.0185      49568.658      55292.253      24537.997      30754.256      10243.627      9420.1296      7593.1522      925.78349      1495.6097      8180.9973     -7105.0435     -765.60714      142814.87      52.270639      52.270639      52.270639      1.0292842     -2114.4627     -2873.7496     -3255.8432    
    101500   101500         760.61362      255.11208      55954.359      55420.189      24520.252      30899.938      10669.259      9424.8191      7303.1347      907.72248      1524.233       8175.2204     -7104.4509     -761.56534      143572.82      52.362946      52.362946      52.362946      1.0238504     -779.39513      116.96236      1427.769     
    102000   102000         754.19679     -1319.4566      52308.476      55061.118      24313.389      30747.728      10461.661      9273.1426      7423.5261      939.59337      1573.939       8183.3808     -7107.514      -764.36476      143047         52.298943      52.298943      52.298943      1.027614      -754.94243     -1212.9449     -1990.4824    
    102500   102500         748.95313     -1519.5144      51084.3        54253.144      24144.347      30108.797      10087.057      9052.3258      7509.7992      920.0568       1462.4365      8185.3871     -7108.2653     -764.6439       142994.78      52.292578      52.292578      52.292578      1.0279893     -251.52393     -1778.5396     -2528.4797    
    103000   103000         751.92676     -125.33482      55013.901      55279.15       24240.21       31038.94       10415.388      9331.5359      7493.9726      968.15609      1747.6915      8184.9105     -7102.7146     -753.48358      145112.76      52.549493      52.549493      52.549493      1.0129853     -1566.6323      998.06939      192.55842    
    103500   103500         752.22729      619.1408       56654.97       55338.202      24249.898      31088.304      10715.994      9370.5783      7262.0196      917.84005      1709.5256      8210.6522     -7098.3057     -749.78257      145829.05      52.635815      52.635815      52.635815      1.0080096      1743.3454     -152.34967      266.4267     
    104000   104000         744.22252     -1212.5753      52269.294      54831.064      23991.844      30839.22       10261.51       9363.0869      7476.93        945.77703      1696.6924      8193.6053     -7098.3823     -754.78621      144862.32      52.519246      52.519246      52.519246      1.0147366      20.67151      -2026.3102     -1632.087     
    104500   104500         751.96913      39.620711      54929.549      54846.552      24241.575      30604.976      9998.4783      9236.8825      7708.9898      971.48372      1604.7219      8184.5128     -7100.0927     -761.22093      143637.78      52.370842      52.370842      52.370842      1.0233874      986.39232     -2307.6503      1440.1201    
    105000   105000         762.33779     -481.15962      54336.593      55335.156      24575.835      30759.321      10261.363      9389.2641      7596.3138      962.81864      1464.2786      8188.306      -7103.0226     -768.36771      142301.77      52.207965      52.207965      52.207965      1.0329956      508.62073     -810.66022     -1141.4394    
    105500   105500         752.40528     -143.37119      54573.076      54872.577      24255.636      30616.941      10256.268      9290.4986      7491.0481      938.60027      1575.1517      8171.6088     -7106.235      -763.34283      143238.5       52.322271      52.322271      52.322271      1.0262401     -152.17926     -1647.9558      1370.0215    
    106000   106000         751.31406     -97.794509      54514.589      54720.553      24220.457      30500.095      10158.934      9330.4398      7457.2665      955.5077       1497.6926      8203.1299     -7102.8755     -757.14466      144411.09      52.464658      52.464658      52.464658      1.0179073     -419.8277      -527.10999      653.55416    
    106500   106500         735.78082     -67.398848      54390.811      54532.693      23719.705      30812.988      10349.52       9231.3699      7525.6701      972.96189      1665.947       8174.9874     -7107.4683     -757.49633      144344.04      52.456538      52.456538      52.456538      1.01838        477.42499     -728.0909       48.46936     
[...]
   5179500   5179500        251.85176      239.90274      21419.696      20991          8119.0611      12871.939      4387.9629      4675.9379      3308.098       318.95805     -830.84795      8158.2721     -7146.442      -892.36157      122528.9       49.668325      49.668325      49.668325      1.1996932     -615.21029      1252.5167      82.401778    
   5180000   5180000        250.3695      -95.213693      20681.492      20850.645      8071.2771      12779.368      4339.5387      4580.792       3395.5313      318.12596     -867.568        8161.8418     -7148.8938     -897.58414      121815.97      49.571806      49.571806      49.571806      1.2067145     -558.20941      447.18617     -174.61784    
   5180500   5180500        249.58572     -260.25855      20558.378      21023.201      8046.0099      12977.191      4356.6422      4643.1037      3421.5465      332.17813     -780.05826      8153.0107     -7149.2319     -892.83758      122463.58      49.659496      49.659496      49.659496      1.2003332     -1224.4872     -199.43516      643.14675    
   5181000   5181000        253.02575      106.79785      21198.228      21008.019      8156.9075      12851.112      4404.5027      4686.1874      3323.7769      327.88416     -897.97626      8157.0323     -7150.2954     -895.33936      122121.38      49.6132        49.6132        49.6132        1.2036966      76.776581     -551.14194      794.75893    
   5181500   5181500        248.65546      457.52008      21667.507      20848.986      8016.0207      12832.965      4366.5305      4546.5787      3396.9101      328.23217     -822.9365       8165.2229     -7147.5727     -891.3237       122671.58      49.687596      49.687596      49.687596      1.1982979      516.87995     -176.10863      1031.7889    
   5182000   5182000        249.41473     -711.90779      19583.157      20849.688      8040.4975      12809.191      4300.4068      4603.9897      3453.3018      326.18629     -865.79094      8141.4783     -7150.3811     -896.31994      121987.78      49.595101      49.595101      49.595101      1.2050149     -766.33573     -385.93862     -983.44903    
   5182500   5182500        249.90689      54.580217      20986.268      20888.923      8056.3635      12832.559      4373.3239      4615.1623      3357.521       321.35852     -834.03348      8152.1614     -7152.9343     -894.07461      122294.14      49.636583      49.636583      49.636583      1.2019962      177.87714     -160.17667      146.04018    
   5183000   5183000        250.83243     -92.530557      20803.479      20968.413      8086.2005      12882.213      4436.0968      4578.6592      3331.7307      322.63615     -796.3266       8158.7835     -7149.3669     -894.5992       122222.42      49.626879      49.626879      49.626879      1.2027015      76.605921     -710.49868      356.30109    
   5183500   5183500        252.46881      469.15839      21825.83       20985.97       8138.9532      12847.017      4341.3452      4617.9372      3339.7297      324.67886     -777.27871      8153.4069     -7152.8019     -890.77463      122747.19      49.697803      49.697803      49.697803      1.1975597     -336.94701      692.84261      1051.5796    
   5184000   5184000        250.17618      466.41539      21705.172      20876.737      8065.0447      12811.693      4375.5121      4576.686       3397.781       317.66774     -847.6498       8144.7906     -7153.095      -897.7799       121789.41      49.568203      49.568203      49.568203      1.2069776     -99.099793      321.74508      1176.6009    
   5184500   5184500        250.58049      839.1702       22349.66       20853.929      8078.0788      12775.85       4394.8869      4642.7971      3250.1859      310.85401     -827.73517      8154.531      -7149.67       -894.64727      122215.86      49.62599       49.62599       49.62599       1.2027661      755.73227      567.69477      1194.0836    
   5185000   5185000        249.80616      72.128811      21004.407      20875.663      8053.1163      12822.547      4369.3336      4704.9716      3217.6717      311.78838     -784.50956      8154.2505     -7150.9596     -893.38288      122388.83      49.649391      49.649391      49.649391      1.2010663      676.45303     -620.81474      160.74814    
   5185500   5185500        252.70862      1988.1695      24503.638      20966.216      8146.6842      12819.532      4410.0257      4636.4201      3235.2321      318.41696     -782.96702      8149.7114     -7147.3076     -896.23486      121999.36      49.59667       49.59667       49.59667       1.2049005      2630.3696      979.36064      2354.7782    
   5186000   5186000        249.70065     -112.53807      20651.032      20852.169      8049.715       12802.454      4343.266       4628.2095      3315.2685      319.84924     -801.20626      8151.1399     -7154.0731     -892.20055      122551.01      49.671313      49.671313      49.671313      1.1994767     -1008.0828      519.63758      150.83098    
   5186500   5186500        249.08587     -382.58241      20131.317      20812.386      8029.896       12782.49       4408.6564      4549.301       3387.8967      319.78684     -867.42221      8139.2635     -7154.9925     -895.75589      122064.6       49.605509      49.605509      49.605509      1.2042566     -765.95969      238.59176     -620.37931    
   5187000   5187000        256.35435      542.74978      22151.453      21182.932      8264.2132      12918.719      4408.4213      4597.2367      3377.5139      337.26655     -806.40814      8158.2797     -7153.5909     -893.60571      122358.31      49.645264      49.645264      49.645264      1.2013658      1127.37        1057.1918     -556.31248    
   5187500   5187500        246.95439     -138.21133      20610.527      20856.47       7961.1824      12895.288      4277.3726      4621.9261      3506.0433      329.1547      -833.1702       8144.2512     -7150.29       -896.11459      122015.74      49.598889      49.598889      49.598889      1.2047388      372.89253     -1119.3362      331.80967    
   5188000   5188000        250.08086      470.3407       21736.774      20896.869      8061.9717      12834.898      4350.2404      4614.5341      3395.9901      330.35857     -863.23575      8155.4287     -7148.4186     -892.97158      122445.2       49.657012      49.657012      49.657012      1.2005133     -330.4159       1001.7469      739.69112    
   5188500   5188500        247.59102      62.843355      20970.523      20858.273      7981.7058      12876.567      4392.1506      4592.4361      3371.2027      324.99769     -799.30437      8144.6461     -7149.5618     -892.74378      122476.44      49.661236      49.661236      49.661236      1.2002071     -149.22219     -312.6704       650.42265    
   5189000   5189000        248.04937      278.133        21256.943      20761.441      7996.4819      12764.959      4381.3296      4563.411       3366.5832      309.99592     -847.80425      8142.8396     -7151.3962     -895.08156      122156.56      49.617963      49.617963      49.617963      1.20335        1006.6728      890.25112     -1062.525     
   5189500   5189500        248.16617     -299.46547      20201.557      20736.207      8000.2473      12735.96       4314.4898      4583.8555      3341.7415      325.08744     -821.24455      8145.0705     -7153.0403     -893.16631      122418.5       49.653403      49.653403      49.653403      1.2007751      552.74242     -1571.7376      120.5988     
   5190000   5190000        249.68554     -453.20904      20038.09       20846.098      8049.2278      12796.87       4308.9813      4597.3214      3418.5775      321.39896     -846.64851      8146.0024     -7148.763      -894.41293      122247.88      49.630324      49.630324      49.630324      1.2024511     -304.6529      -698.27864     -356.69559    
   5190500   5190500        249.7306      -130.22562      20672.011      20904.922      8050.6804      12854.242      4355.6221      4610.6911      3388.8064      318.69511     -816.29053      8145.18       -7148.4623     -891.58145      122636.11      49.682807      49.682807      49.682807      1.1986444      960.79831     -561.03015     -790.44503    
   5191000   5191000        250.12386     -23.853469      20890.18       20932.84       8063.3581      12869.482      4374.8409      4636.2392      3349.0193      324.17883     -813.88409      8150.2469     -7151.1589     -891.63442      122628.83      49.681823      49.681823      49.681823      1.1987156      250.495       -688.97589      366.92048    
   5191500   5191500        251.05198      6.0767609      20985.38       20974.549      8093.2782      12881.271      4341.5559      4664.6121      3332.6749      320.74109     -787.52385      8158.2272     -7149.0167     -894.63574      122217.43      49.626203      49.626203      49.626203      1.2027506     -474.93571      832.06604     -338.90005    
   5192000   5192000        251.54288      1107.1723      22985.735      21021.642      8109.1036      12912.538      4486.0354      4578.9922      3374.7252      312.32852     -842.60009      8154.9377     -7151.8808     -898.89399      121638.46      49.547716      49.547716      49.547716      1.2084754      1567.5291      1512.6438      241.34404    
   5192500   5192500        247.89871     -47.999308      20763.264      20848.792      7991.625       12857.167      4349.4465      4577.069       3388.3528      335.60897     -798.21409      8156.3074     -7151.4033     -894.91069      122179.88      49.621121      49.621121      49.621121      1.2031203      430.05591     -353.45048     -220.60336    
   5193000   5193000        253.31012     -349.39937      20492.55       21116.104      8166.0751      12950.028      4343.6058      4654.463       3399.5195      335.08325     -790.92121      8160.3312     -7152.053      -893.51845      122370.26      49.64688       49.64688       49.64688       1.2012485     -144.0035      -858.52601     -45.66859     
   5193500   5193500        249.02464     -448.14539      19962.193      20759.839      8027.922       12731.917      4227.5529      4609.7691      3395.2727      323.77207     -808.30513      8139.0349     -7155.1795     -895.90937      122043.69      49.602676      49.602676      49.602676      1.2044629     -482.82003     -919.36634      57.750206    
   5194000   5194000        249.8513      -671.76694      19705.207      20901.762      8054.5716      12847.19       4248.7176      4639.5278      3503.2212      328.06886     -861.76749      8142.9851     -7153.5626     -895.24386      122134.41      49.614964      49.614964      49.614964      1.2035682     -1345.0264     -1107.0258      436.75135    
   5194500   5194500        252.13271     -364.26989      20250.963      20901.952      8128.1184      12773.834      4388.6778      4616.5555      3299.1626      314.27714     -851.14107      8154.414      -7148.1124     -892.28765      122539.05      49.669696      49.669696      49.669696      1.1995938     -439.53873     -858.52543      205.2545     
   5195000   5195000        250.62023      20.318513      21038.158      21002.016      8079.3597      12922.656      4350.704       4680.5322      3363.3063      324.65431     -799.06617      8152.9945     -7150.469      -896.46641      121967.85      49.5924        49.5924        49.5924        1.2052118      620.95206     -191.67973     -368.31679    
   5195500   5195500        254.63989     -458.8307       20162.774      20987.767      8208.9433      12778.824      4317.3716      4635.2671      3326.4068      316.94977     -816.71274      8148.2377     -7148.6967     -886.86505      123288.3       49.770723      49.770723      49.770723      1.1923037     -447.58113      422.38402     -1351.295     
   5196000   5196000        252.67752      74.509568      21060.303      20927.749      8145.6816      12782.068      4357.6775      4532.7412      3353.8971      329.73032     -787.45654      8145.4869     -7150.009      -896.34719      121984.07      49.594598      49.594598      49.594598      1.2050515      702.65991     -1237.3998      758.26863    
   5196500   5196500        252.96021     -1227.5773      18779.418      20968.059      8154.7948      12813.264      4281.9262      4586.3066      3496.9692      335.23522     -893.77822      8155.3489     -7148.7443     -894.39555      122250.25      49.630645      49.630645      49.630645      1.2024277     -2396.4115     -571.50332     -714.81709    
   5197000   5197000        251.42737      158.66091      21176.662      20893.157      8105.3801      12787.777      4339.9102      4627.7499      3294.4857      317.86589     -785.88031      8144.1736     -7150.5284     -892.40808      122522.51      49.667462      49.667462      49.667462      1.1997558      51.025577     -636.49017      1061.4473    
   5197500   5197500        246.88861     -437.5877       19986.611      20768.442      7959.062       12809.38       4331.5229      4613.6053      3328.2972      325.25549     -795.20955      8152.8993     -7146.9908     -892.49816      122510.15      49.665791      49.665791      49.665791      1.1998769     -797.42094      17.332866     -532.67504    
   5198000   5198000        246.50857     -200.37904      20368.606      20725.084      7946.8103      12778.274      4343.709       4582.3168      3378.5472      321.82667     -851.58822      8153.2052     -7149.7427     -896.3447       121984.41      49.594644      49.594644      49.594644      1.2050482     -672.42172     -230.96007      302.24468    
   5198500   5198500        248.5873      -569.38297      19773.428      20792.007      8013.8232      12778.184      4292.937       4548.3849      3430.213       323.48353     -807.73996      8143.2563     -7152.3508     -891.38447      122663.21      49.686466      49.686466      49.686466      1.1983796     -1760.6895     -371.52565      424.06621    
   5199000   5199000        251.33838     -526.86128      19930.326      20868.338      8102.5111      12765.827      4326.7547      4623.5922      3372.9047      316.79226     -872.31659      8151.7176     -7153.6181     -895.65982      122077.69      49.607282      49.607282      49.607282      1.2041274     -831.74272      382.99161     -1131.8327    
   5199500   5199500        250.94418      52.231463      21043.019      20949.71       8089.8031      12859.907      4318.3496      4604.2418      3388.6468      323.87077     -760.51523      8137.9492     -7152.6364     -892.61073      122494.7       49.663703      49.663703      49.663703      1.2000282     -698.02211     -1.4404548      856.15695    
   5200000   5200000        250.63006     -802.05913      19485.648      20915.083      8079.6766      12835.406      4291.9323      4608.6088      3437.5237      316.13902     -820.87293      8149.7017     -7147.6264     -894.74076      122203.09      49.624262      49.624262      49.624262      1.2028918     -1089.4796      183.44664     -1500.1445    
Loop time of 1052.83 on 1 procs for 200000 steps with 10816 atoms

Performance: 16.413 ns/day, 1.462 hours/ns, 189.963 timesteps/s, 2.055 Matom-step/s
100.0% CPU use with 1 MPI tasks x 1 OpenMP threads

MPI task timing breakdown:
Section |  min time  |  avg time  |  max time  |%varavg| %total
---------------------------------------------------------------
Pair    | 553.89     | 553.89     | 553.89     |   0.0 | 52.61
Bond    | 155.25     | 155.25     | 155.25     |   0.0 | 14.75
Kspace  | 200.12     | 200.12     | 200.12     |   0.0 | 19.01
Neigh   | 46.827     | 46.827     | 46.827     |   0.0 |  4.45
Comm    | 6.3709     | 6.3709     | 6.3709     |   0.0 |  0.61
Output  | 0.062777   | 0.062777   | 0.062777   |   0.0 |  0.01
Modify  | 61.534     | 61.534     | 61.534     |   0.0 |  5.84
Other   |            | 28.78      |            |       |  2.73

Nlocal:          10816 ave       10816 max       10816 min
Histogram: 1 0 0 0 0 0 0 0 0 0
Nghost:          23203 ave       23203 max       23203 min
Histogram: 1 0 0 0 0 0 0 0 0 0
Neighs:              0 ave           0 max           0 min
Histogram: 1 0 0 0 0 0 0 0 0 0
FullNghs:   6.0874e+06 ave  6.0874e+06 max  6.0874e+06 min
Histogram: 1 0 0 0 0 0 0 0 0 0

Total # of neighbors = 6087404
Ave neighs/atom = 562.81472
Ave special neighs/atom = 5.7707101
Neighbor list builds = 5668
Dangerous builds = 0
  unfix npt_tg
  dump per_t_snap all atom 1 per_t_structs.dump
  dump_modify per_t_snap append yes
  run 0
WARNING: No fixes with time integration, atoms won't move
For more information see https://docs.lammps.org/err0028 (src/verlet.cpp:60)
PPPM Kokkos initialization ...
  using 12-bit tables for long-range coulomb
  G vector (1/distance) = 0.30241874
  grid = 36 36 36
  stencil order = 5
  estimated absolute RMS force accuracy = 0.00028338892
  estimated relative force accuracy = 8.5341732e-07
  using double precision cuFFT
  3d grid and FFT values/proc = 79507 46656
Generated 28 of 28 mixed pair_coeff terms from sixthpower/sixthpower mixing rule
Per MPI rank memory allocation (min/avg/max) = 64.87 | 64.87 | 64.87 Mbytes
   Step          Time           Temp          Press         Enthalpy        TotEng         KinEng         PotEng         E_bond        E_angle        E_dihed        E_impro         E_vdwl         E_coul         E_long         E_tail         Volume           Lx             Ly             Lz          Density          Pxx            Pyy            Pzz      
   5200000   5200000        250.63006     -802.05907      19485.648      20915.083      8079.6766      12835.406      4291.9323      4608.6088      3437.5237      316.13902     -820.87293      8149.1828     -7147.1075     -894.74076      122203.09      49.624262      49.624262      49.624262      1.2028918     -1089.4795      183.44669     -1500.1444    
Loop time of 9.4776e-05 on 1 procs for 0 steps with 10816 atoms

100.2% CPU use with 1 MPI tasks x 1 OpenMP threads

MPI task timing breakdown:
Section |  min time  |  avg time  |  max time  |%varavg| %total
---------------------------------------------------------------
Pair    | 0          | 0          | 0          |   0.0 |  0.00
Bond    | 0          | 0          | 0          |   0.0 |  0.00
Kspace  | 0          | 0          | 0          |   0.0 |  0.00
Neigh   | 0          | 0          | 0          |   0.0 |  0.00
Comm    | 0          | 0          | 0          |   0.0 |  0.00
Output  | 0          | 0          | 0          |   0.0 |  0.00
Modify  | 0          | 0          | 0          |   0.0 |  0.00
Other   |            | 9.478e-05  |            |       |100.00

Nlocal:          10816 ave       10816 max       10816 min
Histogram: 1 0 0 0 0 0 0 0 0 0
Nghost:          23198 ave       23198 max       23198 min
Histogram: 1 0 0 0 0 0 0 0 0 0
Neighs:              0 ave           0 max           0 min
Histogram: 1 0 0 0 0 0 0 0 0 0
FullNghs:  6.08651e+06 ave 6.08651e+06 max 6.08651e+06 min
Histogram: 1 0 0 0 0 0 0 0 0 0

Total # of neighbors = 6086506
Ave neighs/atom = 562.73169
Ave special neighs/atom = 5.7707101
Neighbor list builds = 0
Dangerous builds = 0
  undump per_t_snap
  print "STAGE COMPLETE: Tg step T=${temps}K P=1.0atm steps=200000"
STAGE COMPLETE: Tg step T=250K P=1.0atm steps=200000
  next temps
  jump SELF TEMP_LOOP

write_data tg_step_out.data
System init for write_data ...
PPPM Kokkos initialization ...
  using 12-bit tables for long-range coulomb
  G vector (1/distance) = 0.30241874
  grid = 36 36 36
  stencil order = 5
  estimated absolute RMS force accuracy = 0.00028338892
  estimated relative force accuracy = 8.5341732e-07
  using double precision cuFFT
  3d grid and FFT values/proc = 79507 46656
Generated 28 of 28 mixed pair_coeff terms from sixthpower/sixthpower mixing rule
Total wall time: 7:44:22
