units real
atom_style full
boundary p p p

# --- Force Field Styles ---
pair_style lj/class2/coul/long 9.5 9.5
kspace_style pppm 1e-6
dielectric 1.000000
bond_style class2
angle_style class2
dihedral_style class2
improper_style class2
special_bonds lj/coul 0 0 1
pair_modify mix sixthpower tail yes
neighbor 2.0 bin
neigh_modify delay 0 every 1 check yes
neigh_modify one 4000
# KOKKOS: package loaded via -pk kokkos on the command line

read_data /home/alexzhao/PolyJarvis/data/PS4/lammps/equil/minimize/minimize_out.data
Reading data file ...
  orthogonal box = (0 0 0) to (50.734685 50.734685 50.734685)
  1 by 1 by 1 MPI processor grid
  reading atoms ...
  6420 atoms
  reading velocities ...
  6420 velocities
  scanning bonds ...
  4 = max bonds/atom
  scanning angles ...
  14 = max angles/atom
  scanning dihedrals ...
  34 = max dihedrals/atom
  scanning impropers ...
  11 = max impropers/atom
  orthogonal box = (0 0 0) to (50.734685 50.734685 50.734685)
  1 by 1 by 1 MPI processor grid
  reading bonds ...
  6810 bonds
  reading angles ...
  12000 angles
  reading dihedrals ...
  19110 dihedrals
  reading impropers ...
  5600 impropers
Finding 1-2 1-3 1-4 neighbors ...
  special bond factors lj:    0        0        1       
  special bond factors coul:  0        0        1       
     4 = max # of 1-2 neighbors
     8 = max # of 1-3 neighbors
    12 = max # of special neighbors
  special bonds CPU = 0.005 seconds
  read_data CPU = 0.392 seconds
include /home/alexzhao/PolyJarvis/data/PS4/lammps/equil/emc_build.params
# LAMMPS parameters created by EMC v9.4.4, build Jul 31 2025 20:33:44

# Variables

variable	seed		index	472913
variable	ntotal		index	6420
variable	fshape		index	1
variable	output		index	emc_build
variable	field		index	pcff/pcff
variable	location1	index	~/emc/field/
variable	nav		index	0.6022141179
variable	temperature	index	300
variable	radius		index	5
variable	nrelax		index	100
variable	weight_nonbond	index	0.0001
variable	weight_bond	index	0.0001
variable	weight_focus	index	1
variable	cutoff		index	9.5
variable	charge_cutoff	index	9.5
variable	kappa		index	4
variable	density1	index	0.53
variable	lprevious	index	0
variable	lphase		index	50.7346850343
variable	f_poly		index	10
variable	chem_repeat	index	*CC(c1ccccc1)*
variable	chem_cap	index	*[H]
variable	lg_repeat	index	16
variable	lg_cap		index	1
variable	norm_poly	index	100
variable	l_poly		index	642
variable	mg_repeat	index	92.14181
variable	mg_cap		index	1.00797
variable	m_poly		index	3687.68834
variable	n_poly		index	10
variable	mtotal		index	41681.3434
variable	nphase1		index	6420
variable	mphase1		index	41681.3434
variable	vphase1		index	130591.498627
variable	lbox		index	50.7346850343
variable	lphase1		index	50.7346850343
variable	lxx		index	50.7346850343
variable	lyy		index	50.7346850343
variable	lzz		index	50.7346850343
variable	lzy		index	0
variable	lzx		index	0
variable	lyx		index	0
variable	vtotal		index	130591.498627
variable	nl_poly		index	10

# Types

variable	type_c		index	1
variable	type_c1		index	2
variable	type_cp		index	3
variable	type_hc		index	4

variable	type_bond_c_c	index	1
variable	type_bond_c_c1	index	2
variable	type_bond_c_cp	index	3
variable	type_bond_c_hc	index	4
variable	type_bond_c1_cp	index	5
variable	type_bond_c1_hc	index	6
variable	type_bond_cp_cp	index	7
variable	type_bond_cp_hc	index	8

variable	type_angle_c_c_c1 index	1
variable	type_angle_c_c_cp index	2
variable	type_angle_c_c_hc index	3
variable	type_angle_c_c1_c index	4
variable	type_angle_c_c1_cp index	5
variable	type_angle_c_c1_hc index	6
variable	type_angle_c_cp_cp index	7
variable	type_angle_c1_c_c1 index	8
variable	type_angle_c1_c_hc index	9
variable	type_angle_c1_cp_cp index	10
variable	type_angle_cp_c_hc index	11
variable	type_angle_cp_c1_hc index	12
variable	type_angle_cp_cp_cp index	13
variable	type_angle_cp_cp_hc index	14
variable	type_angle_hc_c_hc index	15

# Clusters

variable	n0_poly		index	1
variable	n1_poly		index	10
variable	nl_poly		index	10

# Flags

variable	flag_charged	index	1

# Masses

mass		1    12.01115  # c
mass		2    12.01115  # c1
mass		3    12.01115  # cp
mass		4     1.00797  # hc

# Potentials

pair_modify	mix sixthpower tail yes
special_bonds	lj/coul 0 0 1

# Pair Coeffs

pair_coeff	 1  1    0.05400    4.01000  # c,c
pair_coeff	 2  2    0.05400    4.01000  # c1,c1
pair_coeff	 3  3    0.06400    4.01000  # cp,cp
pair_coeff	 4  4    0.02000    2.99500  # hc,hc

# Bond Coeffs

bond_coeff	1    1.53000  299.67000 -501.77000  679.81000  # c,c
bond_coeff	2    1.53000  299.67000 -501.77000  679.81000  # c,c1
bond_coeff	3    1.50100  321.90210 -521.82080  572.16280  # c,cp
bond_coeff	4    1.10100  345.00000 -691.89000  844.60000  # c,hc
bond_coeff	5    1.50100  321.90210 -521.82080  572.16280  # c1,cp
bond_coeff	6    1.10100  345.00000 -691.89000  844.60000  # c1,hc
bond_coeff	7    1.41700  470.83610 -627.61790 1327.63450  # cp,cp
bond_coeff	8    1.09820  372.82510 -803.45260  894.31730  # cp,hc

# Angle Coeffs

angle_coeff	 1  112.67000   39.51600   -7.44300   -9.55830  # c,c,c1
angle_coeff	 2  108.40000   43.95940   -8.39240   -9.33790  # c,c,cp
angle_coeff	 3  110.77000   41.45300  -10.60400    5.12900  # c,c,hc
angle_coeff	 4  112.67000   39.51600   -7.44300   -9.55830  # c,c1,c
angle_coeff	 5  108.40000   43.95940   -8.39240   -9.33790  # c,c1,cp
angle_coeff	 6  110.77000   41.45300  -10.60400    5.12900  # c,c1,hc
angle_coeff	 7  120.05000   44.71480  -22.73520    0.00000  # c,cp,cp
angle_coeff	 8  112.67000   39.51600   -7.44300   -9.55830  # c1,c,c1
angle_coeff	 9  110.77000   41.45300  -10.60400    5.12900  # c1,c,hc
angle_coeff	10  120.05000   44.71480  -22.73520    0.00000  # c1,cp,cp
angle_coeff	11  111.00000   44.32340   -9.44540    0.00000  # cp,c,hc
angle_coeff	12  111.00000   44.32340   -9.44540    0.00000  # cp,c1,hc
angle_coeff	13  118.90000   61.02260  -34.99310    0.00000  # cp,cp,cp
angle_coeff	14  117.94000   35.15580  -12.46820    0.00000  # cp,cp,hc
angle_coeff	15  107.66000   39.64100  -12.92100   -2.43180  # hc,c,hc

# BondBond Coeffs

angle_coeff	 1 bb    0.00000    1.53000    1.53000  # c,c,c1
angle_coeff	 2 bb    0.00000    1.53000    1.50100  # c,c,cp
angle_coeff	 3 bb    3.38720    1.53000    1.10100  # c,c,hc
angle_coeff	 4 bb    0.00000    1.53000    1.53000  # c,c1,c
angle_coeff	 5 bb    0.00000    1.53000    1.50100  # c,c1,cp
angle_coeff	 6 bb    3.38720    1.53000    1.10100  # c,c1,hc
angle_coeff	 7 bb   12.06760    1.50100    1.41700  # c,cp,cp
angle_coeff	 8 bb    0.00000    1.53000    1.53000  # c1,c,c1
angle_coeff	 9 bb    3.38720    1.53000    1.10100  # c1,c,hc
angle_coeff	10 bb   12.06760    1.50100    1.41700  # c1,cp,cp
angle_coeff	11 bb    2.91680    1.50100    1.10100  # cp,c,hc
angle_coeff	12 bb    2.91680    1.50100    1.10100  # cp,c1,hc
angle_coeff	13 bb   68.28560    1.41700    1.41700  # cp,cp,cp
angle_coeff	14 bb    1.07950    1.41700    1.09820  # cp,cp,hc
angle_coeff	15 bb    5.33160    1.10100    1.10100  # hc,c,hc

# BondAngle Coeffs

angle_coeff	 1 ba    8.01600    8.01600    1.53000    1.53000  # c,c,c1
angle_coeff	 2 ba    0.00000    0.00000    1.53000    1.50100  # c,c,cp
angle_coeff	 3 ba   20.75400   11.42100    1.53000    1.10100  # c,c,hc
angle_coeff	 4 ba    8.01600    8.01600    1.53000    1.53000  # c,c1,c
angle_coeff	 5 ba    0.00000    0.00000    1.53000    1.50100  # c,c1,cp
angle_coeff	 6 ba   20.75400   11.42100    1.53000    1.10100  # c,c1,hc
angle_coeff	 7 ba   47.05790   31.07710    1.50100    1.41700  # c,cp,cp
angle_coeff	 8 ba    8.01600    8.01600    1.53000    1.53000  # c1,c,c1
angle_coeff	 9 ba   20.75400   11.42100    1.53000    1.10100  # c1,c,hc
angle_coeff	10 ba   47.05790   31.07710    1.50100    1.41700  # c1,cp,cp
angle_coeff	11 ba   26.46080   11.77170    1.50100    1.10100  # cp,c,hc
angle_coeff	12 ba   26.46080   11.77170    1.50100    1.10100  # cp,c1,hc
angle_coeff	13 ba   28.87080   28.87080    1.41700    1.41700  # cp,cp,cp
angle_coeff	14 ba   20.00330   24.21830    1.41700    1.09820  # cp,cp,hc
angle_coeff	15 ba   18.10300   18.10300    1.10100    1.10100  # hc,c,hc

# Dihedral Coeffs

dihedral_coeff	 1    0.00000    0.00000    0.05140    0.00000   -0.14300    0.00000  # c,c,c1,c
dihedral_coeff	 2    0.00000    0.00000    0.00000    0.00000    0.15800  180.00000  # c,c,c1,cp
dihedral_coeff	 3    0.00000    0.00000    0.03160    0.00000   -0.16810    0.00000  # c,c,c1,hc
dihedral_coeff	 4   -0.28020    0.00000   -0.06780    0.00000   -0.01220    0.00000  # c,c,cp,cp
dihedral_coeff	 5    0.00000    0.00000    0.05140    0.00000   -0.14300    0.00000  # c,c1,c,c1
dihedral_coeff	 6    0.00000    0.00000    0.03160    0.00000   -0.16810    0.00000  # c,c1,c,hc
dihedral_coeff	 7   -0.28020    0.00000   -0.06780    0.00000   -0.01220    0.00000  # c,c1,cp,cp
dihedral_coeff	 8    0.00000    0.00000    4.40720    0.00000    0.00000    0.00000  # c,cp,cp,cp
dihedral_coeff	 9    0.00000    0.00000    1.55900    0.00000    0.00000    0.00000  # c,cp,cp,hc
dihedral_coeff	10    0.00000    0.00000    0.00000    0.00000    0.15800  180.00000  # c1,c,c,cp
dihedral_coeff	11    0.00000    0.00000    0.03160    0.00000   -0.16810    0.00000  # c1,c,c,hc
dihedral_coeff	12    0.00000    0.00000    0.00000    0.00000    0.15800  180.00000  # c1,c,c1,cp
dihedral_coeff	13    0.00000    0.00000    0.03160    0.00000   -0.16810    0.00000  # c1,c,c1,hc
dihedral_coeff	14    0.00000    0.00000    4.40720    0.00000    0.00000    0.00000  # c1,cp,cp,cp
dihedral_coeff	15    0.00000    0.00000    1.55900    0.00000    0.00000    0.00000  # c1,cp,cp,hc
dihedral_coeff	16   -0.02280    0.00000    0.02800    0.00000   -0.18630    0.00000  # cp,c,c,hc
dihedral_coeff	17   -0.02280    0.00000    0.02800    0.00000   -0.18630    0.00000  # cp,c1,c,hc
dihedral_coeff	18   -0.28010    0.00000   -0.06780    0.00000   -0.01220    0.00000  # cp,cp,c,hc
dihedral_coeff	19   -0.28010    0.00000   -0.06780    0.00000   -0.01220    0.00000  # cp,cp,c1,hc
dihedral_coeff	20    8.36670    0.00000    1.19320    0.00000    0.00000    0.00000  # cp,cp,cp,cp
dihedral_coeff	21    0.00000    0.00000    3.96610    0.00000    0.00000    0.00000  # cp,cp,cp,hc
dihedral_coeff	22   -0.14320    0.00000    0.06170    0.00000   -0.10830    0.00000  # hc,c,c,hc
dihedral_coeff	23   -0.14320    0.00000    0.06170    0.00000   -0.10830    0.00000  # hc,c,c1,hc
dihedral_coeff	24    0.00000    0.00000    1.87690    0.00000    0.00000    0.00000  # hc,cp,cp,hc

# MiddleBondTorsion Coeffs

dihedral_coeff	 1 mbt  -17.78700   -7.18770    0.00000    1.53000  # c,c,c1,c
dihedral_coeff	 2 mbt    0.00000    0.00000    0.00000    1.53000  # c,c,c1,cp
dihedral_coeff	 3 mbt  -14.87900   -3.65810   -0.31380    1.53000  # c,c,c1,hc
dihedral_coeff	 4 mbt    0.00000    0.00000    0.00000    1.50100  # c,c,cp,cp
dihedral_coeff	 5 mbt  -17.78700   -7.18770    0.00000    1.53000  # c,c1,c,c1
dihedral_coeff	 6 mbt  -14.87900   -3.65810   -0.31380    1.53000  # c,c1,c,hc
dihedral_coeff	 7 mbt    0.00000    0.00000    0.00000    1.50100  # c,c1,cp,cp
dihedral_coeff	 8 mbt    0.00000    9.17920    0.00000    1.41700  # c,cp,cp,cp
dihedral_coeff	 9 mbt    0.00000    3.94210    0.00000    1.41700  # c,cp,cp,hc
dihedral_coeff	10 mbt    0.00000    0.00000    0.00000    1.53000  # c1,c,c,cp
dihedral_coeff	11 mbt  -14.87900   -3.65810   -0.31380    1.53000  # c1,c,c,hc
dihedral_coeff	12 mbt    0.00000    0.00000    0.00000    1.53000  # c1,c,c1,cp
dihedral_coeff	13 mbt  -14.87900   -3.65810   -0.31380    1.53000  # c1,c,c1,hc
dihedral_coeff	14 mbt    0.00000    9.17920    0.00000    1.41700  # c1,cp,cp,cp
dihedral_coeff	15 mbt    0.00000    3.94210    0.00000    1.41700  # c1,cp,cp,hc
dihedral_coeff	16 mbt    0.00000    0.00000    0.00000    1.53000  # cp,c,c,hc
dihedral_coeff	17 mbt    0.00000    0.00000    0.00000    1.53000  # cp,c1,c,hc
dihedral_coeff	18 mbt   -5.56790    1.40830    0.30100    1.50100  # cp,cp,c,hc
dihedral_coeff	19 mbt   -5.56790    1.40830    0.30100    1.50100  # cp,cp,c1,hc
dihedral_coeff	20 mbt   27.59890   -2.31200    0.00000    1.41700  # cp,cp,cp,cp
dihedral_coeff	21 mbt    0.00000   -1.15210    0.00000    1.41700  # cp,cp,cp,hc
dihedral_coeff	22 mbt  -14.26100   -0.53220   -0.48640    1.53000  # hc,c,c,hc
dihedral_coeff	23 mbt  -14.26100   -0.53220   -0.48640    1.53000  # hc,c,c1,hc
dihedral_coeff	24 mbt    0.00000    4.82280    0.00000    1.41700  # hc,cp,cp,hc

# EndBondTorsion Coeffs

dihedral_coeff	 1 ebt   -0.07320    0.00000    0.00000   -0.07320    0.00000    0.00000    1.53000    1.53000  # c,c,c1,c
dihedral_coeff	 2 ebt    0.00000    0.00000    0.00000    0.00000    0.00000    0.00000    1.53000    1.50100  # c,c,c1,cp
dihedral_coeff	 3 ebt    0.24860    0.24220   -0.09250    0.08140    0.05910    0.22190    1.53000    1.10100  # c,c,c1,hc
dihedral_coeff	 4 ebt    0.00000    0.00000    0.00000    0.00000    0.00000    0.00000    1.53000    1.41700  # c,c,cp,cp
dihedral_coeff	 5 ebt   -0.07320    0.00000    0.00000   -0.07320    0.00000    0.00000    1.53000    1.53000  # c,c1,c,c1
dihedral_coeff	 6 ebt    0.24860    0.24220   -0.09250    0.08140    0.05910    0.22190    1.53000    1.10100  # c,c1,c,hc
dihedral_coeff	 7 ebt    0.00000    0.00000    0.00000    0.00000    0.00000    0.00000    1.53000    1.41700  # c,c1,cp,cp
dihedral_coeff	 8 ebt    0.00000    0.24210    0.00000    0.00000   -0.69180    0.00000    1.50100    1.41700  # c,cp,cp,cp
dihedral_coeff	 9 ebt    0.00000   -1.79700    0.00000    0.00000   -0.48790    0.00000    1.50100    1.09820  # c,cp,cp,hc
dihedral_coeff	10 ebt    0.00000    0.00000    0.00000    0.00000    0.00000    0.00000    1.53000    1.50100  # c1,c,c,cp
dihedral_coeff	11 ebt    0.24860    0.24220   -0.09250    0.08140    0.05910    0.22190    1.53000    1.10100  # c1,c,c,hc
dihedral_coeff	12 ebt    0.00000    0.00000    0.00000    0.00000    0.00000    0.00000    1.53000    1.50100  # c1,c,c1,cp
dihedral_coeff	13 ebt    0.24860    0.24220   -0.09250    0.08140    0.05910    0.22190    1.53000    1.10100  # c1,c,c1,hc
dihedral_coeff	14 ebt    0.00000    0.24210    0.00000    0.00000   -0.69180    0.00000    1.50100    1.41700  # c1,cp,cp,cp
dihedral_coeff	15 ebt    0.00000   -1.79700    0.00000    0.00000   -0.48790    0.00000    1.50100    1.09820  # c1,cp,cp,hc
dihedral_coeff	16 ebt    0.00000    0.00000    0.00000    0.00000    0.00000    0.00000    1.50100    1.10100  # cp,c,c,hc
dihedral_coeff	17 ebt    0.00000    0.00000    0.00000    0.00000    0.00000    0.00000    1.50100    1.10100  # cp,c1,c,hc
dihedral_coeff	18 ebt   -0.58350    1.12200    0.39780    1.39970    0.77560    0.00000    1.41700    1.10100  # cp,cp,c,hc
dihedral_coeff	19 ebt   -0.58350    1.12200    0.39780    1.39970    0.77560    0.00000    1.41700    1.10100  # cp,cp,c1,hc
dihedral_coeff	20 ebt   -0.11850    6.32040    0.00000   -0.11850    6.32040    0.00000    1.41700    1.41700  # cp,cp,cp,cp
dihedral_coeff	21 ebt    0.00000   -6.89580    0.00000    0.00000   -0.46690    0.00000    1.41700    1.09820  # cp,cp,cp,hc
dihedral_coeff	22 ebt    0.21300    0.31200    0.07770    0.21300    0.31200    0.07770    1.10100    1.10100  # hc,c,c,hc
dihedral_coeff	23 ebt    0.21300    0.31200    0.07770    0.21300    0.31200    0.07770    1.10100    1.10100  # hc,c,c1,hc
dihedral_coeff	24 ebt    0.00000   -0.68900    0.00000    0.00000   -0.68900    0.00000    1.09820    1.09820  # hc,cp,cp,hc

# AngleTorsion Coeffs

dihedral_coeff	 1 at    0.38860   -0.31390    0.13890    0.38860   -0.31390    0.13890  112.67000  112.67000  # c,c,c1,c
dihedral_coeff	 2 at    0.00000    0.00000    0.00000    0.00000    0.00000    0.00000  112.67000  108.40000  # c,c,c1,cp
dihedral_coeff	 3 at   -0.24540    0.00000   -0.11360    0.31130    0.45160   -0.19880  112.67000  110.77000  # c,c,c1,hc
dihedral_coeff	 4 at    0.00000    0.00000    0.00000    0.00000    0.00000    0.00000  108.40000  120.05000  # c,c,cp,cp
dihedral_coeff	 5 at    0.38860   -0.31390    0.13890    0.38860   -0.31390    0.13890  112.67000  112.67000  # c,c1,c,c1
dihedral_coeff	 6 at   -0.24540    0.00000   -0.11360    0.31130    0.45160   -0.19880  112.67000  110.77000  # c,c1,c,hc
dihedral_coeff	 7 at    0.00000    0.00000    0.00000    0.00000    0.00000    0.00000  108.40000  120.05000  # c,c1,cp,cp
dihedral_coeff	 8 at    0.00000   -4.46830    0.00000    0.00000    3.89870    0.00000  120.05000  118.90000  # c,cp,cp,cp
dihedral_coeff	 9 at    0.00000   -0.12420    0.00000    0.00000    3.46010    0.00000  120.05000  117.94000  # c,cp,cp,hc
dihedral_coeff	10 at    0.00000    0.00000    0.00000    0.00000    0.00000    0.00000  112.67000  108.40000  # c1,c,c,cp
dihedral_coeff	11 at   -0.24540    0.00000   -0.11360    0.31130    0.45160   -0.19880  112.67000  110.77000  # c1,c,c,hc
dihedral_coeff	12 at    0.00000    0.00000    0.00000    0.00000    0.00000    0.00000  112.67000  108.40000  # c1,c,c1,cp
dihedral_coeff	13 at   -0.24540    0.00000   -0.11360    0.31130    0.45160   -0.19880  112.67000  110.77000  # c1,c,c1,hc
dihedral_coeff	14 at    0.00000   -4.46830    0.00000    0.00000    3.89870    0.00000  120.05000  118.90000  # c1,cp,cp,cp
dihedral_coeff	15 at    0.00000   -0.12420    0.00000    0.00000    3.46010    0.00000  120.05000  117.94000  # c1,cp,cp,hc
dihedral_coeff	16 at    0.00000    0.00000    0.00000    0.00000    0.00000    0.00000  108.40000  110.77000  # cp,c,c,hc
dihedral_coeff	17 at    0.00000    0.00000    0.00000    0.00000    0.00000    0.00000  108.40000  110.77000  # cp,c1,c,hc
dihedral_coeff	18 at    0.22510    0.65480    0.12370    4.62660    0.16320    0.04610  120.05000  111.00000  # cp,cp,c,hc
dihedral_coeff	19 at    0.22510    0.65480    0.12370    4.62660    0.16320    0.04610  120.05000  111.00000  # cp,cp,c1,hc
dihedral_coeff	20 at    1.97670    1.02390    0.00000    1.97670    1.02390    0.00000  118.90000  118.90000  # cp,cp,cp,cp
dihedral_coeff	21 at    0.00000    2.50140    0.00000    0.00000    2.71470    0.00000  118.90000  117.94000  # cp,cp,cp,hc
dihedral_coeff	22 at   -0.80850    0.55690   -0.24660   -0.80850    0.55690   -0.24660  110.77000  110.77000  # hc,c,c,hc
dihedral_coeff	23 at   -0.80850    0.55690   -0.24660   -0.80850    0.55690   -0.24660  110.77000  110.77000  # hc,c,c1,hc
dihedral_coeff	24 at    0.00000    2.45010    0.00000    0.00000    2.45010    0.00000  117.94000  117.94000  # hc,cp,cp,hc

# AngleAngleTorsion Coeffs

dihedral_coeff	 1 aat  -22.04500  112.67000  112.67000  # c,c,c1,c
dihedral_coeff	 2 aat    0.00000  112.67000  108.40000  # c,c,c1,cp
dihedral_coeff	 3 aat  -16.16400  112.67000  110.77000  # c,c,c1,hc
dihedral_coeff	 4 aat    0.00000  108.40000  120.05000  # c,c,cp,cp
dihedral_coeff	 5 aat  -22.04500  112.67000  112.67000  # c,c1,c,c1
dihedral_coeff	 6 aat  -16.16400  112.67000  110.77000  # c,c1,c,hc
dihedral_coeff	 7 aat    0.00000  108.40000  120.05000  # c,c1,cp,cp
dihedral_coeff	 8 aat  -14.40970  120.05000  118.90000  # c,cp,cp,cp
dihedral_coeff	 9 aat    4.44440  120.05000  117.94000  # c,cp,cp,hc
dihedral_coeff	10 aat    0.00000  112.67000  108.40000  # c1,c,c,cp
dihedral_coeff	11 aat  -16.16400  112.67000  110.77000  # c1,c,c,hc
dihedral_coeff	12 aat    0.00000  112.67000  108.40000  # c1,c,c1,cp
dihedral_coeff	13 aat  -16.16400  112.67000  110.77000  # c1,c,c1,hc
dihedral_coeff	14 aat  -14.40970  120.05000  118.90000  # c1,cp,cp,cp
dihedral_coeff	15 aat    4.44440  120.05000  117.94000  # c1,cp,cp,hc
dihedral_coeff	16 aat    0.00000  108.40000  110.77000  # cp,c,c,hc
dihedral_coeff	17 aat    0.00000  108.40000  110.77000  # cp,c1,c,hc
dihedral_coeff	18 aat   -5.88880  120.05000  111.00000  # cp,cp,c,hc
dihedral_coeff	19 aat   -5.88880  120.05000  111.00000  # cp,cp,c1,hc
dihedral_coeff	20 aat    0.00000  118.90000  118.90000  # cp,cp,cp,cp
dihedral_coeff	21 aat   -4.81410  118.90000  117.94000  # cp,cp,cp,hc
dihedral_coeff	22 aat  -12.56400  110.77000  110.77000  # hc,c,c,hc
dihedral_coeff	23 aat  -12.56400  110.77000  110.77000  # hc,c,c1,hc
dihedral_coeff	24 aat    0.35980  117.94000  117.94000  # hc,cp,cp,hc

# BondBond13 Coeffs

dihedral_coeff	 1 bb13    0.00000    1.53000    1.53000  # c,c,c1,c
dihedral_coeff	 2 bb13    0.00000    1.53000    1.50100  # c,c,c1,cp
dihedral_coeff	 3 bb13    0.00000    1.53000    1.10100  # c,c,c1,hc
dihedral_coeff	 4 bb13    0.00000    1.53000    1.41700  # c,c,cp,cp
dihedral_coeff	 5 bb13    0.00000    1.53000    1.53000  # c,c1,c,c1
dihedral_coeff	 6 bb13    0.00000    1.53000    1.10100  # c,c1,c,hc
dihedral_coeff	 7 bb13    0.00000    1.53000    1.41700  # c,c1,cp,cp
dihedral_coeff	 8 bb13    2.50850    1.50100    1.41700  # c,cp,cp,cp
dihedral_coeff	 9 bb13    0.87430    1.50100    1.09820  # c,cp,cp,hc
dihedral_coeff	10 bb13    0.00000    1.53000    1.50100  # c1,c,c,cp
dihedral_coeff	11 bb13    0.00000    1.53000    1.10100  # c1,c,c,hc
dihedral_coeff	12 bb13    0.00000    1.53000    1.50100  # c1,c,c1,cp
dihedral_coeff	13 bb13    0.00000    1.53000    1.10100  # c1,c,c1,hc
dihedral_coeff	14 bb13    2.50850    1.50100    1.41700  # c1,cp,cp,cp
dihedral_coeff	15 bb13    0.87430    1.50100    1.09820  # c1,cp,cp,hc
dihedral_coeff	16 bb13    0.00000    1.50100    1.10100  # cp,c,c,hc
dihedral_coeff	17 bb13    0.00000    1.50100    1.10100  # cp,c1,c,hc
dihedral_coeff	18 bb13   -3.48260    1.41700    1.10100  # cp,cp,c,hc
dihedral_coeff	19 bb13   -3.48260    1.41700    1.10100  # cp,cp,c1,hc
dihedral_coeff	20 bb13   53.00000    1.41700    1.41700  # cp,cp,cp,cp
dihedral_coeff	21 bb13   -6.27410    1.41700    1.09820  # cp,cp,cp,hc
dihedral_coeff	22 bb13    0.00000    1.10100    1.10100  # hc,c,c,hc
dihedral_coeff	23 bb13    0.00000    1.10100    1.10100  # hc,c,c1,hc
dihedral_coeff	24 bb13   -1.70770    1.09820    1.09820  # hc,cp,cp,hc

# Improper Coeffs

improper_coeff	 1    0.00000    0.00000  # c,c,cp,hc
improper_coeff	 2    0.00000    0.00000  # c,c,hc,c1
improper_coeff	 3    0.00000    0.00000  # c,c,hc,cp
improper_coeff	 4    0.00000    0.00000  # c,c,hc,hc
improper_coeff	 5    0.00000    0.00000  # c,c1,c1,hc
improper_coeff	 6    0.00000    0.00000  # c,c1,hc,hc
improper_coeff	 7    0.00000    0.00000  # c,cp,hc,hc
improper_coeff	 8    0.00000    0.00000  # c,hc,hc,hc
improper_coeff	 9    0.00000    0.00000  # c1,c,c,cp
improper_coeff	10    0.00000    0.00000  # c1,c,c,hc
improper_coeff	11    0.00000    0.00000  # c1,c,cp,hc
improper_coeff	12    7.81530    0.00000  # cp,c,cp,cp
improper_coeff	13    7.81530    0.00000  # cp,c1,cp,cp
improper_coeff	14    4.89120    0.00000  # cp,cp,cp,hc

# AngleAngle Coeffs

improper_coeff	 1 aa    2.04030   -1.82020    1.08270  108.40000  110.77000  111.00000  # c,c,cp,hc
improper_coeff	 2 aa    0.11840   -1.31990   -1.31990  110.77000  112.67000  110.77000  # c,c,hc,c1
improper_coeff	 3 aa    1.08270   -1.82020    2.04030  110.77000  108.40000  111.00000  # c,c,hc,cp
improper_coeff	 4 aa    0.27380   -0.48250    0.27380  110.77000  110.77000  107.66000  # c,c,hc,hc
improper_coeff	 5 aa   -1.31990   -1.31990    0.11840  112.67000  110.77000  110.77000  # c,c1,c1,hc
improper_coeff	 6 aa    0.27380   -0.48250    0.27380  110.77000  110.77000  107.66000  # c,c1,hc,hc
improper_coeff	 7 aa    2.37940    3.01180    2.37940  111.00000  111.00000  107.66000  # c,cp,hc,hc
improper_coeff	 8 aa   -0.31570   -0.31570   -0.31570  107.66000  107.66000  107.66000  # c,hc,hc,hc
improper_coeff	 9 aa    0.00000    0.00000    0.00000  112.67000  108.40000  108.40000  # c1,c,c,cp
improper_coeff	10 aa   -1.31990   -1.31990    0.11840  112.67000  110.77000  110.77000  # c1,c,c,hc
improper_coeff	11 aa    2.04030   -1.82020    1.08270  108.40000  110.77000  111.00000  # c1,c,cp,hc
improper_coeff	12 aa    0.00000    0.00000    0.00000  120.05000  120.05000  118.90000  # cp,c,cp,cp
improper_coeff	13 aa    0.00000    0.00000    0.00000  120.05000  120.05000  118.90000  # cp,c1,cp,cp
improper_coeff	14 aa    0.00000    0.00000    0.00000  118.90000  117.94000  117.94000  # cp,cp,cp,hc


# --- Thermo Output ---
thermo_style custom step time temp press enthalpy etotal ke pe ebond eangle edihed eimp evdwl ecoul elong etail vol lx ly lz density pxx pyy pzz
thermo_modify flush yes
thermo 1000

# --- Trajectory ---
dump dump_nvt all custom 1000 nvt_softheat.dump id type mol x y z ix iy iz vx vy vz

# --- Restart Checkpointing ---
restart 10000 nvt_1.rst nvt_2.rst

# --- Initial Velocities (optional) ---
velocity all create 300.0 647974 mom yes rot yes dist gaussian

# --- SHAKE Constraints ---
# Constrains H-X bonds to allow 2fs timestep
# SHAKE disabled

# --- NVT Thermostat (Nose-Hoover) ---
# T_damp = 50.0 fs  (coupling timescale for heat exchange)
# Ramp: 300.0 K -> 630.0 K over 500000 steps
timestep 0.5
fix nvt_fix all nvt temp 300.0 630.0 50.0

run 500000
PPPM Kokkos initialization ...
  using 12-bit tables for long-range coulomb
  G vector (1/distance) = 0.29040648
  grid = 32 32 32
  stencil order = 5
  estimated absolute RMS force accuracy = 0.00037971678
  estimated relative force accuracy = 1.1435058e-06
  using double precision cuFFT
  3d grid and FFT values/proc = 59319 32768
Generated 6 of 6 mixed pair_coeff terms from sixthpower/sixthpower mixing rule
Neighbor list info ...
  update: every = 1 steps, delay = 0 steps, check = yes
  max neighbors/atom: 4000, page size: 100000
  master list distance cutoff = 11.5
  ghost atom cutoff = 11.5
  binsize = 11.5, bins = 5 5 5
  1 neighbor lists, perpetual/occasional/extra = 1 0 0
  (1) pair lj/class2/coul/long/kk, perpetual
      attributes: full, newton off, kokkos_device
      pair build: full/bin/kk/device
      stencil: full/bin/3d
      bin: kk/device
Per MPI rank memory allocation (min/avg/max) = 35.47 | 35.47 | 35.47 Mbytes
   Step          Time           Temp          Press         Enthalpy        TotEng         KinEng         PotEng         E_bond        E_angle        E_dihed        E_impro         E_vdwl         E_coul         E_long         E_tail         Volume           Lx             Ly             Lz          Density          Pxx            Pyy            Pzz      
         0   0              300            1585.4884      8315.0566      5295.4258      5740.1459     -444.72013      815.20357      1250.2379     -3050.2211      26.229721      540.12382      3691.9105     -3718.2045     -220.24632      130591.5       50.734685      50.734685      50.734685      0.52999999     1653.7406      1513.2921      1589.4323    
      1000   500            310.51486      462.70106      12404.392      11523.157      5941.3354      5581.8221      3047.387       3196.147      -1926.3608      232.2906       1040.4825      3704.5489     -3712.6732     -220.24632      130591.5       50.734685      50.734685      50.734685      0.52999999    -251.87179      773.28376      866.69122    
      2000   1000           291.90476     -1133.7449      8837.6476      10996.914      5585.2531      5411.6605      2839.1986      3213.1725     -1896.6242      210.06459      1055.8048      3704.1673     -3714.1231     -220.24632      130591.5       50.734685      50.734685      50.734685      0.52999999    -915.36612     -1852.415      -633.45346    
      3000   1500           299.71451     -74.10925       11132.616      11273.76       5734.6834      5539.0769      3012.6351      3162.1602     -1971.3494      213.32998      1116.4454      3719.1317     -3713.2762     -220.24632      130591.5       50.734685      50.734685      50.734685      0.52999999     840.09468      34.144437     -1096.5669    
      4000   2000           305.40672     -609.59607      10141.266      11302.268      5843.5971      5458.671       2973.5154      3114.0156     -1985.4375      210.08512      1132.723       3724.197      -3710.4277     -220.24632      130591.5       50.734685      50.734685      50.734685      0.52999999    -354.48818     -247.4606      -1226.8394    
      5000   2500           300.98708     -535.04948      10124.819      11143.844      5759.0326      5384.8112      2881.4273      3145.4642     -1972.0163      220.31629      1097.0952      3723.4427     -3710.9183     -220.24632      130591.5       50.734685      50.734685      50.734685      0.52999999    -950.85028     -378.56833     -275.72985    
      6000   3000           301.20306     -17.393178      11250.445      11283.571      5763.165       5520.4062      3002.1211      3149.5436     -1977.4589      215.9644       1128.5656      3714.5149     -3712.8445     -220.24632      130591.5       50.734685      50.734685      50.734685      0.52999999    -568.28554      115.62982      400.47619    
      7000   3500           305.64542     -867.98344      9726.7528      11379.865      5848.1643      5531.7003      2856.3371      3173.0307     -1863.5339      223.03841      1123.7054      3728.132      -3709.0094     -220.24632      130591.5       50.734685      50.734685      50.734685      0.52999999    -982.50239     -746.98875     -874.45918    
      8000   4000           307.00421      43.60797       11270.73       11187.676      5874.1632      5313.5132      2875.4107      3025.3359     -1944.7059      207.0691       1137.3982      3725.745      -3712.7399     -220.24632      130591.5       50.734685      50.734685      50.734685      0.52999999    -364.69225      261.10804      234.40812    
      9000   4500           311.86035     -675.24942      10107.764      11393.805      5967.0797      5426.7258      2968.7583      3077.4313     -1941.244       218.17724      1103.2845      3715.4828     -3715.1644     -220.24632      130591.5       50.734685      50.734685      50.734685      0.52999999    -509.53227     -103.88261     -1412.3334    
     10000   5000           302.16113      156.17499      11511.696      11214.254      5781.4966      5432.7576      2925.3648      3079.6483     -1942.0586      220.73074      1152.7701      3709.0778     -3712.7756     -220.24632      130591.5       50.734685      50.734685      50.734685      0.52999999    -48.3229        173.52449      343.32337    
     11000   5500           311.46543     -92.161896      11184.243      11359.769      5959.5234      5400.2458      2940.4439      3039.7077     -1957.46        217.22283      1147.5861      3726.8837     -3714.1385     -220.24632      130591.5       50.734685      50.734685      50.734685      0.52999999     108.61962     -417.05113      31.945823    
     12000   6000           306.01984      431.68922      12082.201      11260.03       5855.3284      5404.7014      2883.1133      3085.7289     -1984.3567      218.66743      1196.2064      3715.2184     -3709.8762     -220.24632      130591.5       50.734685      50.734685      50.734685      0.52999999     406.95854      545.08733      343.02179    
     13000   6500           310.67602     -363.8468       10730.864      11423.826      5944.4189      5479.407       2844.4774      3211.1087     -1892.0006      224.97248      1093.3575      3712.4481     -3714.9567     -220.24632      130591.5       50.734685      50.734685      50.734685      0.52999999    -408.11768     -286.50218     -396.92053    
     14000   7000           308.21329     -519.01795      10251.022      11239.514      5897.2976      5342.2168      2871.961       3017.1582     -1888.4048      220.51528      1115.9757      3717.7327     -3712.7211     -220.24632      130591.5       50.734685      50.734685      50.734685      0.52999999    -1287.5529     -615.02876      345.52778    
     15000   7500           311.3428      -674.06193      10180.219      11463.999      5957.177       5506.8216      2940.147       3107.91       -1890.159       226.84215      1120.1789      3713.9972     -3712.0947     -220.24632      130591.5       50.734685      50.734685      50.734685      0.52999999     29.100781     -921.78968     -1129.4969    
     16000   8000           305.94121      80.618653      11460.193      11306.651      5853.824       5452.8272      2965.4746      3100.6561     -1966.7543      221.22457      1120.5796      3720.4027     -3708.756      -220.24632      130591.5       50.734685      50.734685      50.734685      0.52999999     922.95898     -158.4789      -522.62411    
     17000   8500           310.90737     -1498.1437      8567.4126      11420.692      5948.8455      5471.8462      2945.1466      3108.8105     -1899.1277      215.60959      1083.278       3725.001      -3706.8717     -220.24632      130591.5       50.734685      50.734685      50.734685      0.52999999    -1804.2774     -1357.8603     -1332.2933    
     18000   9000           311.67536     -86.895777      11255.938      11421.435      5963.5402      5457.8944      2963.9316      3031.4882     -1893.3851      213.89486      1132.08        3722.1957     -3712.311      -220.24632      130591.5       50.734685      50.734685      50.734685      0.52999999     477.31595     -357.56207     -380.44121    
     19000   9500           308.4087      -547.78673      10283.291      11326.574      5901.0364      5425.5377      2886.6492      3134.3941     -1927.1292      206.63607      1117.6432      3721.9081     -3714.5637     -220.24632      130591.5       50.734685      50.734685      50.734685      0.52999999    -607.50921     -668.28926     -367.56172    
     20000   10000          313.70881     -547.66925      10406.624      11449.684      6002.4478      5447.2357      3001.7101      3110.8604     -1968.258       225.16411      1087.3864      3706.8693     -3716.4965     -220.24632      130591.5       50.734685      50.734685      50.734685      0.52999999    -104.45269     -1014.7482     -523.80685    
     21000   10500          314.48328     -143.94346      11156.821      11430.967      6017.2665      5413.7007      2943.6732      3056.6547     -1938.368       222.79476      1149.6762      3701.781      -3722.5111     -220.24632      130591.5       50.734685      50.734685      50.734685      0.52999999    -325.60816      279.31444     -385.53665    
     22000   11000          314.8201       229.44016      11756.411      11319.432      6023.7111      5295.7213      2922.2914      3054.445      -1994.4828      218.68948      1092.9813      3721.9029     -3720.1059     -220.24632      130591.5       50.734685      50.734685      50.734685      0.52999999     211.11565      539.14269     -61.937871    
     23000   11500          313.96041     -1146.496       9215.407       11398.958      6007.262       5391.696       2926.2165      3113.1047     -1890.0498      227.84262      1029.6023      3701.6028     -3716.623      -220.24632      130591.5       50.734685      50.734685      50.734685      0.52999999    -1092.6529     -1305.7351     -1041.0999    
     24000   12000          321.06746     -847.40954      9986.6102      11600.538      6143.2469      5457.2912      2989.4697      3119.7289     -1938.6462      219.99574      1073.2392      3709.9614     -3716.4575     -220.24632      130591.5       50.734685      50.734685      50.734685      0.52999999    -684.03783     -281.37253     -1576.8183    
     25000   12500          321.8568      -373.18005      10880.562      11591.3        6158.3501      5432.9496      2937.111       3124.0973     -1967.4407      217.23989      1133.1351      3708.3524     -3719.5455     -220.24632      130591.5       50.734685      50.734685      50.734685      0.52999999    -587.6576      -556.23221      24.34967     
     26000   13000          315.94036     -241.2439       11018.038      11477.497      6045.1459      5432.3512      2895.8215      3139.2336     -1955.187       221.58321      1142.579       3706.5515     -3718.2307     -220.24632      130591.5       50.734685      50.734685      50.734685      0.52999999    -557.08272      341.76079     -508.40977    
     27000   13500          321.44352     -304.02326      11178.228      11757.253      6150.4424      5606.811       3040.5016      3133.3808     -1901.8096      223.44641      1125.334       3701.7551     -3715.7972     -220.24632      130591.5       50.734685      50.734685      50.734685      0.52999999    -583.43435      318.78819     -647.42362    
     28000   14000          317.19768      263.69349      12152.149      11649.934      6069.2032      5580.7303      2998.132       3071.2975     -1900.2347      220.28185      1203.969       3703.757      -3716.4723     -220.24632      130591.5       50.734685      50.734685      50.734685      0.52999999     522.01873     -586.34245      855.40418    
     29000   14500          317.91858     -503.75875      10708.188      11667.618      6082.9968      5584.6215      2994.7967      3133.5068     -1888.2443      216.56438      1138.7457      3706.1674     -3716.9152     -220.24632      130591.5       50.734685      50.734685      50.734685      0.52999999    -1221.4529     -666.10363      376.28033    
     30000   15000          312.93901     -492.06207      10594.564      11531.717      5987.7186      5543.9986      3023.8555      3120.5073     -1927.3298      219.82185      1125.4342      3701.5523     -3719.8427     -220.24632      130591.5       50.734685      50.734685      50.734685      0.52999999    -285.5176      -687.59231     -503.0763     
     31000   15500          325.50735     -388.63289      11006.881      11747.049      6228.199       5518.8505      2966.5129      3174.1772     -1912.3346      219.77892      1084.5301      3701.8698     -3715.6838     -220.24632      130591.5       50.734685      50.734685      50.734685      0.52999999    -529.0918      -446.36969     -190.43718    
     32000   16000          322.12016     -213.52265      11259.148      11665.811      6163.3891      5502.4216      2930.9267      3098.1274     -1890.3042      232.85117      1141.8196      3699.0588     -3710.0579     -220.24632      130591.5       50.734685      50.734685      50.734685      0.52999999     205.82695     -123.88581     -722.5091     
     33000   16500          328.80246     -541.43055      10932.317      11963.495      6291.2469      5672.2479      3099.4701      3084.0602     -1850.6065      225.29643      1126.4406      3706.49       -3718.9031     -220.24632      130591.5       50.734685      50.734685      50.734685      0.52999999    -358.96795     -770.80695     -494.51675    
     34000   17000          326.52037      100.12889      12067.809      11877.11       6247.5819      5629.5277      3053.7902      3141.4839     -1938.7779      217.27493      1159.9341      3710.1226     -3714.3001     -220.24632      130591.5       50.734685      50.734685      50.734685      0.52999999     1044.1185     -871.58846      127.85665    
     35000   17500          327.19673      575.67477      12907.602      11811.205      6260.5233      5550.6817      3082.7067      3112.6173     -1992.4857      209.54398      1140.8161      3712.5493     -3715.066      -220.24632      130591.5       50.734685      50.734685      50.734685      0.52999999    -258.21336      1183.4212      801.81649    
     36000   18000          320.28096      130.22233      11856.395      11608.381      6128.1982      5480.1831      3005.5572      3110.8467     -1954.0832      212.86519      1129.9847      3695.0324     -3720.0198     -220.24632      130591.5       50.734685      50.734685      50.734685      0.52999999     244.90858      354.50476     -208.74635    
     37000   18500          324.63572      583.07234      12854.004      11743.518      6211.5213      5531.9964      2998.0941      3093.6117     -1902.9496      217.55586      1146.0139      3698.9218     -3719.2514     -220.24632      130591.5       50.734685      50.734685      50.734685      0.52999999     879.30847      1086.5123     -216.60375    
     38000   19000          325.564       -883.11341      10161.828      11843.756      6229.2828      5614.473       3121.7822      3128.7828     -1907.2277      214.15598      1077.9008      3698.9125     -3719.8335     -220.24632      130591.5       50.734685      50.734685      50.734685      0.52999999    -2088.7233     -517.74113     -42.875813    
     39000   19500          329.16595     -194.62013      11540.98       11911.642      6298.202       5613.4403      3090.0392      3083.4781     -1917.0728      221.33632      1151.5536      3704.7224     -3720.6165     -220.24632      130591.5       50.734685      50.734685      50.734685      0.52999999     315.77713     -867.30935     -32.328164    
     40000   20000          324.20227     -786.34872      10220.82       11718.455      6203.2278      5515.2275      2987.6364      3091.9091     -1849.6671      219.02894      1080.0069      3709.0728     -3722.7595     -220.24632      130591.5       50.734685      50.734685      50.734685      0.52999999    -227.37558     -344.09825     -1787.5723    
     41000   20500          329.10052      216.00441      12316.616      11905.227      6296.9499      5608.2767      3128.2638      3069.7833     -1936.8507      220.66045      1136.5996      3717.9439     -3728.1237     -220.24632      130591.5       50.734685      50.734685      50.734685      0.52999999    -80.856592     -334.67064      1063.5405    
     42000   21000          329.36015      193.28134      12346.193      11978.08       6301.9178      5676.1621      3054.3411      3169.6537     -1867.3796      235.11665      1114.9918      3701.4529     -3732.0144     -220.24632      130591.5       50.734685      50.734685      50.734685      0.52999999     376.94688      557.11877     -354.22161    
     43000   21500          326.79184     -453.11151      11076.233      11939.203      6252.7762      5686.4271      3107.635       3177.4985     -1870.8543      224.33117      1087.3259      3693.2814     -3732.7906     -220.24632      130591.5       50.734685      50.734685      50.734685      0.52999999    -363.58029     -91.228553     -904.52568    
     44000   22000          324.66496     -222.69398      11434.191      11858.321      6212.0808      5646.2407      3007.1412      3114.5053     -1788.0526      225.38076      1104.3392      3707.4845     -3724.5576     -220.24632      130591.5       50.734685      50.734685      50.734685      0.52999999    -634.98229     -8.951291      -24.148366    
     45000   22500          334.35233     -94.595377      11769.315      11949.476      6397.4373      5552.0386      2993.055       3119.9392     -1882.0852      219.00948      1110.8372      3714.8083     -3723.5253     -220.24632      130591.5       50.734685      50.734685      50.734685      0.52999999    -93.232496      41.416792     -231.97043    
     46000   23000          334.64034     -526.50006      11055.421      12058.163      6402.948       5655.2146      3004.2118      3074.1323     -1759.7243      236.37699      1110.5418      3714.7046     -3725.0286     -220.24632      130591.5       50.734685      50.734685      50.734685      0.52999999    -692.42975     -612.49774     -274.57269    
     47000   23500          333.45042     -464.09565      11079.352      11963.242      6380.1802      5583.0615      3005.6352      3126.1687     -1891.2326      219.04332      1144.7701      3706.1357     -3727.4589     -220.24632      130591.5       50.734685      50.734685      50.734685      0.52999999    -208.7651      -836.08976     -347.4321     
     48000   24000          326.84986     -1349.9042      9381.4542      11952.405      6253.8863      5698.5185      3018.6618      3146.442      -1756.1835      238.45512      1063.4051      3719.1677     -3731.4298     -220.24632      130591.5       50.734685      50.734685      50.734685      0.52999999    -1451.0867     -1746.3835     -852.24225    
     49000   24500          330.1079      -169.33088      11657.414      11979.912      6316.225       5663.6866      3101.7267      3108.9339     -1856.5191      243.96889      1087.48        3711.2712     -3733.1751     -220.24632      130591.5       50.734685      50.734685      50.734685      0.52999999    -95.580563      8.3771726     -420.78925    
     50000   25000          339.48248     -302.40764      11755.566      12331.514      6495.5967      5835.9177      3124.4225      3182.8414     -1802.1223      246.92453      1095.8445      3720.8592     -3732.8521     -220.24632      130591.5       50.734685      50.734685      50.734685      0.52999999    -321.96747     -299.67708     -285.57837    
     51000   25500          328.05133     -980.56601      10264.303      12131.833      6276.8749      5854.9578      3176.7742      3235.4439     -1840.8531      241.7489       1061.9356      3709.1031     -3729.1948     -220.24632      130591.5       50.734685      50.734685      50.734685      0.52999999    -1100.4651     -787.20871     -1054.0242    
     52000   26000          328.66072     -630.46815      10898.661      12099.414      6288.5349      5810.8796      3153.7119      3171.1704     -1829.2285      230.0261       1100.5883      3714.4295     -3729.8181     -220.24632      130591.5       50.734685      50.734685      50.734685      0.52999999    -54.296257     -1089.2226     -747.88563    
     53000   26500          332.47287      170.60849      12407.756      12082.825      6361.476       5721.3489      3156.8724      3123.8591     -1850.1345      240.30421      1077.6048      3706.9585     -3734.1157     -220.24632      130591.5       50.734685      50.734685      50.734685      0.52999999     685.5907      -286.34184      112.5766     
     54000   27000          327.70375     -117.1822       11955.265      12178.444      6270.2245      5908.2195      3147.0203      3213.7586     -1789.6544      240.48961      1134.9768      3697.5307     -3735.902      -220.24632      130591.5       50.734685      50.734685      50.734685      0.52999999    -289.69221     -101.17392      39.319525    
     55000   27500          329.44435     -122.85681      11861.05       12095.036      6303.5287      5791.5069      3076.7955      3200.802      -1804.9996      242.5533       1111.0014      3701.5823     -3736.228      -220.24632      130591.5       50.734685      50.734685      50.734685      0.52999999    -799.53899      380.33731      50.63126     
     56000   28000          338.9216      -148.56222      11945.628      12228.571      6484.8647      5743.7063      3158.8369      3131.0771     -1904.9797      235.06528      1151.2318      3702.6256     -3730.1507     -220.24632      130591.5       50.734685      50.734685      50.734685      0.52999999     245.47255     -1068.1304      376.97118    
     57000   28500          341.43982     -279.89787      11971.817      12504.895      6533.048       5971.8465      3247.4347      3235.0564     -1853.2131      246.89674      1125.4625      3703.1869     -3732.9776     -220.24632      130591.5       50.734685      50.734685      50.734685      0.52999999     69.432081     -538.85701     -370.26867    
     58000   29000          337.68225      612.35902      13409.324      12243.059      6461.1512      5781.9083      3205.4679      3168.4939     -1936.009       236.27432      1144.1708      3701.3382     -3737.8279     -220.24632      130591.5       50.734685      50.734685      50.734685      0.52999999     342.58182      1319.877       174.61822    
     59000   29500          339.00482     -151.76151      11962.018      12251.055      6486.4571      5764.5974      3216.5688      3117.2267     -1867.1462      235.90405      1078.2277      3714.0403     -3730.2239     -220.24632      130591.5       50.734685      50.734685      50.734685      0.52999999    -1181.6595      302.4469       423.92805    
     60000   30000          338.72303     -796.71304      10681.364      12198.738      6481.0654      5717.673       3146.9917      3095.2662     -1799.4863      230.05073      1067.4286      3710.4316     -3733.0095     -220.24632      130591.5       50.734685      50.734685      50.734685      0.52999999    -1037.2709     -329.09572     -1023.7725    
     61000   30500          343.88557     -1282.3233      9996.9483      12439.188      6579.8444      5859.3438      3070.2059      3217.1228     -1743.0868      251.19881      1103.8843      3698.7618     -3738.7431     -220.24632      130591.5       50.734685      50.734685      50.734685      0.52999999    -1274.2857     -567.59533     -2005.089     
     62000   31000          340.04265     -415.67285      11564.45       12356.117      6506.3148      5849.8021      3076.8378      3221.2194     -1787.3256      250.74431      1134.8802      3695.017      -3741.5709     -220.24632      130591.5       50.734685      50.734685      50.734685      0.52999999    -341.39529      378.61971     -1284.243     
     63000   31500          334.58374     -535.49649      11162.047      12181.924      6401.8649      5780.0587      3149.6282      3154.0626     -1825.5211      237.46226      1094.2009      3705.311      -3735.0851     -220.24632      130591.5       50.734685      50.734685      50.734685      0.52999999    -327.4713      -771.31716     -507.70101    
     64000   32000          347.74933     -490.00143      11602.417      12535.646      6653.7731      5881.8729      3110.0944      3212.3007     -1741.9991      244.43577      1096.022       3696.908      -3735.8889     -220.24632      130591.5       50.734685      50.734685      50.734685      0.52999999    -129.90533     -1006.446      -333.65291    
     65000   32500          343.78636     -103.10822      12224.285      12420.659      6577.9463      5842.7132      3205.1528      3137.2275     -1820.3013      239.8607       1115.0459      3699.7968     -3734.0692     -220.24632      130591.5       50.734685      50.734685      50.734685      0.52999999    -274.90051     -875.82142      841.39727    
     66000   33000          341.28977     -390.42566      11549.647      12293.229      6530.1769      5763.0524      3146.9581      3134.5879     -1844.6264      244.0109       1131.1522      3693.4727     -3742.5028     -220.24632      130591.5       50.734685      50.734685      50.734685      0.52999999    -735.62945     -642.887        207.23948    
     67000   33500          346.92565      226.50237      12942.829      12511.445      6638.0128      5873.4326      3180.6048      3224.0443     -1835.4924      248.96948      1102.8586      3690.3437     -3737.8959     -220.24632      130591.5       50.734685      50.734685      50.734685      0.52999999     202.50584      96.130619      380.87066    
     68000   34000          342.98557      891.13291      14119.072      12421.871      6562.624       5859.2474      3218.74        3162.6889     -1851.6267      244.61142      1118.3007      3699.8737     -3733.3406     -220.24632      130591.5       50.734685      50.734685      50.734685      0.52999999     542.45795      1399.4108      731.53001    
     69000   34500          343.78777     -388.37546      11713.63       12453.308      6577.9732      5875.3349      3066.3075      3238.4855     -1788.3845      241.25904      1154.9304      3695.1908     -3732.4538     -220.24632      130591.5       50.734685      50.734685      50.734685      0.52999999    -632.47264     -497.64581     -35.007908    
     70000   35000          346.84808     -57.229514      12516.368      12625.364      6636.5287      5988.8358      3237.8245      3223.518      -1824.1656      245.80795      1138.2495      3703.9837     -3736.3823     -220.24632      130591.5       50.734685      50.734685      50.734685      0.52999999     951.83511     -29.222141     -1094.3015    
     71000   35500          350.06813     -59.901705      12534.174      12648.259      6698.1404      5950.119       3238.0511      3171.4172     -1827.6976      238.09268      1152.2816      3710.9702     -3732.9961     -220.24632      130591.5       50.734685      50.734685      50.734685      0.52999999    -318.78705     -85.521408      224.60334    
     72000   36000          344.34863     -311.67646      11855.696      12449.298      6588.7046      5860.5929      3234.0948      3092.9744     -1820.1391      233.1842       1158.1258      3697.3483     -3734.9955     -220.24632      130591.5       50.734685      50.734685      50.734685      0.52999999    -477.68833      50.75004      -508.0911     
     73000   36500          347.06516      80.072529      12687.609      12535.108      6640.6822      5894.4256      3210.2155      3119.9685     -1830.2025      245.51399      1177.0042      3701.7175     -3729.7915     -220.24632      130591.5       50.734685      50.734685      50.734685      0.52999999     806.22216      455.03655     -1021.0411    
     74000   37000          353.52171     -432.46778      11968.136      12791.789      6764.2206      6027.5688      3219.6763      3271.8541     -1818.0236      246.67529      1133.0246      3707.0391     -3732.6769     -220.24632      130591.5       50.734685      50.734685      50.734685      0.52999999     243.89095     -991.7604      -549.5339     
     75000   37500          346.95005     -976.55504      10841.702      12701.593      6638.4797      6063.1136      3174.266       3287.6282     -1755.6591      238.79134      1145.0945      3706.6035     -3733.6108     -220.24632      130591.5       50.734685      50.734685      50.734685      0.52999999    -1594.3978     -940.4018      -394.8655     
     76000   38000          347.76852     -823.49942      10956.543      12524.933      6654.1402      5870.7931      3165.9062      3217.0589     -1814.6519      240.54381      1079.5155      3715.4158     -3732.9953     -220.24632      130591.5       50.734685      50.734685      50.734685      0.52999999    -1049.8284     -44.169261     -1376.5006    
     77000   38500          348.28081      183.14139      12894.023      12545.223      6663.9423      5881.2803      3206.5607      3157.9689     -1825.4496      235.4749       1142.3542      3703.2088     -3738.8377     -220.24632      130591.5       50.734685      50.734685      50.734685      0.52999999     492.98948     -469.22887      525.66356    
     78000   39000          349.69557     -268.25124      12163.102      12673.998      6691.012       5982.9855      3195.6886      3250.1653     -1794.9649      242.12929      1112.9669      3712.1035     -3735.1032     -220.24632      130591.5       50.734685      50.734685      50.734685      0.52999999    -410.79148     -443.8604       49.898151    
     79000   39500          353.03264     -428.69921      12013.852      12830.328      6754.8629      6075.4653      3269.9952      3328.7852     -1831.607       228.43134      1093.1063      3718.4541     -3731.6999     -220.24632      130591.5       50.734685      50.734685      50.734685      0.52999999    -620.34639      1.8580057     -667.60925    
     80000   40000          354.72215     -190.36162      12295.345      12657.897      6787.1897      5870.7075      3180.5501      3169.7732     -1776.2282      246.59857      1071.9308      3714.0265     -3735.9434     -220.24632      130591.5       50.734685      50.734685      50.734685      0.52999999    -447.12305     -131.93046      7.9686567    
     81000   40500          356.98558     -6.2373021      12975.994      12987.874      6830.4978      6157.3758      3316.9017      3245.1759     -1754.7386      249.33847      1124.207       3712.505      -3736.0137     -220.24632      130591.5       50.734685      50.734685      50.734685      0.52999999    -269.64294      398.48587     -147.55484    
     82000   41000          353.43194     -180.75488      12372.898      12717.154      6762.503       5954.6508      3280.4608      3250.8657     -1832.5801      234.94431      1052.7725      3704.9993     -3736.8117     -220.24632      130591.5       50.734685      50.734685      50.734685      0.52999999    -535.97165     -23.588478      17.295479    
     83000   41500          347.71033     -658.66166      11428.821      12683.271      6653.0269      6030.2441      3233.7901      3237.4704     -1754.6112      239.08132      1111.9105      3698.4859     -3735.883      -220.24632      130591.5       50.734685      50.734685      50.734685      0.52999999    -579.05976     -317.31456     -1079.6107    
     84000   42000          356.15481     -745.48318      11461.853      12881.658      6814.6019      6067.0561      3254.5747      3237.5993     -1698.068       248.33733      1076.7939      3692.7652     -3744.9464     -220.24632      130591.5       50.734685      50.734685      50.734685      0.52999999    -1137.8599     -766.82627     -331.76341    
     85000   42500          359.87469     -579.14189      11795.969      12898.969      6885.7774      6013.1921      3182.175       3233.696      -1713.3066      252.26366      1092.421       3706.9577     -3741.0148     -220.24632      130591.5       50.734685      50.734685      50.734685      0.52999999    -566.52193     -862.17783     -308.72592    
     86000   43000          367.3462      -735.19202      11565.812      12966.017      7028.7359      5937.2815      3196.7126      3204.6977     -1750.5695      242.75672      1077.2425      3701.8327     -3735.3914     -220.24632      130591.5       50.734685      50.734685      50.734685      0.52999999    -793.59035     -1089.2561     -322.72965    
     87000   43500          356.05363      378.38945      13516.543      12795.884      6812.666       5983.218       3268.3487      3235.5118     -1841.171       237.87171      1113.5731      3707.1258     -3738.0421     -220.24632      130591.5       50.734685      50.734685      50.734685      0.52999999     579.64168      68.403309      487.12337    
     88000   44000          361.52963     -46.966885      12909.443      12998.893      6917.4427      6081.4502      3268.2588      3258.9605     -1754.3828      246.08         1093.6649      3705.5542     -3736.6855     -220.24632      130591.5       50.734685      50.734685      50.734685      0.52999999     232.39986      451.64068     -824.9412     
     89000   44500          354.37847      55.358224      13071.467      12966.035      6780.6138      6185.4211      3326.6753      3270.4962     -1743.5639      267.81698      1093.4997      3706.4487     -3735.9519     -220.24632      130591.5       50.734685      50.734685      50.734685      0.52999999     583.76237     -187.42504     -230.26267    
     90000   45000          363.81752     -431.1731       12188.103      13009.291      6961.2189      6048.0723      3263.0202      3321.2464     -1771.5017      239.6896       1036.3712      3698.9034     -3739.6567     -220.24632      130591.5       50.734685      50.734685      50.734685      0.52999999    -738.45609      440.95705     -996.02025    
     91000   45500          358.91907     -78.599825      12802.473      12952.169      6867.4927      6084.6767      3181.0435      3289.5239     -1723.4737      254.48313      1111.7008      3708.7303     -3737.3311     -220.24632      130591.5       50.734685      50.734685      50.734685      0.52999999     107.86953     -115.88983     -227.77918    
     92000   46000          363.95181     -568.68595      11890.174      12973.261      6963.7882      6009.4726      3193.2306      3261.4647     -1734.4151      250.65158      1076.6224      3700.2193     -3738.3009     -220.24632      130591.5       50.734685      50.734685      50.734685      0.52999999    -530.84898     -619.74939     -555.45948    
     93000   46500          366.10429      650.64553      14344.155      13104.973      7004.9735      6099.9991      3391.8147      3193.5392     -1800.6953      249.61367      1091.7605      3713.4046     -3739.4383     -220.24632      130591.5       50.734685      50.734685      50.734685      0.52999999     196.12534      1330.0874      425.72382    
     94000   47000          363.0564      -380.41691      12382.705      13107.226      6946.6556      6160.5701      3264.7669      3355.8662     -1766.8773      247.32052      1103.5577      3696.5244     -3740.5883     -220.24632      130591.5       50.734685      50.734685      50.734685      0.52999999    -519.17809     -140.32971     -481.74293    
     95000   47500          359.05138      94.399427      13205.881      13026.093      6870.0243      6156.069       3298.4502      3263.7619     -1783.7993      261.61865      1153.723       3702.0494     -3739.7348     -220.24632      130591.5       50.734685      50.734685      50.734685      0.52999999     877.66931     -863.34832      268.8773     
     96000   48000          364.27149     -947.06822      11335.367      13139.099      6969.905       6169.194       3263.5086      3283.4479     -1660.5651      249.48631      1065.6461      3707.9996     -3740.3294     -220.24632      130591.5       50.734685      50.734685      50.734685      0.52999999    -2627.6748     -242.89742      29.367505    
     97000   48500          359.14919     -119.64714      12840.786      13068.659      6871.8958      6196.7635      3278.51        3311.2274     -1769.7026      262.50962      1156.9396      3700.5464     -3743.267      -220.24632      130591.5       50.734685      50.734685      50.734685      0.52999999     1012.0406     -992.15858     -378.82339    
     98000   49000          365.79909     -328.98293      12538.415      13164.977      6999.1338      6165.8437      3319.9257      3239.7324     -1762.1782      247.04458      1164.5412      3692.1586     -3735.3806     -220.24632      130591.5       50.734685      50.734685      50.734685      0.52999999    -1204.0348     -233.34853      450.43453    
     99000   49500          366.04158     -867.99361      11569.563      13222.694      7003.7735      6218.9203      3325.4314      3287.6588     -1705.7232      250.00237      1104.8298      3696.4733     -3739.7521     -220.24632      130591.5       50.734685      50.734685      50.734685      0.52999999    -1283.3584     -91.214716     -1229.4077    
    100000   50000          364.35959      765.438        14741.821      13284.012      6971.5907      6312.4208      3379.8577      3363.6603     -1825.2031      248.11395      1178.4578      3707.0454     -3739.5112     -220.24632      130591.5       50.734685      50.734685      50.734685      0.52999999     1619.4398      805.70912     -128.83488    
    101000   50500          364.35181      134.33642      13355.395      13099.546      6971.4418      6128.1039      3193.3228      3290.6581     -1702.467       241.81524      1134.8348      3705.696      -3735.7561     -220.24632      130591.5       50.734685      50.734685      50.734685      0.52999999     327.84002      818.34191     -743.17267    
    102000   51000          365.21119      101.15702      13418.872      13226.214      6987.885       6238.3292      3292.6177      3302.1179     -1731.5319      251.15281      1151.8901      3708.1381     -3736.0555     -220.24632      130591.5       50.734685      50.734685      50.734685      0.52999999     17.93399      -532.47138      818.00845    
    103000   51500          368.53591      27.221148      13367.407      13315.563      7051.4996      6264.0638      3341.417       3296.0799     -1732.6587      266.04494      1125.2046      3707.4417     -3739.4656     -220.24632      130591.5       50.734685      50.734685      50.734685      0.52999999     194.80678     -923.69681      810.55347    
    104000   52000          362.83227     -88.204721      13003.408      13171.398      6942.3673      6229.0305      3238.5068      3239.0575     -1625.3653      253.63593      1151.3301      3710.6266     -3738.7611     -220.24632      130591.5       50.734685      50.734685      50.734685      0.52999999    -309.20871     -307.67864      352.27319    
    105000   52500          369.09048     -214.47321      12962.738      13371.211      7062.1108      6309.1007      3350.5613      3323.0827     -1683.41        254.47344      1075.6029      3721.2173     -3732.4268     -220.24632      130591.5       50.734685      50.734685      50.734685      0.52999999    -44.485416     -652.85747      53.923267    
    106000   53000          373.32268      1081.4482      15454.331      13394.667      7143.0888      6251.5778      3382.6327      3292.1844     -1791.2187      262.13844      1142.2514      3701.8498     -3738.2603     -220.24632      130591.5       50.734685      50.734685      50.734685      0.52999999     2537.4568      680.86295      26.024879    
    107000   53500          373.06378     -302.10921      12789.821      13365.201      7138.1352      6227.0657      3298.2869      3319.8239     -1734.3431      248.7119       1140.0622      3695.4416     -3740.9177     -220.24632      130591.5       50.734685      50.734685      50.734685      0.52999999     144.98504     -475.87955     -575.43311    
    108000   54000          367.7876      -457.68644      12331.961      13203.645      7037.1817      6166.4632      3303.6311      3302.1056     -1717.1236      249.20221      1055.2721      3712.443      -3739.0672     -220.24632      130591.5       50.734685      50.734685      50.734685      0.52999999    -81.422365     -825.8801      -465.75685    
    109000   54500          369.12896     -903.63785      11596.273      13317.29       7062.847       6254.4434      3355.4844      3260.9956     -1656.8697      268.03832      1061.4562      3710.3509     -3745.0123     -220.24632      130591.5       50.734685      50.734685      50.734685      0.52999999    -862.32383     -405.28791     -1443.3018    
    110000   55000          371.72996     -357.24304      12582.706      13263.091      7112.6141      6150.4766      3293.9945      3310.4817     -1768.3392      253.13881      1097.3517      3708.5382     -3744.6891     -220.24632      130591.5       50.734685      50.734685      50.734685      0.52999999    -234.04336      74.871189     -912.55696    
    111000   55500          372.66398      82.016456      13694.118      13537.914      7130.4854      6407.4289      3349.5092      3379.6779     -1690.6078      260.15953      1133.556       3716.6103     -3741.4762     -220.24632      130591.5       50.734685      50.734685      50.734685      0.52999999     1035.9289     -298.12797     -491.75151    
    112000   56000          371.08081      237.51993      13840.373      13388.006      7100.1933      6287.8128      3296.3577      3357.3954     -1725.9376      262.96588      1121.1061      3713.7524     -3737.8272     -220.24632      130591.5       50.734685      50.734685      50.734685      0.52999999     789.58963     -12.198432     -64.831398    
    113000   56500          374.04472     -40.811587      13378.374      13456.102      7156.9042      6299.1975      3383.1918      3317.5369     -1757.1911      252.52439      1129.1645      3714.7431     -3740.7721     -220.24632      130591.5       50.734685      50.734685      50.734685      0.52999999    -85.492338     -24.83767      -12.104754    
    114000   57000          371.81954     -893.99061      11909.535      13612.178      7114.328       6497.8503      3466.5543      3396.8793     -1691.5057      273.48636      1086.3212      3707.2987     -3741.1839     -220.24632      130591.5       50.734685      50.734685      50.734685      0.52999999    -1010.2999     -745.04691     -926.62502    
    115000   57500          380.66285     -792.45773      12021.001      13530.27       7283.5344      6246.7361      3436.3259      3256.8506     -1788.118       249.17226      1128.4058      3703.7092     -3739.6096     -220.24632      130591.5       50.734685      50.734685      50.734685      0.52999999    -232.94287     -788.71185     -1355.7185    
    116000   58000          376.66912     -473.48999      12619.07       13520.852      7207.1191      6313.7334      3369.3304      3340.3387     -1733.2623      256.48406      1112.2832      3714.747      -3746.1876     -220.24632      130591.5       50.734685      50.734685      50.734685      0.52999999    -382.31025     -434.67843     -603.48128    
    117000   58500          380.7513      -804.51758      12213.115      13745.353      7285.2267      6460.1263      3458.5151      3370.4922     -1715.8256      258.14252      1100.3036      3722.0915     -3733.5931     -220.24632      130591.5       50.734685      50.734685      50.734685      0.52999999    -1101.5453      48.918037     -1360.9255    
    118000   59000          379.5836      -578.05474      12477.652      13578.583      7262.8842      6315.6983      3316.055       3340.2815     -1685.2158      254.72444      1126.5999      3702.2652     -3739.0119     -220.24632      130591.5       50.734685      50.734685      50.734685      0.52999999    -1130.8237     -216.10726     -387.23325    
    119000   59500          374.6386      -1063.2079      11533.585      13558.51       7168.2674      6390.2429      3412.6763      3329.9002     -1665.2363      249.19235      1091.5045      3713.0647     -3740.8589     -220.24632      130591.5       50.734685      50.734685      50.734685      0.52999999    -1102.6929     -774.51912     -1312.4116    
    120000   60000          380.08744     -625.24016      12541.892      13732.689      7272.5245      6460.1645      3495.2587      3342.95       -1718.7139      255.05161      1113.0992      3707.471      -3734.9521     -220.24632      130591.5       50.734685      50.734685      50.734685      0.52999999    -680.96068     -535.77719     -658.98263    
    121000   60500          384.29124     -831.53954      12250.041      13833.744      7352.9593      6480.7848      3456.5374      3333.0005     -1651.5315      260.62235      1115.5728      3701.3014     -3734.718      -220.24632      130591.5       50.734685      50.734685      50.734685      0.52999999    -625.89206     -1400.7961     -467.93047    
    122000   61000          378.99452      1.8333077      13599.552      13596.061      7251.6128      6344.4479      3379.7144      3304.2617     -1710.5359      253.78083      1136.4672      3719.0194     -3738.2597     -220.24632      130591.5       50.734685      50.734685      50.734685      0.52999999     247.34553      492.42882     -734.27442    
    123000   61500          381.26328      5.41838        13782.063      13771.743      7295.0228      6476.7203      3463.7936      3410.0742     -1785.5834      269.8621       1155.791       3702.8405     -3740.0577     -220.24632      130591.5       50.734685      50.734685      50.734685      0.52999999    -224.89098     -530.53426      771.68038    
    124000   62000          377.24336     -377.55659      12981.011      13700.083      7218.1065      6481.9769      3395.8136      3368.1806     -1594.8278      268.60641      1092.5967      3696.0337     -3744.4262     -220.24632      130591.5       50.734685      50.734685      50.734685      0.52999999    -734.98875     -677.64202      279.96099    
    125000   62500          380.16879     -1096.2061      11698.16       13785.931      7274.0811      6511.8502      3313.0684      3466.8228     -1625.6746      256.59246      1141.9218      3701.1303     -3742.011      -220.24632      130591.5       50.734685      50.734685      50.734685      0.52999999    -1117.1628     -917.61434     -1253.8413    
    126000   63000          381.89847     -524.99702      12794.778      13794.658      7307.1765      6487.4812      3412.308       3341.2349     -1585.1523      258.69862      1092.5597      3712.8456     -3745.0134     -220.24632      130591.5       50.734685      50.734685      50.734685      0.52999999    -742.53732      342.82139     -1175.2751    
    127000   63500          384.85977      31.963743      13758.244      13697.368      7363.8375      6333.5304      3389.5191      3308.279      -1725.8854      256.919        1132.9456      3710.9436     -3739.1905     -220.24632      130591.5       50.734685      50.734685      50.734685      0.52999999    -204.18792     -349.79168      649.87083    
    128000   64000          379.87241     -386.17388      13095.48       13830.964      7268.4103      6562.5542      3535.3889      3329.1014     -1673.9301      274.22652      1124.1667      3715.9838     -3742.3831     -220.24632      130591.5       50.734685      50.734685      50.734685      0.52999999     211.5572      -772.6312      -597.44764    
    129000   64500          377.99031     -580.06173      12825.186      13929.939      7232.3984      6697.5402      3529.4735      3384.2061     -1644.6682      263.51801      1185.6342      3712.9527     -3733.5762     -220.24632      130591.5       50.734685      50.734685      50.734685      0.52999999    -34.968407     -660.22565     -1044.9912    
    130000   65000          386.52247      201.03901      14420.071      14037.184      7395.6512      6641.5326      3444.2494      3438.5824     -1663.8363      269.07271      1182.7388      3707.3365     -3736.6109     -220.24632      130591.5       50.734685      50.734685      50.734685      0.52999999     390.46407      179.28319      33.369774    
    131000   65500          381.33921     -142.00286      13528.731      13799.182      7296.4757      6502.7058      3514.8753      3323.6086     -1663.7331      258.40003      1098.8743      3710.7979     -3740.1171     -220.24632      130591.5       50.734685      50.734685      50.734685      0.52999999    -249.40197      447.84286     -624.44948    
    132000   66000          382.78828     -630.10354      12848.462      14048.522      7324.202       6724.3197      3478.5058      3496.971      -1593.3005      285.26514      1087.5957      3713.2683     -3743.9857     -220.24632      130591.5       50.734685      50.734685      50.734685      0.52999999    -581.27599     -320.78593     -988.24869    
    133000   66500          392.08474     -57.023274      13986.18       14094.784      7502.0788      6592.7049      3513.8447      3412.0389     -1715.2681      266.24873      1146.7054      3711.3704     -3742.235      -220.24632      130591.5       50.734685      50.734685      50.734685      0.52999999     346.61853      473.87569     -991.56404    
    134000   67000          384.34914     -999.25684      12037.932      13941.059      7354.0672      6586.9921      3464.6133      3371.0959     -1634.3414      269.77211      1133.6668      3717.9971     -3735.8117     -220.24632      130591.5       50.734685      50.734685      50.734685      0.52999999    -467.55235     -593.94642     -1936.2717    
    135000   67500          391.53451     -199.55531      13788.188      14168.249      7491.5507      6676.6986      3542.5372      3417.5272     -1645.9311      269.03119      1115.7279      3716.4294     -3738.6231     -220.24632      130591.5       50.734685      50.734685      50.734685      0.52999999    -432.88928      37.096023     -202.87268    
    136000   68000          387.54432     -1085.3         12061.541      14128.541      7415.2032      6713.3378      3535.8299      3355.6753     -1561.3216      274.63753      1147.5431      3703.9414     -3742.968      -220.24632      130591.5       50.734685      50.734685      50.734685      0.52999999    -1008.7722     -927.15283     -1319.9748    
    137000   68500          391.95007      176.19917      14496.997      14161.418      7499.5021      6661.9156      3482.5122      3342.9592     -1611.9154      279.87928      1197.3553      3709.6918     -3738.5668     -220.24632      130591.5       50.734685      50.734685      50.734685      0.52999999    -427.1698       234.52842      721.2389     
    138000   69000          389.48307     -1156.4208      12002.044      14204.497      7452.2989      6752.1978      3594.0633      3474.3407     -1646.9595      276.5385       1105.5736      3692.849      -3744.2077     -220.24632      130591.5       50.734685      50.734685      50.734685      0.52999999    -1556.4037     -1362.1856     -550.67302    
    139000   69500          388.79828      815.89522      15602.398      14048.49       7439.1961      6609.2938      3600.2178      3385.3374     -1757.0035      268.68301      1153.5081      3700.8786     -3742.3275     -220.24632      130591.5       50.734685      50.734685      50.734685      0.52999999     1049.8506      690.60928      707.2258     
    140000   70000          393.62119     -1141.6504      12112.876      14287.198      7531.4768      6755.7211      3518.6338      3430.5481     -1518.5398      272.5227       1076.5417      3712.6708     -3736.6561     -220.24632      130591.5       50.734685      50.734685      50.734685      0.52999999    -1261.0388     -1546.3486     -617.56389    
    141000   70500          392.98028     -147.09988      13864.164      14144.322      7519.2139      6625.1078      3527.57        3420.5171     -1665.5679      269.26338      1111.5972      3702.4642     -3740.7361     -220.24632      130591.5       50.734685      50.734685      50.734685      0.52999999    -275.06106     -326.84867      160.61008    
    142000   71000          402.0338      -993.55825      12481.001      14373.276      7692.4423      6680.8334      3541.5177      3369.0796     -1570.2176      281.24744      1093.8787      3709.0203     -3743.6927     -220.24632      130591.5       50.734685      50.734685      50.734685      0.52999999    -1458.7529     -1167.9832     -353.93867    
    143000   71500          392.44779     -691.22829      12867.63       14184.104      7509.0253      6675.0792      3542.2739      3399.4517     -1613.4286      268.43989      1116.9979      3703.8023     -3742.458      -220.24632      130591.5       50.734685      50.734685      50.734685      0.52999999    -373.94416     -671.58859     -1028.1521    
    144000   72000          388.05919     -165.05936      13785.438      14099.801      7425.0546      6674.746       3576.4582      3432.1707     -1661.2741      282.93344      1083.6018      3703.3992     -3742.5433     -220.24632      130591.5       50.734685      50.734685      50.734685      0.52999999     2.3949616     -788.78264      291.2096     
    145000   72500          398.83388      225.66867      14882.284      14452.489      7631.2155      6821.273       3620.0467      3463.6189     -1700.4482      265.77883      1212.9253      3700.8682     -3741.5167     -220.24632      130591.5       50.734685      50.734685      50.734685      0.52999999     230.72516      903.4258      -457.14495    
    146000   73000          391.70119     -349.02838      13527.664      14192.403      7494.7399      6697.6635      3484.9401      3424.9429     -1606.5808      265.71212      1171.0573      3701.0461     -3743.4543     -220.24632      130591.5       50.734685      50.734685      50.734685      0.52999999    -775.67491     -0.35620489    -271.05402    
    147000   73500          398.00256     -329.73655      13847.699      14475.697      7615.3093      6860.3876      3599.6636      3453.2413     -1584.9568      273.34891      1163.6624      3695.4434     -3740.0152     -220.24632      130591.5       50.734685      50.734685      50.734685      0.52999999    -508.1543      -267.72041     -213.33494    
    148000   74000          393.01204     -559.85819      13169.015      14235.289      7519.8214      6715.4674      3603.5551      3416.9988     -1671.1449      262.82129      1133.8196      3709.0491     -3739.6316     -220.24632      130591.5       50.734685      50.734685      50.734685      0.52999999    -435.98578     -1307.8556      64.266771    
    149000   74500          392.9437       260.0133       14778.089      14282.883      7518.5139      6764.3688      3593.8361      3521.4919     -1700.3467      258.52622      1122.8223      3709.7537     -3741.7148     -220.24632      130591.5       50.734685      50.734685      50.734685      0.52999999     303.80122      184.11133      292.12736    
    150000   75000          398.05288      358.72356      15087.467      14404.263      7616.2719      6787.9909      3641.08        3488.021      -1697.8764      267.87034      1129.9744      3703.7806     -3744.859      -220.24632      130591.5       50.734685      50.734685      50.734685      0.52999999     0.97206275     570.20664      504.99197    
[...]
    455000   227500         604.08801      396.50641      23105.904      22350.74       11558.511      10792.229      5092.8204      4548.3391     -893.07543      382.25561      1694.4418      3696.4533     -3729.0056     -220.24632      130591.5       50.734685      50.734685      50.734685      0.52999999    -273.75644      987.96829      475.30738    
    456000   228000         594.49157      657.81687      23179.456      21926.616      11374.894      10551.721      4932.2056      4494.025      -921.62767      380.99801      1701.6253      3689.1026     -3724.6073     -220.24632      130591.5       50.734685      50.734685      50.734685      0.52999999     767.22982     -541.70627      1747.9271    
    457000   228500         598.98005      300.78914      22972.882      22400.016      11460.776      10939.24       5162.2928      4544.1311     -898.5308       393.77546      1754.9725      3703.0068     -3720.4083     -220.24632      130591.5       50.734685      50.734685      50.734685      0.52999999    -274.05818      177.64199      998.78361    
    458000   229000         606.11385      51.213958      22293.664      22196.125      11597.273      10598.852      4868.1259      4424.9044     -770.39991      406.03476      1707.0116      3686.492      -3723.317      -220.24632      130591.5       50.734685      50.734685      50.734685      0.52999999     550.64864     -1213.978       816.9712     
    459000   229500         595.05625     -602.23386      21059.872      22206.853      11385.699      10821.154      4980.156       4581.9194     -794.21156      398.35683      1682.3036      3694.5452     -3721.9158     -220.24632      130591.5       50.734685      50.734685      50.734685      0.52999999    -1614.4396     -480.3587       288.09673    
    460000   230000         611.20084     -277.92197      22120.381      22649.695      11694.607      10955.089      5065.1914      4528.4835     -758.60674      398.17065      1752.0948      3689.9452     -3720.1901     -220.24632      130591.5       50.734685      50.734685      50.734685      0.52999999    -955.56437     -207.06566      328.86412    
    461000   230500         599.49444     -1519.7566      19416.552      22310.994      11470.619      10840.375      5062.6168      4567.3576     -809.76762      388.02299      1664.5543      3690.7023     -3723.1114     -220.24632      130591.5       50.734685      50.734685      50.734685      0.52999999    -1893.286      -1905.7959     -760.18802    
    462000   231000         600.11941      276.24343      22978.391      22452.274      11482.577      10969.697      5065.3071      4611.5129     -852.34263      396.92441      1778.0559      3692.5401     -3722.3006     -220.24632      130591.5       50.734685      50.734685      50.734685      0.52999999     1614.2925     -1580.7079      795.14562    
    463000   231500         613.41914     -1312.5396      20009.694      22509.482      11737.051      10772.431      4979.1585      4441.1562     -771.1848       395.09129      1763.917       3684.5735     -3720.2811     -220.24632      130591.5       50.734685      50.734685      50.734685      0.52999999    -1382.017      -1933.8309     -621.77097    
    464000   232000         606.12306     -149.19264      22059.609      22343.753      11597.449      10746.304      5056.1251      4456.1669     -853.09398      390.85199      1732.9484      3685.7022     -3722.3968     -220.24632      130591.5       50.734685      50.734685      50.734685      0.52999999     68.649621     -934.85499      418.62745    
    465000   232500         614.15805     -746.18785      21001.938      22423.085      11751.189      10671.895      4953.504       4444.8379     -784.01683      394.54188      1682.4323      3700.2664     -3719.6703     -220.24632      130591.5       50.734685      50.734685      50.734685      0.52999999    -875.38807     -1295.4392     -67.73629     
    466000   233000         616.82025     -1316.853       20128.58       22636.583      11802.127      10834.456      5062.9715      4459.4063     -768.71016      385.9692       1727.5312      3691.4503     -3724.1627     -220.24632      130591.5       50.734685      50.734685      50.734685      0.52999999    -1534.0872     -1795.8914     -620.58035    
    467000   233500         609.30004     -424.66138      21469.08       22277.866      11658.237      10619.629      5081.0974      4453.1114     -946.06825      378.78608      1685.033       3691.3196     -3723.65       -220.24632      130591.5       50.734685      50.734685      50.734685      0.52999999    -444.01719      248.75296     -1078.7199    
    468000   234000         603.49801     -267.47149      22111.041      22620.451      11547.222      11073.229      5147.2264      4603.9259     -757.97787      408.43216      1701.0992      3691.1556     -3720.632      -220.24632      130591.5       50.734685      50.734685      50.734685      0.52999999     949.18592     -490.27337     -1261.327     
    469000   234500         607.20634     -180.16646      22298.382      22641.516      11618.177      11023.34       5013.949       4586.2963     -728.53643      408.67223      1771.8669      3686.4677     -3715.3759     -220.24632      130591.5       50.734685      50.734685      50.734685      0.52999999     69.779387     -657.31662      47.037859    
    470000   235000         604.07897      1498.6438      25211.81       22357.578      11558.338      10799.24       5116.7143      4536.6346     -996.22111      408.69286      1764.172       3682.3773     -3713.13       -220.24632      130591.5       50.734685      50.734685      50.734685      0.52999999     641.85054      2077.1664      1776.9145    
    471000   235500         609.01799     -469.20719      21656.289      22549.914      11652.84       10897.074      5052.6878      4487.8618     -747.00318      381.63359      1743.8415      3699.267      -3721.2148     -220.24632      130591.5       50.734685      50.734685      50.734685      0.52999999    -81.451574     -1414.4213      88.2513      
    472000   236000         611.32958     -233.00766      22524.681      22968.454      11697.07       11271.384      5101.4155      4795.1822     -789.72823      399.15329      1794.4331      3687.2896     -3716.3613     -220.24632      130591.5       50.734685      50.734685      50.734685      0.52999999    -1193.4895      195.69302      298.7735     
    473000   236500         610.75246     -777.79747      21271.066      22752.415      11686.027      11066.387      5075.1106      4641.1355     -816.14294      411.83594      1765.3769      3697.7313     -3708.66       -220.24632      130591.5       50.734685      50.734685      50.734685      0.52999999    -799.75705     -597.94671     -935.68865    
    474000   237000         607.59594     -1599.6328      19631.639      22678.208      11625.631      11052.577      5046.8222      4671.4795     -795.77134      402.40452      1746.0962      3696.7216     -3715.1756     -220.24632      130591.5       50.734685      50.734685      50.734685      0.52999999    -1757.6905     -1660.1086     -1381.0994    
    475000   237500         621.5284      -1368.7707      20153.293      22760.175      11892.212      10867.963      5098.9796      4466.7733     -764.79011      403.07401      1678.6927      3699.989      -3714.7555     -220.24632      130591.5       50.734685      50.734685      50.734685      0.52999999    -1568.4653     -1657.4012     -880.44546    
    476000   238000         609.95344     -554.26087      21577.422      22633.035      11670.739      10962.296      5004.168       4545.3132     -735.58565      392.83276      1778.7463      3694.7783     -3717.9566     -220.24632      130591.5       50.734685      50.734685      50.734685      0.52999999    -228.93833     -622.29966     -811.54462    
    477000   238500         618.95878     -1037.5394      21042.777      23018.816      11843.046      11175.77       5136.094       4586.4327     -700.7821       419.75773      1754.3551      3694.3728     -3714.4602     -220.24632      130591.5       50.734685      50.734685      50.734685      0.52999999    -1376.8439     -1471.4608     -264.3135     
    478000   239000         614.44843     -553.19438      21568.755      22622.338      11756.746      10865.592      5049.2476      4611.8451     -808.74705      405.59909      1628.9894      3696.9291     -3718.2707     -220.24632      130591.5       50.734685      50.734685      50.734685      0.52999999    -169.83958      634.2205      -2123.9641    
    479000   239500         620.32882      628.07196      24041.379      22845.189      11869.26       10975.929      5071.6851      4577.0388     -764.68647      409.61816      1706.0752      3695.156      -3718.9573     -220.24632      130591.5       50.734685      50.734685      50.734685      0.52999999     1217.8363     -518.19789      1184.5775    
    480000   240000         611.25853     -313.92501      22105.501      22703.385      11695.71       11007.675      5179.5326      4577.1513     -823.88941      415.67066      1692.1598      3694.2278     -3727.1783     -220.24632      130591.5       50.734685      50.734685      50.734685      0.52999999     1176.9005      11.02186      -2129.6974    
    481000   240500         612.98277      9.4673044      22710.645      22692.615      11728.702      10963.913      4959.0829      4666.4883     -756.59558      416.52502      1706.6886      3694.5233     -3722.7998     -220.24632      130591.5       50.734685      50.734685      50.734685      0.52999999     24.673026     -271.27206      275.00095    
    482000   241000         618.87976     -588.21316      21741.192      22861.47       11841.534      11019.936      5094.8072      4662.4242     -774.1021       402.75565      1652.4157      3703.813      -3722.1776     -220.24632      130591.5       50.734685      50.734685      50.734685      0.52999999     789.93105     -1541.335      -1013.2355    
    483000   241500         620.3692      -461.37269      21975.833      22854.537      11870.032      10984.504      5105.6237      4602.6196     -762.1416       406.14355      1652.2748      3701.3336     -3721.3492     -220.24632      130591.5       50.734685      50.734685      50.734685      0.52999999    -282.91294     -874.50426     -226.70085    
    484000   242000         621.13364     -595.06381      21929.233      23062.558      11884.659      11177.899      5105.426       4678.4373     -708.48397      408.61742      1706.0167      3707.909      -3720.0236     -220.24632      130591.5       50.734685      50.734685      50.734685      0.52999999    -1476.1874     -910.96423      601.96019    
    485000   242500         634.48863      402.00459      24189.411      23423.776      12140.191      11283.585      5346.7699      4641.3107     -805.78174      420.42515      1701.0513      3702.7689     -3722.959      -220.24632      130591.5       50.734685      50.734685      50.734685      0.52999999     574.24387      204.57478      427.19512    
    486000   243000         613.12852      420.68911      23582.344      22781.123      11731.491      11049.633      5174.9105      4589.6454     -847.17862      421.29998      1745.6034      3691.8387     -3726.4865     -220.24632      130591.5       50.734685      50.734685      50.734685      0.52999999     926.63384      326.22494      9.2085467    
    487000   243500         611.61263      185.31169      23135.081      22782.147      11702.486      11079.662      5116.752       4613.6589     -762.85454      439.73203      1698.3412      3691.6159     -3717.5839     -220.24632      130591.5       50.734685      50.734685      50.734685      0.52999999     15.503253     -461.86863      1002.3004    
    488000   244000         622.49663     -41.896116      23030.347      23110.14       11910.738      11199.402      5155.455       4611.3207     -673.44037      430.70897      1699.4569      3699.2755     -3723.3747     -220.24632      130591.5       50.734685      50.734685      50.734685      0.52999999    -118.97363      364.69797     -371.41269    
    489000   244500         633.5122      -482.13668      22478.858      23397.108      12121.508      11275.6        5134.1009      4680.8102     -647.17183      406.03301      1743.0792      3684.4395     -3725.6908     -220.24632      130591.5       50.734685      50.734685      50.734685      0.52999999    -1451.0292      43.562923     -38.943797    
    490000   245000         623.89476     -934.02788      21372.336      23151.232      11937.49       11213.742      5175.7213      4645.3016     -666.10849      426.01928      1672.6167      3690.958      -3730.7663     -220.24632      130591.5       50.734685      50.734685      50.734685      0.52999999    -1002.031      -802.91136     -997.14124    
    491000   245500         631.04341     -673.50898      22036.493      23319.22       12074.271      11244.949      5112.8334      4723.4593     -721.09626      408.5008       1757.4142      3693.5976     -3729.7602     -220.24632      130591.5       50.734685      50.734685      50.734685      0.52999999    -675.47558     -1930.4053      585.35389    
    492000   246000         614.45338     -304.87018      22363.113      22943.751      11756.84       11186.911      5087.8044      4713.3508     -685.98671      409.30653      1694.8424      3701.8403     -3734.247      -220.24632      130591.5       50.734685      50.734685      50.734685      0.52999999     488.64488     -155.1982      -1248.0572    
    493000   246500         614.24769     -161.76007      22641.431      22949.51       11752.905      11196.606      5073.5606      4723.9968     -690.22007      412.60257      1712.952       3693.3633     -3729.6496     -220.24632      130591.5       50.734685      50.734685      50.734685      0.52999999    -156.93331     -194.11319     -134.23371    
    494000   247000         623.65255     -357.42686      22642.782      23323.517      11932.855      11390.662      5248.9323      4772.2555     -704.80249      413.79139      1689.2128      3696.4355     -3725.1632     -220.24632      130591.5       50.734685      50.734685      50.734685      0.52999999    -864.67171      113.53287     -321.14175    
    495000   247500         635.17878      519.26251      24552.341      23563.383      12153.396      11409.987      5251.4615      4766.6134     -763.97327      411.95831      1776.9845      3694.2627     -3727.3203     -220.24632      130591.5       50.734685      50.734685      50.734685      0.52999999     571.96634      401.36574      584.45547    
    496000   248000         633.2458       445.99105      24221.89       23372.481      12116.411      11256.07       5219.7461      4701.9902     -804.39564      414.43534      1747.1572      3697.3376     -3720.2011     -220.24632      130591.5       50.734685      50.734685      50.734685      0.52999999     1375.8272     -265.72626      227.8722     
    497000   248500         635.76128      891.56589      24996.339      23298.313      12164.542      11133.771      5170.285       4699.6707     -811.50553      419.1196       1682.0373      3695.6571     -3721.4928     -220.24632      130591.5       50.734685      50.734685      50.734685      0.52999999     1945.2683      1104.1701     -374.74068    
    498000   249000         635.41376      206.67657      23752.372      23358.747      12157.892      11200.855      5199.6909      4647.1189     -760.53171      396.02103      1738.0556      3697.9606     -3717.4603     -220.24632      130591.5       50.734685      50.734685      50.734685      0.52999999    -264.38527      1104.8839     -220.46896    
    499000   249500         635.79397     -646.56257      22356.713      23588.119      12165.167      11422.952      5274.9912      4690.114      -723.45318      418.96352      1789.5996      3690.6751     -3717.9382     -220.24632      130591.5       50.734685      50.734685      50.734685      0.52999999    -167.3428      -412.25101     -1360.0939    
    500000   250000         631.21213     -186.93589      23244.64       23600.667      12077.499      11523.168      5289.6435      4770.9665     -694.07778      408.8772       1761.3473      3701.8117     -3715.4005     -220.24632      130591.5       50.734685      50.734685      50.734685      0.52999999     628.67902     -424.96551     -764.52119    
Loop time of 791.724 on 1 procs for 500000 steps with 6420 atoms

Performance: 27.282 ns/day, 0.880 hours/ns, 631.533 timesteps/s, 4.054 Matom-step/s
99.8% CPU use with 1 MPI tasks x 1 OpenMP threads

MPI task timing breakdown:
Section |  min time  |  avg time  |  max time  |%varavg| %total
---------------------------------------------------------------
Pair    | 8.1881     | 8.1881     | 8.1881     |   0.0 |  1.03
Bond    | 134.52     | 134.52     | 134.52     |   0.0 | 16.99
Kspace  | 499.25     | 499.25     | 499.25     |   0.0 | 63.06
Neigh   | 42.41      | 42.41      | 42.41      |   0.0 |  5.36
Comm    | 12.649     | 12.649     | 12.649     |   0.0 |  1.60
Output  | 5.6666     | 5.6666     | 5.6666     |   0.0 |  0.72
Modify  | 71.496     | 71.496     | 71.496     |   0.0 |  9.03
Other   |            | 17.54      |            |       |  2.22

Nlocal:           6420 ave        6420 max        6420 min
Histogram: 1 0 0 0 0 0 0 0 0 0
Nghost:          11790 ave       11790 max       11790 min
Histogram: 1 0 0 0 0 0 0 0 0 0
Neighs:              0 ave           0 max           0 min
Histogram: 1 0 0 0 0 0 0 0 0 0
FullNghs:  2.37027e+06 ave 2.37027e+06 max 2.37027e+06 min
Histogram: 1 0 0 0 0 0 0 0 0 0

Total # of neighbors = 2370272
Ave neighs/atom = 369.20125
Ave special neighs/atom = 5.8598131
Neighbor list builds = 11795
Dangerous builds = 0

# --- Cleanup ---
unfix nvt_fix

undump dump_nvt

# --- Write Output ---
write_dump all custom nvt_softheat_last.dump id type mol x y z xu yu zu vx vy vz modify sort id
write_data /home/alexzhao/PolyJarvis/data/PS4/lammps/equil/nvt_softheat/nvt_softheat_out.data
System init for write_data ...
PPPM Kokkos initialization ...
  using 12-bit tables for long-range coulomb
  G vector (1/distance) = 0.29040648
  grid = 32 32 32
  stencil order = 5
  estimated absolute RMS force accuracy = 0.00037971678
  estimated relative force accuracy = 1.1435058e-06
  using double precision cuFFT
  3d grid and FFT values/proc = 59319 32768
Generated 6 of 6 mixed pair_coeff terms from sixthpower/sixthpower mixing rule

print "STAGE COMPLETE: NVT T=300.0->630.0K steps=500000"
STAGE COMPLETE: NVT T=300.0->630.0K steps=500000
quit
17.54      |            |       |  2.22

Nlocal:           6420 ave        6420 max        6420 min
Histogram: 1 0 0 0 0 0 0 0 0 0
Nghost:          11790 ave       11790 max       11790 min
Histogram: 1 0 0 0 0 0 0 0 0 0
Neighs:              0 ave           0 max           0 min
Histogram: 1 0 0 0 0 0 0 0 0 0
FullNghs:  2.37027e+06 ave 2.37027e+06 max 2.37027e+06 min
Histogram: 1 0 0 0 0 0 0 0 0 0

Total # of neighbors = 2370272
Ave neighs/atom = 369.20125
Ave special neighs/atom = 5.8598131
Neighbor list builds = 11795
Dangerous builds = 0
System init for write_data ...
PPPM Kokkos initialization ...
  using 12-bit tables for long-range coulomb
  G vector (1/distance) = 0.29040648
  grid = 32 32 32
  stencil order = 5
  estimated absolute RMS force accuracy = 0.00037971678
  estimated relative force accuracy = 1.1435058e-06
  using double precision cuFFT
  3d grid and FFT values/proc = 59319 32768
Generated 6 of 6 mixed pair_coeff terms from sixthpower/sixthpower mixing rule
STAGE COMPLETE: NVT T=300.0->630.0K steps=500000
