units real
atom_style full
boundary p p p

# --- Force Field Styles ---
pair_style lj/class2/coul/long 9.5 9.5
kspace_style pppm 1e-6
dielectric 1.000000
bond_style class2
angle_style class2
dihedral_style class2
improper_style class2
special_bonds lj/coul 0 0 1
pair_modify mix sixthpower tail yes
neighbor 2.0 bin
neigh_modify delay 0 every 1 check yes
neigh_modify one 4000
# KOKKOS: package loaded via -pk kokkos on the command line

read_data /home/alexzhao/PolyJarvis/data/PMMA4/lammps/equil/npt_extend/npt_extend_out.data
Reading data file ...
  orthogonal box = (4.8465158 4.8465158 4.8465158) to (46.904482 46.904482 46.904482)
  1 by 1 by 1 MPI processor grid
  reading atoms ...
  7520 atoms
  reading velocities ...
  7520 velocities
  scanning bonds ...
  4 = max bonds/atom
  scanning angles ...
  17 = max angles/atom
  scanning dihedrals ...
  40 = max dihedrals/atom
  scanning impropers ...
  14 = max impropers/atom
  orthogonal box = (4.8465158 4.8465158 4.8465158) to (46.904482 46.904482 46.904482)
  1 by 1 by 1 MPI processor grid
  reading bonds ...
  7510 bonds
  reading angles ...
  14000 angles
  reading dihedrals ...
  18910 dihedrals
  reading impropers ...
  8500 impropers
Finding 1-2 1-3 1-4 neighbors ...
  special bond factors lj:    0        0        1       
  special bond factors coul:  0        0        1       
     4 = max # of 1-2 neighbors
    11 = max # of 1-3 neighbors
    15 = max # of special neighbors
  special bonds CPU = 0.004 seconds
  read_data CPU = 0.287 seconds


# --- Thermo Output ---
thermo_style custom step time temp press enthalpy etotal ke pe ebond eangle edihed eimp evdwl ecoul elong etail vol lx ly lz density pxx pyy pzz
thermo_modify flush yes
thermo 100

# --- Trajectory ---
dump dump_npt all custom 1000 /home/alexzhao/PolyJarvis/data/PMMA4/lammps/mechanical/bm_series/bm_P0/bm_P0.dump id type mol x y z ix iy iz vx vy vz

# --- Restart Checkpointing ---
restart 10000 npt_1.rst npt_2.rst

# --- Initial Velocities (optional) ---
# Velocities read from data file

# --- SHAKE Constraints ---
fix shake_fix all shake 1e-4 1000 0 m 1.008
Finding SHAKE clusters ...
      10 = # of size 2 clusters
     490 = # of size 3 clusters
    1010 = # of size 4 clusters
       0 = # of frozen angles
  find clusters CPU = 0.002 seconds

# --- NPT Thermostat + Barostat (Nose-Hoover) ---
# T_damp = 100.0 fs  (heat bath coupling)
# P_damp = 1000.0 fs  (pressure bath coupling, ~10x T_damp typical)
# Ramp: T=300.0->300.0K  P=0.0->0.0atm
timestep 1.0
fix npt_fix all npt temp 300.0 300.0 100.0 iso 0.0 0.0 1000.0

run 500000
PPPM Kokkos initialization ...
  using 12-bit tables for long-range coulomb
  G vector (1/distance) = 0.33288361
  grid = 45 45 45
  stencil order = 5
  estimated absolute RMS force accuracy = 0.00029054851
  estimated relative force accuracy = 8.749782e-07
  using double precision cuFFT
  3d grid and FFT values/proc = 140608 91125
Generated 15 of 15 mixed pair_coeff terms from sixthpower/sixthpower mixing rule
Neighbor list info ...
  update: every = 1 steps, delay = 0 steps, check = yes
  max neighbors/atom: 4000, page size: 100000
  master list distance cutoff = 11.5
  ghost atom cutoff = 11.5
  binsize = 11.5, bins = 4 4 4
  1 neighbor lists, perpetual/occasional/extra = 1 0 0
  (1) pair lj/class2/coul/long/kk, perpetual
      attributes: full, newton off, kokkos_device
      pair build: full/bin/kk/device
      stencil: full/bin/3d
      bin: kk/device
Per MPI rank memory allocation (min/avg/max) = 65 | 65 | 65 Mbytes
   Step          Time           Temp          Press         Enthalpy        TotEng         KinEng         PotEng         E_bond        E_angle        E_dihed        E_impro         E_vdwl         E_coul         E_long         E_tail         Volume           Lx             Ly             Lz          Density          Pxx            Pyy            Pzz      
         0   0              365.47415      980.36452      27073.577      26009.903      6731.4584      19278.445      2524.9021      6529.5873     -1915.0785      208.97182     -314.04684      43017.372     -30773.263     -527.57757      74395.182      42.057967      42.057967      42.057967      1.1177962      2202.8039     -580.25339      1318.543     
       100   100            305.6987      -88.204741      24747.523      24843.164      5630.4886      19212.675      2516.7965      6566.4891     -1921.7249      194.60083     -412.97995      43038.034     -30768.54      -527.90264      74349.371      42.049332      42.049332      42.049332      1.1184849     -147.66228     -858.66827      741.71633    
       200   200            298.55798      1403.6445      26274.257      24753.339      5498.9678      19254.371      2412.2378      6591.8426     -1895.4194      199.84166     -331.68117      43044.738     -30767.188     -528.2729       74297.261      42.039506      42.039506      42.039506      1.1192694      1868.8346      2243.166       98.932856    
       300   300            300.23796     -312.36016      24398.601      24737.319      5529.9105      19207.409      2498.8475      6522.9822     -1897.9877      206.96138     -394.1651       43035.105     -30764.335     -527.86659      74354.448      42.050289      42.050289      42.050289      1.1184086      519.4436      -1425.3202     -31.20392     
       400   400            298.22123     -532.30882      24197.21       24774.925      5492.7654      19282.159      2450.0778      6579.5692     -1893.687       169.35939     -299.66129      43033.527     -30757.026     -527.42039      74417.353      42.062144      42.062144      42.062144      1.1174632     -1048.038      -407.50999     -141.37843    
       500   500            305.2492       790.1908       25744.615      24884.854      5622.2096      19262.644      2442.7376      6524.2626     -1923.4729      204.49931     -251.76759      43039.169     -30772.783     -526.09153      74605.325      42.097529      42.097529      42.097529      1.1146477      212.27795      1080.6825      1077.612     
       600   600            307.11935     -399.96583      24468.143      24905.169      5656.6548      19248.514      2490.0319      6554.0943     -1927.5107      210.21631     -336.2993       43035.105     -30777.123     -523.86909      74921.827      42.156976      42.156976      42.156976      1.1099389     -483.85591     -325.32484     -390.71672    
       700   700            296.2028      -197.03027      24517.794      24733.491      5455.5891      19277.902      2473.8512      6547.4051     -1909.5589      192.93874     -279.28625      43032.134     -30779.582     -522.87238      75064.645      42.183746      42.183746      42.183746      1.1078271      106.71908     -153.8869      -543.92299    
       800   800            298.09463     -377.27614      24277.52       24690.026      5490.4338      19199.592      2432.9254      6532.1575     -1925.2565      200.48149     -278.37255      43015.043     -30777.386     -523.52372      74971.253      42.166244      42.166244      42.166244      1.1092072      298.73874     -550.97023     -879.59692    
       900   900            297.77234     -100.77236      24636.962      24747.008      5484.4977      19262.51       2451.1491      6586.9807     -1932.5317      189.931       -306.66462      43048.792     -30775.146     -524.17116      74878.65       42.148877      42.148877      42.148877      1.1105789      695.6707      -566.73227     -431.25551    
      1000   1000           299.96849      146.50892      25015.923      24855.999      5524.9473      19331.052      2431.2367      6635.9035     -1895.5867      197.61381     -298.79281      43041.737     -30781.06      -524.39613      74846.527      42.142848      42.142848      42.142848      1.1110556     -456.8541      -787.80693      1684.1878    
      1100   1100           303.32514      545.74897      25458.018      24861.709      5586.7715      19274.938      2437.0219      6554.8956     -1944.267       202.99769     -245.56481      43049.659     -30779.804     -523.87675      74920.731      42.156771      42.156771      42.156771      1.1099551      1130.7789      450.9632       55.504795    
      1200   1200           302.56156      375.40057      25232.773      24821.863      5572.7076      19249.155      2447.4723      6531.0662     -1939.4514      189.47669     -239.23109      43030.252     -30770.429     -522.94427      75054.325      42.181813      42.181813      42.181813      1.1079795      609.12938     -399.26122      916.33357    
      1300   1300           299.3571      -200.96723      24573.081      24793.238      5513.6864      19279.552      2481.3304      6592.8507     -1941.1297      208.76934     -313.59789      43022.6       -30771.271     -522.51653      75115.766      42.19332       42.19332       42.19332       1.1070732     -1635.591      -301.58281      1334.2721    
      1400   1400           298.90657     -288.06833      24452.362      24767.332      5505.3883      19261.944      2441.6453      6501.462      -1871.9901      194.53748     -282.09978      43044.944     -30766.554     -523.51922      74971.898      42.166365      42.166365      42.166365      1.1091976     -713.14514     -238.2272       87.167353    
      1500   1500           300.73886     -117.85058      24627.934      24756.32       5539.1362      19217.184      2436.2745      6571.808      -1906.0087      200.12715     -360.37407      43046.348     -30770.991     -525.43938      74697.921      42.114939      42.114939      42.114939      1.1132659      760.58185     -260.13199     -854.00159    
      1600   1600           301.92358     -499.38443      24219.307      24761.75       5560.957       19200.793      2434.7888      6573.0083     -1932.3511      198.69053     -345.8992       43047.727     -30775.171     -526.97279      74480.561      42.074049      42.074049      42.074049      1.1165148     -38.414797     -630.37287     -829.36564    
      1700   1700           303.53381      200.4119       25011.913      24794.339      5590.6149      19203.724      2452.7719      6536.4461     -1951.0049      198.35179     -288.80452      43029.296     -30773.333     -527.25748      74440.346      42.066476      42.066476      42.066476      1.117118      -622.61092      1044.847       178.99959    
      1800   1800           301.62333      469.6846       25365.343      24855.022      5555.4268      19299.595      2500.5678      6543.3263     -1922.7112      213.72713     -296.13492      43034.958     -30774.138     -526.82915      74500.868      42.077873      42.077873      42.077873      1.1162105      853.65511     -283.08772      838.48641    
      1900   1900           302.6138      -827.39466      24008.501      24908.828      5573.6697      19335.158      2483.0172      6631.1972     -1914.4962      207.99069     -334.68832      43031.718     -30769.58      -526.04076      74612.524      42.098883      42.098883      42.098883      1.1145401     -1938.003      -551.34595      7.1650097    
      2000   2000           300.99481      109.04834      24932.184      24813.495      5543.8503      19269.645      2426.0404      6584.9089     -1878.4884      198.60257     -320.73726      43033.873     -30774.554     -525.91619      74630.198      42.102207      42.102207      42.102207      1.1142762      508.02936     -1477.8885      1297.0041    
      2100   2100           297.58939     -66.220876      24636.058      24708.234      5481.1279      19227.106      2430.1281      6630.9654     -1928.1232      190.95974     -356.8058       43033.128     -30773.147     -525.18694      74733.825      42.121685      42.121685      42.121685      1.1127311     -226.28139      596.4671      -568.84834    
      2200   2200           299.86331      10.391582      24751.929      24740.604      5523.0099      19217.594      2493.5347      6563.6975     -1967.0051      196.06159     -337.2736       43044.807     -30776.228     -525.24855      74725.059      42.120038      42.120038      42.120038      1.1128616      780.97046     -291.81826     -457.97745    
      2300   2300           299.74781      123.7691       24959.196      24824.298      5520.8827      19303.416      2469.7403      6541.7459     -1902.3717      209.96604     -295.05329      43051.805     -30772.416     -525.18759      74733.733      42.121668      42.121668      42.121668      1.1127325      1453.3141     -910.79844     -171.20833    
      2400   2400           303.65985     -584.7765       24264.482      24902.425      5592.9363      19309.489      2496.4045      6570.3951     -1897.2502      209.19428     -349.40666      43046.04      -30765.888     -524.70463      74802.521      42.134587      42.134587      42.134587      1.1117092     -255.54392     -815.61043     -683.17515    
      2500   2500           303.95751      411.0905       25327.801      24879.567      5598.4188      19281.149      2388.3853      6602.7089     -1881.9459      202.91225     -297.05871      43038.012     -30771.865     -524.97707      74763.702      42.127298      42.127298      42.127298      1.1122864      764.38632     -296.51196      765.39714    
      2600   2600           298.37419     -271.07108      24390.567      24685.622      5495.5828      19190.04       2457.6816      6542.5334     -1964.9855      200.71528     -313.1936       43035.981     -30768.692     -525.88069      74635.235      42.103154      42.103154      42.103154      1.114201      -676.79121     -941.00046      804.57844    
      2700   2700           297.28554     -161.28025      24515.449      24690.823      5475.5316      19215.291      2386.366       6629.6811     -1932.595       196.46129     -331.18365      43038.596     -30772.035     -526.40834      74560.424      42.089082      42.089082      42.089082      1.1153189      751.68504      531.2089      -1766.7347    
      2800   2800           299.4093       949.01791      25819.621      24787.04       5514.6478      19272.392      2422.0155      6577.1947     -1915.6237      209.61828     -303.19124      43052.871     -30770.493     -526.08627      74606.071      42.09767       42.09767       42.09767       1.1146365      1134.9387      316.17977      1395.9352    
      2900   2900           297.2957       517.70817      25421.939      24858.28       5475.7186      19382.561      2514.7651      6608.1752     -1914.1722      182.6731      -278.2068       43037.422     -30768.094     -525.74513      74654.48       42.106773      42.106773      42.106773      1.1139137      1674.6437     -8.132109      -113.38713    
      3000   3000           301.28698     -1134.3589      23640.937      24876.725      5549.2317      19327.493      2558.6792      6609.6354     -1923.6422      209.54795     -376.1136       43022.187     -30772.801     -525.42837      74699.486      42.115233      42.115233      42.115233      1.1132426     -2155.9383     -1363.2468      116.10826    
      3100   3100           302.27387     -411.77069      24346.249      24794.605      5567.4088      19227.196      2395.7094      6676.3012     -1918.4205      194.77861     -377.25545      43030.768     -30774.685     -525.70217      74660.581      42.10792       42.10792       42.10792       1.1138227     -303.79461      64.665817     -996.18328    
      3200   3200           298.80144      260.18169      24945.448      24662.394      5503.4521      19158.942      2391.6455      6444.9988     -1899.5334      209.1992      -262.40535      43044.223     -30769.185     -526.15646      74596.118      42.095797      42.095797      42.095797      1.1147852      109.53918      13.408787      657.5971     
      3300   3300           297.14178      465.14683      25203.062      24696.354      5472.8837      19223.47       2401.9095      6544.2163     -1899.0948      196.06907     -287.13203      43041.998     -30774.496     -525.4599       74695.004      42.11439       42.11439       42.11439       1.1133094      376.82815      330.98673      687.62562    
      3400   3400           299.24726      142.16931      24956.528      24801.39       5511.6634      19289.727      2537.2473      6590.5584     -1984.9102      183.51086     -303.23571      43041.443     -30774.887     -524.56065      74823.053      42.138442      42.138442      42.138442      1.1114041     -96.109486     -535.98776      1058.6052    
      3500   3500           305.74967      388.15954      25263.754      24839.694      5631.4275      19208.266      2431.4923      6542.6018     -1950.7014      201.32825     -302.31648      43053.465     -30767.603     -523.94949      74910.33       42.15482       42.15482       42.15482       1.1101093     -1156.3717      1120.8779      1199.9725    
      3600   3600           296.07823      1189.6276      26122.97       24820.587      5453.2948      19367.292      2395.6453      6648.3493     -1902.44        196.30546     -253.6144       43050.168     -30767.122     -522.85246      75067.505      42.184282      42.184282      42.184282      1.1077849      2004.1564     -464.5145       2029.2408    
      3700   3700           302.65272     -761.5434       23981.017      24815.814      5574.3865      19241.428      2504.449       6568.8102     -1924.663       214.0817      -372.65997      43024.054     -30772.644     -522.18046      75164.109      42.20237       42.20237       42.20237       1.1063612     -1010.6429     -144.27759     -1129.7098    
      3800   3800           297.14929     -1142.9079      23580.945      24832.067      5473.022       19359.045      2549.0375      6652.2965     -1932.6156      201.52739     -368.20328      43024.703     -30767.701     -522.89982      75060.706      42.183008      42.183008      42.183008      1.1078853     -1059.7221     -601.38682     -1767.6148    
      3900   3900           303.05113      472.89605      25434.215      24918.696      5581.7246      19336.971      2498.0688      6609.1378     -1952.5543      192.91839     -277.93732      43038.547     -30771.209     -525.08336      74748.568      42.124455      42.124455      42.124455      1.1125116      814.88381      146.3103       457.49404    
      4000   4000           306.75555      162.45892      25196.997      25020.391      5649.9542      19370.436      2513.6424      6590.8446     -1895.0774      213.47106     -313.36068      43038.582     -30777.666     -526.55651      74539.443      42.085134      42.085134      42.085134      1.1156328     -438.11895     -201.07827      1126.574     
      4100   4100           305.22552      614.63738      25571.74       24905.131      5621.7735      19283.357      2439.591       6533.5253     -1869.5919      209.97652     -289.66883      43031.854     -30772.328     -527.78184      74366.388      42.05254       42.05254       42.05254       1.118229       262.68589      294.37683      1286.8494    
      4200   4200           299.12281      1689.678       26617.104      24786.71       5509.3711      19277.339      2410.0852      6596.5592     -1911.8156      205.38323     -262.51821      43008.302     -30768.657     -528.40423      74278.794      42.036022      42.036022      42.036022      1.1195477      1741.6232      1008.0554      2319.3555    
      4300   4300           299.62421     -181.03186      24539.171      24735.305      5518.6061      19216.699      2488.6205      6519.0467     -1924.8907      194.46067     -319.11872      43025.618     -30767.038     -528.33539      74288.472      42.037848      42.037848      42.037848      1.1194018     -1662.0014      671.35242      447.55346    
      4400   4400           299.40229     -757.49829      23924.741      24746.57       5514.5187      19232.051      2500.9794      6499.226      -1893.5857      194.78987     -333.26671      43031.623     -30767.714     -527.60321      74391.566      42.057285      42.057285      42.057285      1.1178505     -263.99386     -337.90673     -1670.5943    
      4500   4500           306.34032      282.38955      25154.11       24846.855      5642.3063      19204.549      2384.4298      6592.2799     -1917.5315      225.86207     -369.92308      43061.614     -30772.182     -526.08668      74606.012      42.097659      42.097659      42.097659      1.1146374     -1013.2436      335.28513      1525.1271    
      4600   4600           298.26492     -269.19038      24615.676      24909.396      5493.5702      19415.826      2579.2461      6580.5815     -1949.5993      215.19599     -284.56997      43044.955     -30769.983     -524.60583      74816.609      42.137232      42.137232      42.137232      1.1114999     -250.55155     -228.965       -328.0546     
      4700   4700           301.08335     -304.09308      24544.145      24876.959      5545.4813      19331.478      2389.737       6626.5817     -1887.4293      200.02061     -284.56746      43049.384     -30762.249     -523.01253      75044.529      42.179978      42.179978      42.179978      1.1081241     -165.91822     -1599.3495      852.98848    
      4800   4800           297.47175      162.80717      24897.023      24718.644      5478.9612      19239.683      2380.4732      6593.0535     -1885.3795      205.35754     -314.02968      43031.217     -30771.009     -522.44073      75126.664      42.195361      42.195361      42.195361      1.1069126     -465.11775      793.12764      160.41163    
      4900   4900           297.29909     -210.51015      24476.081      24706.741      5475.781       19230.96       2506.7468      6508.7578     -1950.3828      212.6923      -326.69982      43049.27      -30769.424     -522.40552      75131.728      42.196308      42.196308      42.196308      1.106838      -1276.2275      198.52603      446.17102    
      5000   5000           299.56946      123.1549       24954.569      24819.848      5517.5977      19302.25       2412.8169      6662.5325     -1919.3362      191.78644     -305.91595      43035.327     -30774.961     -523.26563      75008.231      42.173176      42.173176      42.173176      1.1086603      459.63667     -475.32929      385.1573     
      5100   5100           299.92253      80.786869      24941.508      24853.308      5524.1007      19329.207      2506.5656      6626.2193     -1938.7154      189.56592     -322.10227      43041.987     -30774.314     -524.29766      74860.585      42.145487      42.145487      42.145487      1.1108469      229.55281     -1225.1575      1237.9653    
      5200   5200           300.51308      1516.8444      26481.954      24829.166      5534.9777      19294.189      2419.7948      6546.3345     -1923.5021      203.93932     -223.46522      43049.003     -30777.916     -525.32861      74713.672      42.117899      42.117899      42.117899      1.1130312      1170.3919      2104.1501      1275.991     
      5300   5300           296.90301      64.43073       24812.344      24742.133      5468.4859      19273.647      2415.8758      6645.4888     -1962.9463      215.17545     -303.5925       43035.736     -30772.09      -525.28927      74719.267      42.11895       42.11895       42.11895       1.1129479     -176.4812      -122.84216      492.61555    
      5400   5400           294.39835     -555.77945      23999.229      24604.49       5422.354       19182.136      2396.6111      6622.6812     -1966.8632      199.7481      -334.54864      43033.595     -30769.087     -525.61383      74673.128      42.110279      42.110279      42.110279      1.1136356      611.04193     -1830.311      -448.06934    
      5500   5500           294.72679      599.99247      25259.371      24607.835      5428.4035      19179.431      2415.7327      6495.0463     -1908.2674      198.29504     -300.58242      43054.778     -30775.571     -527.12594      74458.922      42.069974      42.069974      42.069974      1.1168393      487.78642      412.56543      899.62556    
      5600   5600           297.70434      194.968        25020.843      24809.204      5483.2451      19325.959      2515.3903      6621.0926     -1952.0613      207.86031     -337.90374      43042.802     -30771.221     -527.32081      74431.406      42.064792      42.064792      42.064792      1.1172522     -255.36004      238.06392      602.20011    
      5700   5700           300.95834     -826.77669      23964.23       24863.22       5543.1786      19320.041      2476.904       6615.5636     -1895.8802      197.58015     -350.88656      43046.531     -30769.771     -526.42986      74557.377      42.088509      42.088509      42.088509      1.1153645     -1848.0794     -994.82722      362.57661    
      5800   5800           306.73444      594.78564      25475.335      24828.207      5649.5653      19178.641      2422.7866      6475.9245     -1925.2548      189.11271     -248.83752      43037.891     -30772.981     -526.11027      74602.666      42.097029      42.097029      42.097029      1.1146874      159.41169     -336.21893      1961.1641    
      5900   5900           301.71609      1099.1758      25941.106      24740.326      5557.1352      19183.191      2369.2047      6572.1113     -1917.8383      209.1971      -326.44528      43048.658     -30771.697     -523.97536      74906.631      42.154126      42.154126      42.154126      1.1101641     -39.072586      997.54501      2339.055     
      6000   6000           295.84449     -857.30354      23751.514      24691.767      5448.9897      19242.777      2499.5576      6486.8039     -1876.9063      206.39107     -317.72926      43016.796     -30772.136     -521.91176      75202.806      42.209611      42.209611      42.209611      1.1057919     -1675.8702     -1112.9923      216.95193    
      6100   6100           296.45477     -556.34063      24180.124      24790.474      5460.2301      19330.244      2468.3304      6552.8828     -1925.1148      211.487       -258.62908      43049.592     -30768.304     -521.75739      75225.057      42.213773      42.213773      42.213773      1.1054648      247.16814     -1860.519      -55.671006    
      6200   6200           302.22136     -45.881462      24853.636      24903.889      5566.4416      19337.448      2495.852       6543.4146     -1877.7775      207.61451     -299.33596      43035.658     -30767.978     -522.616        75101.469      42.190643      42.190643      42.190643      1.1072839      44.468343     -1089.0914      906.97866    
      6300   6300           300.71021     -139.3031       24747.299      24899.392      5538.6086      19360.783      2478.5987      6606.7893     -1904.9329      213.32538     -295.51996      43029.5       -30766.977     -524.27473      74863.859      42.146101      42.146101      42.146101      1.1107983     -1103.6914     -76.496591      762.27871    
      6400   6400           299.32925     -311.44267      24506.377      24844.985      5513.1735      19331.812      2480.4629      6594.5223     -1942.658       211.43958     -279.69382      43036.063     -30768.324     -526.48725      74549.249      42.086979      42.086979      42.086979      1.1154861     -539.18382     -304.59916     -90.545035    
      6500   6500           297.48379      38.642003      24794.16       24752.241      5479.183       19273.058      2459.0843      6585.0779     -1881.2076      201.10112     -366.81082      43040.841     -30765.029     -527.65738      74383.929      42.055846      42.055846      42.055846      1.1179653      1544.2        -467.99436     -960.27959    
      6600   6600           300.40904      760.2852       25573.164      24749.12       5533.0614      19216.058      2459.9859      6534.4208     -1904.5004      190.05573     -333.63279      43044.358     -30774.629     -528.12075      74318.665      42.043542      42.043542      42.043542      1.118947       123.59374      1416.0174      741.24446    
      6700   6700           300.83312     -747.65084      23967.047      24777.769      5540.8723      19236.897      2530.08        6561.1482     -1935.4404      197.93914     -386.64714      43036.83      -30767.012     -527.87841      74352.784      42.049975      42.049975      42.049975      1.1184336     -2073.6665     -2005.3867      1836.1007    
      6800   6800           299.05932      836.69499      25683.249      24776.012      5508.2017      19267.81       2400.7138      6576.5164     -1903.3535      194.02567     -282.62578      43046.524     -30763.991     -527.90186      74349.481      42.049353      42.049353      42.049353      1.1184833      1068.8118      1324.4972      116.77599    
      6900   6900           302.01559     -768.02884      23903.731      24738.095      5562.6516      19175.444      2478.0593      6570.3887     -1910.4419      191.10594     -412.38814      43023.296     -30764.577     -526.90115      74490.688      42.075956      42.075956      42.075956      1.116363      -314.03341     -1542.4976     -447.55545    
      7000   7000           291.69339      33.127076      24673.487      24637.46       5372.5329      19264.927      2474.6204      6586.2776     -1983.462       204.99371     -276.27202      43022.64      -30763.87      -526.3389       74570.261      42.090933      42.090933      42.090933      1.1151718     -948.32702      1483.4881     -435.77981    
      7100   7100           299.11074     -593.01936      24024.621      24670.88       5509.1488      19161.732      2417.5312      6619.066      -1971.7165      202.76517     -373.30835      43032.088     -30764.694     -525.2537       74724.328      42.119901      42.119901      42.119901      1.1128725     -1733.8577     -746.20954      701.00921    
      7200   7200           298.07253      246.95016      25067.697      24798.194      5490.0266      19308.167      2393.5574      6690.7399     -1919.7856      212.70626     -356.62939      43056.289     -30768.711     -524.5083       74830.52       42.139844      42.139844      42.139844      1.1112932      959.22097      1066.0249     -1284.3954    
      7300   7300           302.29584     -118.91587      24725.253      24854.987      5567.8133      19287.174      2470.574       6598.3456     -1925.2022      216.07662     -328.83831      43034.875     -30778.656     -524.67892      74806.187      42.135276      42.135276      42.135276      1.1116547      576.4153      -1852.8258      919.66288    
      7400   7400           299.41729     -226.52548      24577.621      24824.336      5514.7951      19309.541      2422.7274      6587.4346     -1879.9398      200.93234     -282.37275      43035.498     -30774.739     -525.56688      74679.8        42.111533      42.111533      42.111533      1.1135361     -463.24201     -508.79999      292.46556    
      7500   7500           297.37061     -527.70061      24195.714      24769.994      5477.0984      19292.895      2467.2688      6610.2374     -1903.7834      187.99174     -326.52941      43023.432     -30765.721     -525.98208      74620.849      42.100449      42.100449      42.100449      1.1144158     -1279.8442     -651.94489      348.68726    
      7600   7600           292.5236       380.85137      25052.392      24638.551      5387.8241      19250.727      2455.1602      6619.1608     -1961.6729      213.0404      -325.09926      43023.398     -30773.26      -526.78001      74507.818      42.079181      42.079181      42.079181      1.1161064     -221.94777      586.62211      777.87978    
      7700   7700           295.8825      -140.98279      24415.619      24568.844      5449.6897      19119.155      2440.6372      6450.9035     -1886.3424      187.06955     -345.08856      43040.668     -30768.692     -526.67497      74522.678      42.081979      42.081979      42.081979      1.1158838     -825.65534      623.53242     -220.82544    
      7800   7800           294.32841      775.8066       25517.85       24673.394      5421.0658      19252.329      2392.8746      6631.4783     -1918.917       189.59864     -302.17513      43032.057     -30772.587     -525.87642      74635.842      42.103269      42.103269      42.103269      1.1141919      399.70938      420.60903      1507.1014    
      7900   7900           298.12375      209.15773      24979.777      24751.367      5490.97        19260.397      2453.341       6568.329      -1974.6307      204.84187     -248.17118      43025.562     -30768.874     -524.16404      74879.668      42.149067      42.149067      42.149067      1.1105638     -1042.9309      243.01667      1427.3875    
      8000   8000           301.27684     -263.52644      24516.506      24805.468      5549.045       19256.423      2450.1205      6554.0697     -1920.1373      194.61121     -298.06028      43045.382     -30769.563     -522.02411      75186.621      42.206583      42.206583      42.206583      1.1060299     -535.63563      583.74785     -838.69154    
      8100   8100           300.6709      -626.17442      24155.366      24843.465      5537.8846      19305.58       2493.792       6632.2562     -1934.6301      206.37714     -357.98615      43039.016     -30773.245     -520.8968       75349.338      42.237008      42.237008      42.237008      1.1036414     -366.63864     -303.23632     -1208.6483    
      8200   8200           296.14376      158.68726      25020.329      24846.253      5454.5017      19391.752      2477.2386      6590.3002     -1868.5784      205.36728     -291.99746      43050.733     -30771.311     -521.80774      75217.798      42.212416      42.212416      42.212416      1.1055715      619.03996     -1229.2773      1086.2991    
      8300   8300           302.93917     -782.23643      23975.988      24830.48       5579.6625      19250.817      2489.6947      6509.7438     -1881.3605      188.66069     -324.89287      43034.038     -30765.067     -524.00713      74902.091      42.153274      42.153274      42.153274      1.1102314     -2118.2715     -570.09146      341.6537     
      8400   8400           298.29925      1391.8101      26248.85       24737.204      5494.2025      19243.001      2425.8337      6468.7084     -1934.9582      195.44254     -198.57501      43049.96      -30763.41      -527.03192      74472.205      42.072476      42.072476      42.072476      1.1166401      1089.3155      886.39954      2199.7151    
      8500   8500           293.63263     -290.55731      24346.995      24662.217      5408.2506      19253.967      2479.6433      6528.2771     -1859.7975      198.08282     -353.82163      43028.479     -30766.896     -527.62004      74389.194      42.056838      42.056838      42.056838      1.1178862     -421.19649      437.96904     -888.44446    
      8600   8600           298.05298      259.26656      24999.08       24718.141      5489.6665      19228.475      2419.7019      6623.6546     -1916.4493      203.22869     -354.14266      43025.214     -30772.733     -528.25345      74299.995      42.040021      42.040021      42.040021      1.1192282     -522.22511     -476.50716      1776.532     
      8700   8700           302.00933     -22.247756      24816.781      24840.897      5562.5363      19278.361      2469.3717      6547.5249     -1897.6328      196.13749     -307.61511      43035.212     -30764.637     -528.06873      74325.986      42.044923      42.044923      42.044923      1.1188368      262.48086     -317.70427     -11.519853    
      8800   8800           299.83612     -307.12741      24507.806      24842.213      5522.5092      19319.703      2509.1084      6571.3888     -1901.0571      211.89352     -334.16161      43030.727     -30768.195     -525.71628      74658.577      42.107543      42.107543      42.107543      1.1138526      50.345657     -876.94551     -94.782384    
      8900   8900           299.34609      603.17928      25463.232      24804.723      5513.4836      19291.24       2463.6661      6568.0566     -1958.8913      211.27147     -266.67444      43042.385     -30768.574     -524.31453      74858.175      42.145034      42.145034      42.145034      1.1108827      724.41664      491.47972      593.64148    
      9000   9000           297.71539     -774.62662      23911.202      24757.736      5483.4487      19274.287      2444.5591      6534.5731     -1887.0279      214.41793     -266.69891      43013.477     -30779.014     -523.78747      74933.502      42.159166      42.159166      42.159166      1.109766      -66.554851     -1517.8655     -739.45952    
      9100   9100           294.68813     -24.528061      24686.496      24713.303      5427.6914      19285.612      2467.4243      6619.1595     -1942.9599      199.68599     -314.43382      43035.373     -30778.638     -523.74822      74939.118      42.160219      42.160219      42.160219      1.1096828     -12.753071      611.11612     -671.94723    
      9200   9200           297.44842      460.63185      25222.407      24719.098      5478.5316      19240.566      2410.2217      6552.0099     -1886.7321      221.10048     -329.5356       43049.594     -30776.093     -523.87257      74921.329      42.156883      42.156883      42.156883      1.1099463      1125.5801     -582.34759      838.66302    
      9300   9300           300.40702     -533.38624      24241.273      24823.352      5533.0243      19290.328      2519.9698      6585.0293     -1902.9785      209.48719     -368.07369      43017.675     -30770.781     -524.52523      74828.106      42.139391      42.139391      42.139391      1.1113291     -1633.1126      120.49163     -87.537694    
      9400   9400           307.02412     -120.35753      24764.606      24895.493      5654.9009      19240.592      2455.3524      6559.2734     -1945.0364      188.2805      -268.6832       43017.842     -30766.436     -526.36185      74567.01       42.090322      42.090322      42.090322      1.1152204     -208.20143     -203.01724      50.146079    
      9500   9500           300.67208      485.70953      25385.573      24857.971      5537.9063      19320.065      2472.3083      6580.5314     -1941.3093      212.12783     -242.02152      43008.348     -30769.92      -526.9597       74482.412      42.074398      42.074398      42.074398      1.1164871     -383.2626       604.05246      1236.3387    
      9600   9600           302.49023      274.21108      25006.743      24708.472      5571.3938      19137.079      2353.4513      6609.6916     -1953.8796      200.60152     -340.67508      43034.55      -30766.661     -526.23696      74584.706      42.093651      42.093651      42.093651      1.1149558     -349.33428      72.481128      1099.4864    
      9700   9700           296.66173     -522.58441      24116.564      24686.685      5464.0419      19222.644      2423.9183      6536.9783     -1929.3461      217.51736     -295.76759      43038.916     -30769.573     -524.68182      74805.773      42.135198      42.135198      42.135198      1.1116609     -225.14151     -1107.7011     -234.91063    
      9800   9800           299.36265     -1681.3167      22936.452      24776.663      5513.7886      19262.875      2489.9017      6561.6365     -1906.878       209.23273     -358.1549       43037.562     -30770.426     -522.98445      75048.558      42.180733      42.180733      42.180733      1.1080646     -1990.7229     -2189.6871     -863.53997    
      9900   9900           298.56793      691.2084       25606.137      24849.035      5499.1511      19349.884      2428.153       6625.2875     -1921.6061      197.54709     -259.72         43053.699     -30773.477     -522.59074      75105.099      42.191323      42.191323      42.191323      1.1072304      822.62558      613.8391       637.16053    
     10000   10000          303.11209     -149.02526      24700.669      24863.702      5582.8474      19280.855      2504.6487      6566.3926     -1919.7936      202.52945     -348.20103      43046.199     -30770.92      -523.22938      75013.427      42.17415       42.17415       42.17415       1.1085835      856.74255     -898.00935     -405.80899    
     10100   10100          301.91934      607.18344      25458.104      24796.257      5560.8787      19235.378      2415.2663      6510.5304     -1904.2966      198.18841     -270.64008      43056.076     -30769.746     -525.13289      74741.518      42.12313       42.12313       42.12313       1.1126166      796.0761       655.1423       370.33191    
     10200   10200          297.03089     -840.91826      23726.726      24642.481      5470.8412      19171.64       2416.8276      6546.4868     -1882.4045      211.95916     -373.20106      43017.514     -30765.542     -525.63152      74670.616      42.109806      42.109806      42.109806      1.113673      -1168.6993     -1622.5977      268.54221    
     10300   10300          299.872       -377.81806      24266.258      24677.622      5523.17        19154.452      2506.4952      6544.4002     -1953.4701      194.44018     -419.89388      43047.978     -30765.498     -525.73083      74656.51       42.107155      42.107155      42.107155      1.1138834     -177.09322     -929.33218     -27.028777    
     10400   10400          302.81364     -282.8032       24475.42       24783.274      5577.3505      19205.924      2459.0726      6533.8419     -1901.4773      196.08216     -352.19651      43042.872     -30772.271     -525.83049      74642.361      42.104494      42.104494      42.104494      1.1140946     -1216.5335     -406.96581      775.08971    
     10500   10500          302.77738      30.675953      24867.575      24834.151      5576.6825      19257.469      2364.3007      6624.1264     -1878.3115      202.44029     -315.40261      43031.694     -30771.379     -525.35048      74710.561      42.117314      42.117314      42.117314      1.1130776     -591.30314      16.892049      666.43895    
     10600   10600          297.19369     -592.52381      24186.257      24832.048      5473.8398      19358.208      2550.2928      6644.1678     -1951.7239      209.17474     -347.54604      43023.241     -30769.399     -525.19581      74732.563      42.121448      42.121448      42.121448      1.1127499      329.61569     -783.54103     -1323.6461    
     10700   10700          301.98768     -11.643267      24808.852      24821.528      5562.1374      19259.39       2423.988       6530.1598     -1925.8685      199.76852     -232.3377       43036.365     -30772.685     -525.80243      74646.345      42.105243      42.105243      42.105243      1.1140351     -474.67509     -621.07212      1060.8174    
     10800   10800          300.80712     -178.43569      24573.868      24768.259      5540.3935      19227.865      2432.5318      6568.2238     -1912.7629      222.9083      -345.90118      43031.971     -30769.105     -525.42735      74699.631      42.11526       42.11526       42.11526       1.1132404     -1006.3894     -936.08432      1407.1667    
     10900   10900          299.50994     -182.509        24491.696      24690.534      5516.5015      19174.033      2445.7407      6587.3145     -1981.4632      212.79406     -364.55658      43045.021     -30770.818     -525.40126      74703.34       42.115957      42.115957      42.115957      1.1131852     -590.19513      834.13024     -791.4621     
     11000   11000          295.61803      1105.518       25885.467      24683.756      5444.8185      19238.937      2410.4212      6579.3305     -1994.6754      208.15335     -220.75255      43035.6       -30779.14      -526.59022      74534.672      42.084236      42.084236      42.084236      1.1157043      2220.1898     -475.61447      1571.9786    
     11100   11100          301.21837     -279.40774      24504.119      24807.503      5547.968       19259.535      2449.9405      6588.0833     -1950.5911      207.71664     -297.52443      43035.797     -30773.887     -527.17185      74452.437      42.068753      42.068753      42.068753      1.1169366     -313.97185      162.75778     -687.00914    
     11200   11200          299.69682      334.30978      25243.821      24880.917      5519.9435      19360.974      2464.9506      6653.7961     -1903.2935      201.28914     -319.32168      43032.236     -30768.683     -527.30847      74433.148      42.06512       42.06512       42.06512       1.117226       510.36512     -189.96515      682.52937    
     11300   11300          300.41457     -371.42798      24466.474      24869.99       5533.1632      19336.827      2449.0617      6677.1412     -1896.2635      199.04494     -359.77272      43031.627     -30764.012     -526.89187      74492.001      42.076203      42.076203      42.076203      1.1163434     -561.74489     -154.58555     -397.9535     
     11400   11400          298.19394     -772.82751      23969.977      24811.085      5492.2628      19318.822      2458.8019      6626.2781     -1903.471       214.24867     -349.7937       43039.955     -30767.197     -525.94181      74626.563      42.101524      42.101524      42.101524      1.1143304     -1980.6809      138.08266     -475.88434    
     11500   11500          297.7041       945.52421      25796.155      24766.268      5483.2407      19283.027      2429.8407      6567.379      -1930.1891      205.04191     -267.43876      43054.7       -30776.307     -525.52112      74686.302      42.112755      42.112755      42.112755      1.1134391      694.63835     -572.20837      2714.1427    
     11600   11600          301.22692      412.85972      25225.952      24776.33       5548.1255      19228.204      2427.7298      6532.1102     -1894.7904      203.79041     -318.16236      43048.061     -30770.534     -525.60812      74673.94       42.110431      42.110431      42.110431      1.1136235     -162.47403      1273.169       127.88423    
     11700   11700          299.40954      264.41077      25080.502      24792.766      5514.6522      19278.114      2442.1216      6567.647      -1926.6405      186.53274     -259.15564      43038.136     -30770.527     -526.00859      74617.088      42.099742      42.099742      42.099742      1.1144719      941.28946     -207.85855      59.801404    
     11800   11800          302.81513     -632.48602      24135.484      24824.158      5577.3778      19246.78       2409.3978      6587.2146     -1876.4491      201.22933     -328.31335      43019.946     -30766.245     -525.7081       74659.738      42.107762      42.107762      42.107762      1.1138353     -851.56315      608.68521     -1654.5801    
     11900   11900          302.10848      964.61289      25958.069      24906.666      5564.3625      19342.304      2475.535       6639.6277     -1936.3574      192.61283     -297.56307      43040.079     -30771.63      -525.15944      74737.739      42.12242       42.12242       42.12242       1.1126728      1545.0555      357.20237      991.58084    
     12000   12000          304.92323     -605.63384      24325.214      24986.659      5616.2057      19370.453      2469.8024      6616.1243     -1927.5146      207.33649     -267.31658      43038.801     -30766.78      -524.11111      74887.23       42.150486      42.150486      42.150486      1.1104517     -1459.4832     -845.40798      487.98963    
     12100   12100          300.96566      339.46294      25269.918      24898.866      5543.3135      19355.553      2441.5378      6657.3798     -1923.4896      201.67752     -276.58571      43026.366     -30771.333     -523.67802      74949.163      42.162103      42.162103      42.162103      1.1095341     -587.8382       1067.6792      538.54783    
     12200   12200          300.92048      463.79133      25290.3        24783.302      5542.4813      19240.821      2441.2039      6576.4727     -1931.2919      191.35789     -324.78991      43058.58      -30770.712     -523.62901      74956.178      42.163418      42.163418      42.163418      1.1094302      191.90656      601.19659      598.27085    
     12300   12300          298.93119     -790.76853      23892.483      24755.357      5505.8417      19249.515      2454.7967      6522.6835     -1852.3737      194.82114     -337.81188      43034.199     -30766.8       -524.57677      74820.754      42.138011      42.138011      42.138011      1.1114383     -733.52387     -1192.7395     -446.04228    
     12400   12400          299.21693      346.82759      25144.282      24766.765      5511.1047      19255.661      2363.8873      6540.4962     -1900.0783      204.36049     -244.27896      43059.678     -30768.404     -525.87716      74635.736      42.103249      42.103249      42.103249      1.1141935      406.49071     -29.522041      663.51411    
     12500   12500          302.76584     -514.04857      24227.605      24787.538      5576.47        19211.068      2520.8321      6557.4977     -1908.7198      206.15391     -413.40325      43018.905     -30770.199     -525.50322      74688.846      42.113233      42.113233      42.113233      1.1134012     -354.72414     -287.43146     -899.9901     
     12600   12600          299.39619      574.96077      25455.584      24830.118      5514.4063      19315.711      2438.5659      6573.503      -1924.0386      216.14953     -248.71279      43037.988     -30777.743     -526.18862      74591.558      42.09494       42.09494       42.09494       1.1148534     -747.94943      788.62956      1684.2022    
     12700   12700          302.43719      722.44516      25655.51       24868.279      5570.4168      19297.862      2483.3873      6541.3486     -1954.1812      222.94495     -263.06345      43038.159     -30770.734     -525.30252      74717.382      42.118596      42.118596      42.118596      1.112976       358.43035      441.98865      1366.9165    
     12800   12800          301.93373     -66.693739      24764.965      24837.705      5561.1439      19276.561      2444.5675      6554.2689     -1880.6818      211.42702     -349.29619      43060.383     -30764.107     -524.83116      74784.487      42.131201      42.131201      42.131201      1.1119773      646.52194      717.81854     -1564.4217    
     12900   12900          296.57652     -175.91845      24564.797      24756.463      5462.4725      19293.991      2474.7896      6639.6241     -1936.3804      211.41254     -366.78947      43040.16      -30768.826     -525.37963      74706.415      42.116535      42.116535      42.116535      1.1131393      561.84436     -744.67234     -344.92738    
     13000   13000          298.30508      805.67128      25537.691      24661.527      5494.3099      19167.217      2432.8081      6501.3343     -1956.4661      215.45969     -293.289        43037.794     -30770.424     -526.35605      74567.831      42.090476      42.090476      42.090476      1.1152081     -231.96691      379.82351      2269.1573    
     13100   13100          297.58326     -77.9206        24544.002      24628.917      5481.015       19147.902      2444.1268      6576.5498     -1979.0464      216.22351     -365.33009      43028.265     -30772.887     -525.2602       74723.402      42.119727      42.119727      42.119727      1.1128863     -845.04425     -395.70734      1006.9898    
     13200   13200          299.80434     -428.399        24343.435      24811.035      5521.9238      19289.111      2459.1603      6584.5759     -1923.924       196.86454     -312.41971      43052.132     -30767.278     -524.42217      74842.811      42.142151      42.142151      42.142151      1.1111107     -623.44521     -1504.3735      842.62172    
     13300   13300          301.87919     -1243.3896      23505.938      24863.916      5560.1392      19303.777      2504.3648      6535.5389     -1903.0655      216.26509     -297.08957      43022.023     -30774.26      -524.10888      74887.549      42.150546      42.150546      42.150546      1.110447      -2496.4522     -406.68146     -827.03525    
     13400   13400          301.86079     -10.945212      24831.391      24843.35       5559.8004      19283.55       2376.6138      6607.7099     -1879.6309      208.42023     -300.30071      43038.041     -30767.304     -523.8629       74922.711      42.157142      42.157142      42.157142      1.1099258     -1080.141       789.71323      257.59216    
     13500   13500          299.69738     -314.66986      24403.765      24747.554      5519.9537      19227.6        2437.7466      6644.1403     -1963.8421      196.93        -341.47704      43028.935     -30774.833     -523.92635      74913.638      42.15544       42.15544       42.15544       1.1100602      317.74787      100.10468     -1361.8621    
     13600   13600          295.77354     -1321.904       23248.372      24692.494      5447.6828      19244.811      2508.4213      6559.5541     -1920.7603      197.18887     -361.97542      43030.336     -30767.953     -523.96623      74907.937      42.154371      42.154371      42.154371      1.1101447     -818.26943     -2136.8973     -1010.5454    
     13700   13700          300.62521     -110.2062       24652.923      24773.215      5537.0431      19236.172      2483.0372      6529.8551     -1920.9992      215.09128     -338.78505      43038.147     -30770.174     -524.417        74843.548      42.142289      42.142289      42.142289      1.1110998      112.13151     -304.76368     -137.98644    
     13800   13800          305.17254      695.6626       25648.342      24889.602      5620.7977      19268.804      2440.5614      6579.969      -1916.4654      203.5168      -286.30804      43024.106     -30776.576     -524.8224       74785.735      42.131435      42.131435      42.131435      1.1119587      852.49003     -331.82337      1566.3211    
     13900   13900          303.37678      116.87627      25012.028      24884.521      5587.7225      19296.798      2482.2581      6559.0817     -1897.9263      197.94327     -302.75744      43033.784     -30775.585     -524.68347      74805.538      42.135154      42.135154      42.135154      1.1116644      639.65327     -104.25097     -184.77349    
     14000   14000          302.17203      457.47617      25331.907      24833.334      5565.533       19267.801      2442.4269      6627.8987     -1968.1482      204.94521     -326.42592      43053.402     -30766.298     -525.22632      74728.222      42.120632      42.120632      42.120632      1.1128145      505.28525     -757.86902      1625.0123    
     14100   14100          299.10431     -7.5347759      24766.615      24774.81       5509.0304      19265.78       2428.8838      6617.0398     -1889.5359      207.18539     -363.00134      43035.764     -30770.555     -526.29731      74576.154      42.092042      42.092042      42.092042      1.1150837      29.957595     -179.53032      126.9684     
     14200   14200          294.98741      228.18161      24965.874      24718.116      5433.2036      19284.913      2409.1543      6688.0023     -1943.3037      212.53073     -343.73055      43029.694     -30767.435     -527.18211      74450.989      42.06848       42.06848       42.06848       1.1169583      541.35305     -711.99739      855.18915    
     14300   14300          297.51693     -210.95067      24415.408      24644.63       5479.7934      19164.837      2430.7956      6523.2948     -1925.8489      203.25255     -331.61024      43034.99      -30770.037     -526.78252      74507.463      42.079115      42.079115      42.079115      1.1161117     -1313.931      -95.830991      776.91001    
     14400   14400          300.68706     -1273.8797      23263.833      24650.902      5538.1821      19112.72       2371.2695      6595.8404     -1952.7444      213.62713     -377.26113      43031.755     -30769.767     -525.69936      74660.98       42.107995      42.107995      42.107995      1.1138168     -2935.073      -253.91803     -632.64816    
     14500   14500          304.482        74.938421      24870.188      24788.464      5608.079       19180.384      2428.4346      6563.7443     -1932.9307      219.0148      -364.11357      43033.453     -30767.218     -524.87742      74777.896      42.129963      42.129963      42.129963      1.1120753      576.47937     -1198.1369      846.4728     
     14600   14600          299.23093      1428.6102      26417.479      24858.372      5511.3626      19347.01       2511.0968      6576.3818     -1992.9293      213.96626     -245.91603      43055.955     -30771.545     -524.49933      74831.8        42.140084      42.140084      42.140084      1.1112742      968.84367      2880.8901      436.09677    
     14700   14700          304.36589     -708.81187      24082.719      24856.838      5605.9405      19250.897      2486.5168      6592.2714     -1927.7991      196.34704     -377.70953      43049.448     -30768.178     -524.1195       74886.031      42.150261      42.150261      42.150261      1.1104695     -1151.4475     -245.36646     -729.62164    
     14800   14800          299.89788      1016.1061      25877.354      24770.276      5523.6468      19246.629      2359.1893      6601.8454     -1935.5544      208.63519     -290.93387      43072.879     -30769.431     -525.37321      74707.329      42.116707      42.116707      42.116707      1.1131257      1990.8645     -418.90097      1476.3547    
     14900   14900          295.50289      1521.9072      26287.289      24634.099      5442.6979      19191.401      2389.0629      6574.9551     -1946.3847      197.9777      -304.52624      43053.199     -30772.883     -526.95356      74483.279      42.074561      42.074561      42.074561      1.1164741      395.65211      1731.2373      2438.8323    
     15000   15000          295.0196       18.438806      24666.122      24646.096      5433.7965      19212.299      2414.1091      6541.2185     -1927.4957      181.52583     -285.75638      43054.616     -30765.918     -527.04586      74470.235      42.072105      42.072105      42.072105      1.1166696     -36.494472     -105.07648      196.88737    
     15100   15100          295.21987     -1483.9445      23108.633      24724.353      5437.4851      19286.868      2422.5372      6610.675      -1878.6128      210.56423     -353.32258      43042.033     -30767.006     -525.72504      74657.333      42.107309      42.107309      42.107309      1.1138712     -1161.6145     -1095.5184     -2194.7006    
     15200   15200          298.67067      500.49838      25346.481      24800.282      5501.0434      19299.239      2402.3462      6620.775      -1941.6806      187.30897     -266.19697      43060.65      -30763.964     -524.51637      74829.37       42.139628      42.139628      42.139628      1.1113103      216.19999      66.745674      1218.5495    
     15300   15300          297.99516     -397.31097      24409.852      24844.358      5488.6016      19355.756      2540.4582      6634.1235     -1950.5235      201.89798     -322.78239      43023.447     -30770.864     -523.41046      74987.476      42.169286      42.169286      42.169286      1.1089672     -682.77428     -456.09262     -53.066009    
     15400   15400          300.41482     -153.83907      24703.978      24872.197      5533.1679      19339.03       2515.1316      6562.8342     -1919.3359      192.49364     -287.88551      43036.757     -30760.965     -523.4757       74978.131      42.167534      42.167534      42.167534      1.1091054     -186.64611     -615.66722      340.79612    
     15500   15500          302.96245     -518.99739      24256.079      24822.731      5580.0913      19242.64       2540.6454      6562.7394     -1919.8232      195.30555     -399.96351      43028.693     -30764.957     -524.27021      74864.504      42.146222      42.146222      42.146222      1.1107888     -577.56484     -1193.0549      213.62755    
     15600   15600          298.64245      1049.2819      25844.991      24702.81       5500.5236      19202.287      2416.4672      6529.1991     -1910.2302      193.9456      -305.28395      43051.135     -30772.946     -525.85329      74639.125      42.103886      42.103886      42.103886      1.1141429      117.59334      1055.6727      1974.5798    
     15700   15700          298.73159      494.41468      25212.981      24676.498      5502.1654      19174.333      2402.2354      6591.0773     -1955.0035      198.35886     -332.30068      43039.112     -30769.146     -527.52424      74402.702      42.059384      42.059384      42.059384      1.1176832      1976.3317     -1003.7031      510.61543    
     15800   15800          301.72928     -195.18188      24562.112      24773.378      5557.3782      19216          2447.0009      6590.9027     -1923.6724      202.68292     -342.2989       43011.272     -30769.888     -528.8307       74218.894      42.02472       42.02472       42.02472       1.1204512     -72.719309      662.4553      -1175.2816    
     15900   15900          301.0939       287.5555       25176.696      24865.34       5545.6755      19319.664      2446.4945      6636.8174     -1926.2136      203.54893     -315.30119      43039.301     -30764.983     -528.65264      74243.892      42.029437      42.029437      42.029437      1.120074      -514.18297     -1135.06        2511.9095    
     16000   16000          301.15292     -581.93769      24228.272      24860.58       5546.7625      19313.818      2474.1518      6594.7179     -1899.1206      213.5177      -346.76685      43045.121     -30767.804     -526.81051      74503.505      42.078369      42.078369      42.078369      1.116171      -470.15722     -1151.3193     -124.33657    
     16100   16100          300.65568      24.629002      24830.807      24803.94       5537.6041      19266.336      2458.7238      6561.195      -1936.5336      210.23155     -327.06859      43063.992     -30764.204     -524.71743      74800.697      42.134245      42.134245      42.134245      1.1117363     -366.62655      117.73806      322.77549    
     16200   16200          297.66153     -783.11783      23923.235      24780.308      5482.4567      19297.851      2515.1216      6658.5005     -1930.4295      209.71788     -421.30512      43032.696     -30766.451     -523.01788      75043.761      42.179834      42.179834      42.179834      1.1081354     -44.835729     -930.39554     -1374.1222    
     16300   16300          301.73859     -39.247999      24719.995      24762.935      5557.5497      19205.385      2387.4086      6565.3569     -1932.7832      201.68684     -279.11721      43027.65      -30764.817     -523.19662      75018.125      42.17503       42.17503       42.17503       1.1085141     -1152.1935     -273.35934      1307.8089    
     16400   16400          300.05909      877.6509       25771.788      24811.254      5526.6159      19284.638      2428.024       6570.6052     -1950.2196      190.40731     -227.609        43040.156     -30766.726     -523.01755      75043.809      42.179843      42.179843      42.179843      1.1081347      775.04396      1092.5372      765.37148    
     16500   16500          304.37193     -1011.3615      23868.667      24977.106      5606.0516      19371.054      2572.4216      6615.7757     -1928.7203      198.97262     -337.23851      43017.639     -30767.796     -522.27805      75150.065      42.199741      42.199741      42.199741      1.1065679     -913.96118     -2614.8077      494.6845     
     16600   16600          301.10707     -524.55288      24361.505      24936.571      5545.9181      19390.653      2536.2046      6661.003      -1910.3624      222.14855     -415.90022      43061.592     -30764.032     -522.12954      75171.44       42.203742      42.203742      42.203742      1.1062533     -362.14801     -190.69467     -1020.816     
     16700   16700          300.54006     -452.03443      24326.541      24820.867      5535.4746      19285.392      2439.1397      6658.627      -1935.2811      210.91395     -355.41802      43033.811     -30766.4       -523.43849      74983.461      42.168533      42.168533      42.168533      1.1090266     -806.00909      74.550969     -624.64516    
     16800   16800          297.91984     -391.35111      24342.071      24768.857      5487.2144      19281.643      2471.5983      6535.0816     -1906.5279      192.71496     -282.54974      43039.663     -30768.338     -524.88411      74776.944      42.129784      42.129784      42.129784      1.1120895      222.90721     -525.30376     -871.65678    
     16900   16900          299.96851      909.28656      25739.707      24750.106      5524.9476      19225.158      2456.0061      6563.7025     -1932.4185      197.584       -345.57672      43049.534     -30763.673     -525.95396      74624.838      42.101199      42.101199      42.101199      1.1143562      469.16823      853.07127      1405.6202    
     17000   17000          297.39551     -17.933954      24763.087      24782.557      5477.557       19305          2465.4167      6568.9956     -1929.2572      211.66192     -289.74656      43043.597     -30765.668     -527.23475      74443.555      42.06708       42.06708       42.06708       1.1170698     -414.06076      301.34143      58.917466    
     17100   17100          300.73196     -890.90685      23977.125      24943.932      5539.0092      19404.923      2487.655       6649.3576     -1858.9029      201.49672     -357.33471      43050.314     -30767.663     -527.47214      74410.051      42.060768      42.060768      42.060768      1.1175728     -2124.2686     -849.66911      301.21712    
     17200   17200          304.48176      1528.0562      26588.499      24930.189      5608.0746      19322.115      2420.1006      6644.2666     -1896.6071      202.21526     -344.22307      43065.42      -30769.058     -527.44951      74413.244      42.06137       42.06137       42.06137       1.1175249      1775.7509      2154.3511      654.06669    
     17300   17300          300.73522     -684.34914      24084.422      24827.112      5539.0692      19288.043      2527.2055      6649.9506     -1908.6199      214.73683     -446.64846      43020.418     -30769         -527.44511      74413.865      42.061487      42.061487      42.061487      1.1175155     -859.86034     -772.79054     -420.39653    
     17400   17400          299.36692     -489.04747      24249.039      24779.126      5513.8672      19265.259      2532.6409      6458.3993     -1898.4521      203.33448     -279.70137      43020.107     -30771.069     -528.09334      74322.523      42.04427       42.04427       42.04427       1.118889      -630.59578     -406.4473      -430.09933    
     17500   17500          298.05592      59.242412      24816.561      24752.251      5489.7207      19262.53       2509.287       6592.0334     -1929.6744      205.08805     -392.0651       43048.095     -30770.233     -527.30645      74433.433      42.065173      42.065173      42.065173      1.1172217      610.85282     -1935.0618      1501.9362    
     17600   17600          295.34049      460.1777       25248.614      24749.276      5439.7068      19309.569      2438.8519      6586.0113     -1883.3631      200.03438     -293.4062       43026.85      -30765.409     -527.51903      74403.437      42.059522      42.059522      42.059522      1.1176722      126.22713      995.94328      258.36267    
     17700   17700          302.06336     -425.49909      24396.74       24858.264      5563.5315      19294.732      2480.7706      6590.9548     -1924.5122      202.03866     -327.67141      43044.239     -30771.087     -527.72973      74373.732      42.053924      42.053924      42.053924      1.1181186      229.28011     -2107.8093      602.03189    
     17800   17800          305.29296     -49.156109      24890.754      24944.138      5623.0156      19321.123      2439.6116      6631.8401     -1922.0488      201.67734     -311.01683      43050.153     -30769.093     -527.07447      74466.193      42.071344      42.071344      42.071344      1.1167302      364.2853       271.856       -783.60963    
     17900   17900          301.05739      861.50479      25827.411      24889.271      5545.003       19344.268      2479.7188      6606.3289     -1937.178       209.81787     -285.74105      43040.756     -30769.435     -525.65016      74667.967      42.109308      42.109308      42.109308      1.1137125      1651.707      -1805.8081      2738.6155    
     18000   18000          300.95097      567.0637       25386.676      24767.574      5543.043       19224.531      2437.5265      6626.5127     -1982.6659      202.33423     -310.62259      43022.883     -30771.437     -524.29619      74860.794      42.145526      42.145526      42.145526      1.1108438     -88.777275      606.54657      1183.4218    
     18100   18100          302.1935      -1228.3132      23411.78       24754.113      5565.9285      19188.185      2466.3044      6537.155      -1898.9511      207.77049     -384.23451      43030.877     -30770.737     -523.78841      74933.367      42.159141      42.159141      42.159141      1.109768      -888.66338     -449.95759     -2346.3186    
     18200   18200          299.59775     -113.04116      24680.2        24803.469      5518.1187      19285.35       2438.0662      6604.5494     -1936.83        193.94874     -280.54973      43037.129     -30770.963     -524.91634      74772.352      42.128922      42.128922      42.128922      1.1121577     -886.31495     -422.52862      969.72008    
     18300   18300          302.0126       468.46248      25348.472      24838.737      5562.5965      19276.14       2396.9348      6590.5314     -1955.0554      198.52079     -244.25626      43055.072     -30765.607     -526.06294      74609.379      42.098292      42.098292      42.098292      1.1145871      580.88922      312.20774      512.29048    
     18400   18400          300.66934     -171.17557      24642.808      24829.153      5537.8558      19291.297      2535.2348      6502.0639     -1940.8014      199.0954      -292.02245      43052.898     -30765.171     -525.81334      74644.796      42.104952      42.104952      42.104952      1.1140583     -219.40338     -451.99617      157.87284    
     18500   18500          300.96772      33.089484      24799.994      24763.926      5543.3515      19220.575      2362.8802      6587.1522     -1888.9096      198.58807     -305.04318      43037.303     -30771.396     -525.15         74739.083      42.122673      42.122673      42.122673      1.1126528     -160.1678      -688.43924      947.87549    
     18600   18600          295.45883     -572.98512      24096.902      24722.489      5441.8863      19280.603      2491.2349      6558.7247     -1878.2713      191.51895     -341.87336      43032.077     -30772.808     -524.27926      74863.212      42.14598       42.14598       42.14598       1.1108079     -729.08686     -523.34166     -466.52683    
     18700   18700          300.33924      281.89879      25059.275      24751.719      5531.7758      19219.943      2463.2595      6493.5324     -1900.2026      194.55194     -310.62938      43046.616     -30767.185     -524.6576       74809.227      42.135846      42.135846      42.135846      1.1116095      952.24251     -148.54261      41.996469    
     18800   18800          303.99676      1549.3791      26566.355      24876.317      5599.1416      19277.175      2402.489       6515.453      -1891.1199      198.73732     -239.75397      43055.514     -30764.144     -524.76896      74793.351      42.132866      42.132866      42.132866      1.1118455      450.23081      1870.8516      2327.0549    
     18900   18900          301.13215      1883.2276      26959.001      24902.366      5546.38        19355.986      2413.027       6649.4415     -1963.5853      205.90125     -218.69879      43043.614     -30773.714     -524.1463       74882.202      42.149543      42.149543      42.149543      1.1105263      1752.9279      2337.5707      1559.1843    
     19000   19000          301.12259     -1123.5284      23636.303      24865.581      5546.204       19319.377      2573.8731      6545.7197     -1938.0613      210.81665     -330.474        43029.329     -30771.826     -523.16743      75022.31       42.175814      42.175814      42.175814      1.1084523     -1170.306      -1850.4185     -349.8606     
     19100   19100          299.53442     -1423.8801      23148.758      24707.278      5516.9523      19190.326      2472.8988      6517.6844     -1897.0576      207.5386      -371.10021      43030.006     -30769.644     -522.95938      75052.156      42.181407      42.181407      42.181407      1.1080115     -924.41838     -2650.1993     -697.02269    
     19200   19200          296.98418      826.80025      25568.721      24665.567      5469.9809      19195.587      2388.63        6516.078      -1889.0263      192.80733     -296.63791      43054.399     -30770.664     -524.01798      74900.539      42.152983      42.152983      42.152983      1.1102544      666.01902     -345.53615      2159.9179    
     19300   19300          294.9458      -1300.1601      23301.134      24719.224      5432.4372      19286.787      2508.8999      6578.3889     -1874.17        190.45486     -379.48268      43033.669     -30770.973     -524.80732      74787.885      42.131839      42.131839      42.131839      1.1119268     -1045.4962     -1604.8357     -1250.1486    
     19400   19400          298.27007     -254.1047       24512.661      24788.864      5493.665       19295.199      2412.4955      6580.8563     -1912.7311      201.02309     -262.2859       43041.913     -30766.072     -526.6114       74531.673      42.083672      42.083672      42.083672      1.1157491      899.32909     -894.00687     -767.63631    
     19500   19500          298.6641       1233.8893      26193.059      24853.043      5500.9224      19352.121      2446.7656      6563.8109     -1905.327       194.66854     -223.2338       43040.216     -30764.779     -527.07591      74465.99       42.071305      42.071305      42.071305      1.1167333      1806.3631      635.7049       1259.5998    
     19600   19600          303.36469      1178.3317      26209.41       24927.27       5587.4998      19339.77       2447.2654      6595.721      -1913.4561      190.9342      -260.07707      43044.068     -30764.685     -526.06475      74609.123      42.098244      42.098244      42.098244      1.1145909      505.49205      1357.4238      1672.0792    
     19700   19700          304.07499     -364.69178      24580.943      24979.402      5600.5825      19378.819      2500.4865      6610.5022     -1928.8029      202.88077     -292.33756      43053.176     -30767.086     -523.90213      74917.101      42.15609       42.15609       42.15609       1.1100089     -1427.2148      345.5098      -12.370335    
     19800   19800          300.5486      -818.85655      23981.824      24878.61       5535.6319      19342.978      2559.4207      6515.3752     -1871.7636      197.47217     -321.02397      43035.02      -30771.522     -522.66796      75094.002      42.189245      42.189245      42.189245      1.107394      -2195.85       -41.69553      -219.02411    
     19900   19900          299.09259      763.52178      25620.562      24784.319      5508.8146      19275.504      2447.9106      6585.7998     -1882.7215      190.32243     -341.5163       43044.709     -30769         -522.6318       75099.199      42.190218      42.190218      42.190218      1.1073174      640.99382      339.27799      1310.2935    
     20000   20000          299.64054     -686.8771       24042.205      24793.584      5518.9069      19274.677      2416.2335      6578.6295     -1878.1166      198.99751     -309.32772      43031.215     -30762.954     -523.27159      75007.377      42.173016      42.173016      42.173016      1.108673       814.17685     -2351.9053     -522.90284    
     20100   20100          302.51873     -1361.2975      23383.848      24871.279      5571.9187      19299.36       2489.0251      6565.4049     -1896.2313      198.41177     -312.88358      43024.388     -30768.755     -523.86975      74921.733      42.156959      42.156959      42.156959      1.1099403     -2217.6957     -864.66762     -1001.529     
     20200   20200          303.13885      531.44111      25554.044      24973.83       5583.3403      19390.489      2496.942       6626.5884     -1934.2935      204.81129     -251.91802      43019.902     -30771.543     -524.29297      74861.253      42.145612      42.145612      42.145612      1.110837      -608.57954      283.44886      1919.454     
     20300   20300          301.59167     -625.73681      24262.537      24945.746      5554.8436      19390.903      2469.1737      6748.1938     -1939.5823      194.18519     -354.42291      43039.147     -30765.792     -524.2581       74866.234      42.146547      42.146547      42.146547      1.1107631     -800.55482     -392.19914     -684.45646    
     20400   20400          301.46689     -410.95497      24324.43       24772.426      5552.5453      19219.881      2446.1153      6622.801      -1939.1427      195.90658     -382.42921      43043.891     -30767.261     -525.08178      74748.793      42.124497      42.124497      42.124497      1.1125083     -664.45054     -108.5406      -459.87378    
     20500   20500          296.09113      112.49367      24848.404      24726.037      5453.5323      19272.505      2465.0073      6604.511      -1946.0761      215.5364      -323.73834      43028.606     -30771.341     -526.22606      74586.252      42.093942      42.093942      42.093942      1.1149327      359.76535     -1034.9854      1012.701     
     20600   20600          298.68781      1134.3541      25966.95       24735.069      5501.3591      19233.71       2490.4971      6534.8351     -1960.5265      196.78081     -291.42514      43032.693     -30769.145     -527.09224      74463.683      42.070871      42.070871      42.070871      1.1167679      334.76895     -180.00717      3248.3005    
     20700   20700          304.27543      527.77082      25409.109      24836.098      5604.2743      19231.823      2461.6864      6634.372      -1947.7847      190.665       -374.31508      43041.115     -30773.915     -527.21658      74446.121      42.067563      42.067563      42.067563      1.1170313     -232.75206      1322.051       494.01351    
     20800   20800          301.88868     -153.32229      24730.53       24897.14       5560.314       19336.826      2468.529       6622.143      -1893.6249      205.42885     -349.11147      43052.417     -30768.955     -526.75737      74511.02       42.079784      42.079784      42.079784      1.1160584      1226.5734     -842.98118     -843.55916    
     20900   20900          302.92453     -627.86318      24134.419      24817.592      5579.3928      19238.199      2472.0086      6586.4889     -1889.7755      205.10713     -392.85762      43027.63      -30770.403     -526.0673       74608.761      42.098176      42.098176      42.098176      1.1145963     -1068.0273     -419.57511     -395.98712    
     21000   21000          295.05921     -16.239166      24659.219      24676.917      5434.526       19242.391      2452.1354      6560.8418     -1918.2928      199.4077      -322.35927      43033.984     -30763.326     -525.23955      74726.34       42.120279      42.120279      42.120279      1.1128426      464.70945     -662.45213      149.02518    
     21100   21100          298.84382     -486.86122      24183.473      24714.905      5504.2326      19210.673      2379.4071      6601.5136     -1908.6587      190.44378     -322.13939      43036.461     -30766.355     -524.4015       74845.76       42.142704      42.142704      42.142704      1.111067      -771.64585     -406.12759     -282.81022    
     21200   21200          299.58296      802.10496      25685.922      24810.417      5517.8464      19292.57       2513.3726      6508.0248     -1917.4211      200.00336     -286.26136      43045.649     -30770.797     -524.42024      74843.086      42.142203      42.142203      42.142203      1.1111066      62.719083      495.92793      1847.6679    
[...]
    495200   495200         305.21377      620.49073      25588.938      24909.283      5621.557       19287.726      2471.9093      6564.648      -1909.4263      192.99788     -289.34968      43030.467     -30773.521     -522.5812       75106.47       42.191579      42.191579      42.191579      1.1072102      1200.2393     -519.48138      1180.7143    
    495300   495300         301.99602      16.224821      24923.206      24905.416      5562.2911      19343.125      2484.3582      6567.777      -1917.7297      208.32152     -264.44289      43035.593     -30770.752     -522.0403       75184.29       42.206146      42.206146      42.206146      1.1060642     -461.88017      127.79153      382.7631     
    495400   495400         298.20715      21.559738      24799.171      24775.563      5492.5062      19283.057      2384.708       6561.4255     -1911.5264      203.35073     -237.40515      43052.866     -30770.361     -522.75825      75081.032      42.186816      42.186816      42.186816      1.1075853      161.0689       466.77466     -563.16435    
    495500   495500         296.99345     -44.330111      24668.259      24716.683      5470.1517      19246.531      2429.3815      6552.0238     -1881.9218      206.97738     -338.26453      43051.212     -30772.877     -524.02017      74900.227      42.152924      42.152924      42.152924      1.110259       1321.5494     -811.81697     -642.72277    
    495600   495600         300.04352     -745.57888      23929.522      24740.851      5526.3292      19214.522      2487.6991      6516.4813     -1948.5122      208.27793     -281.20377      43008.13      -30776.351     -526.02175      74615.221      42.099391      42.099391      42.099391      1.1144998     -1677.1871     -927.27928      367.72968    
    495700   495700         301.86977      716.04958      25653.688      24877.07       5559.9658      19317.104      2377.4997      6628.8461     -1887.5231      209.7101      -261.78958      43028.988     -30778.627     -527.76797      74368.343      42.052908      42.052908      42.052908      1.1181996      1193.029       875.56077      79.558965    
    495800   495800         301.83979     -22.015149      24890.819      24914.724      5559.4136      19355.31       2508.5042      6612.6944     -1943.3663      208.62744     -282.25462      43025.963     -30774.858     -527.17199      74452.418      42.068749      42.068749      42.068749      1.1169369      376.03724     -298.32642     -143.75628    
    495900   495900         298.94815      246.96545      25128.7        24859.717      5506.1542      19353.563      2562.7397      6521.7813     -1893.031       196.36919     -272.49425      43015.715     -30777.517     -525.55405      74681.623      42.111875      42.111875      42.111875      1.1135089      219.62367      279.88357      241.38911    
    496000   496000         297.29085      632.81345      25474.685      24783.742      5475.6293      19308.113      2450.0266      6557.3151     -1901.8779      214.27603     -269.60035      43031.231     -30773.257     -524.25286      74866.982      42.146687      42.146687      42.146687      1.110752      -233.26201      829.48782      1302.2145    
    496100   496100         297.71493     -453.12302      24262.358      24758.258      5483.4403      19274.817      2502.8182      6587.8915     -1929.4508      194.19765     -341.60681      43033.649     -30772.682     -523.03307      75041.582      42.179425      42.179425      42.179425      1.1081676     -1964.0655      46.524096      558.17236    
    496200   496200         300.86795      82.440913      24909.401      24819.087      5541.5138      19277.573      2428.3522      6555.3322     -1884.571       193.63821     -267.22042      43028.749     -30776.707     -522.51185      75116.438      42.193446      42.193446      42.193446      1.1070633      1020.3877     -2384.4505      1611.3856    
    496300   496300         304.07532     -1246.543       23598.714      24964.734      5600.5886      19364.145      2534.7052      6605.8807     -1895.3889      204.83892     -319.59624      43005.338     -30771.632     -522.34491      75140.445      42.19794       42.19794       42.19794       1.1067096     -2698.4367      607.90071     -1649.0931    
    496400   496400         306.72042      746.33735      25773.651      24958.339      5649.3071      19309.032      2380.8803      6571.6419     -1888.0454      196.82505     -231.08704      43047.489     -30768.671     -523.98467      74905.301      42.153876      42.153876      42.153876      1.1101838      53.870693      1846.6692      338.4721     
    496500   496500         300.68118      255.20493      25108.802      24830.802      5538.0738      19292.729      2444.4188      6548.5556     -1863.7346      201.79139     -268.37845      43010.561     -30780.485     -525.47434      74692.951      42.114004      42.114004      42.114004      1.11334        1538.9019     -188.39367     -584.89348    
    496600   496600         299.43504      543.01764      25374.678      24784.586      5515.1219      19269.464      2425.7451      6557.5705     -1888.0428      208.04422     -294.73101      43035.317     -30774.439     -526.74578      74512.66       42.080093      42.080093      42.080093      1.1160339      1857.8652     -582.66197      353.84966    
    496700   496700         297.74192      885.95741      25752.078      24789.367      5483.9374      19305.43       2408.946       6621.1251     -1900.3838      207.14498     -286.84794      43029.839     -30774.393     -526.7736       74508.726      42.079352      42.079352      42.079352      1.1160928      383.33275      514.58268      1759.9568    
    496800   496800         301.5093       513.66453      25367.62       24808.517      5553.3265      19255.19       2438.4804      6579.1813     -1915.7135      209.30666     -304.94075      43025.448     -30776.572     -525.88972      74633.954      42.102914      42.102914      42.102914      1.1142201      97.399269      699.29567      744.29867    
    496900   496900         303.874       -745.74376      23999.128      24811.752      5596.8805      19214.871      2410.4279      6546.2392     -1883.4398      193.67324     -317.61737      43043.667     -30778.079     -525.29943      74717.822      42.118678      42.118678      42.118678      1.1129694     -533.67422     -1706.9992      3.442187     
    497000   497000         299.97748     -356.5226       24386.023      24775.008      5525.1128      19249.895      2406.0648      6542.8971     -1881.738       193.98586     -287.87212      43048.72      -30772.163     -524.63968      74811.782      42.136326      42.136326      42.136326      1.1115716     -1004.3209      670.98923     -736.23618    
    497100   497100         297.92397     -100.34681      24642.498      24751.897      5487.2905      19264.606      2448.368       6570.5962     -1861.2025      192.68413     -345.03567      43029.403     -30770.207     -525.04533      74753.982      42.125472      42.125472      42.125472      1.112431       14.479039     -499.95773      184.43827    
    497200   497200         303.62125      391.46789      25218.497      24792.306      5592.2253      19200.08       2404.5743      6534.3442     -1885.7326      189.54865     -294.23243      43025.808     -30774.23      -525.77311      74650.507      42.106026      42.106026      42.106026      1.113973      -334.96306      1487.4279      21.938806    
    497300   497300         300.0626      -369.79178      24489.543      24892.379      5526.6805      19365.698      2504.506       6658.7793     -1902.8269      194.40203     -336.00512      43021.771     -30774.928     -525.45543      74695.64       42.11451       42.11451       42.11451       1.1132999     -275.7956       28.08056      -861.6603     
    497400   497400         304.85129     -1145.276       23704.869      24952.398      5614.8807      19337.517      2487.4033      6685.1457     -1909.733       205.11455     -361.52822      43007.079     -30775.963     -525.49234      74690.393      42.113524      42.113524      42.113524      1.1133781     -1958.5176     -666.085       -811.22522    
    497500   497500         299.64384      284.38485      25154.185      24844.674      5518.9677      19325.706      2471.8183      6593.6036     -1887.8168      193.64004     -274.59627      43004.151     -30775.094     -525.94083      74626.702      42.10155       42.10155       42.10155       1.1143284      510.90354     -680.01708      1022.2681    
    497600   497600         300.45371      484.80821      25262.628      24734.516      5533.8842      19200.631      2417.6594      6582.5829     -1945.4221      187.51176     -283.76817      43018.763     -30776.696     -525.47306      74693.133      42.114039      42.114039      42.114039      1.1133373     -332.53975      681.52182      1105.4426    
    497700   497700         300.02629     -1422.0956      23187.858      24739.71       5526.0119      19213.698      2488.2903      6572.0465     -1873.4196      204.71493     -410.94195      43008.547     -30775.539     -524.54827      74824.819      42.138774      42.138774      42.138774      1.1113779     -1606.2636     -687.1502      -1972.8731    
    497800   497800         297.84417      1417.4547      26382.804      24838.255      5485.8206      19352.435      2468.298       6570.6245     -1936.6224      210.44814     -225.60425      43039.509     -30774.219     -525.3086       74716.518      42.118433      42.118433      42.118433      1.1129888      1357.9039      370.56992      2523.8901    
    497900   497900         302.38794      1283.2684      26278.686      24879.659      5569.5097      19310.149      2462.5214      6595.739      -1940.1752      201.28647     -246.9976       43015.605     -30777.829     -525.04718      74753.718      42.125422      42.125422      42.125422      1.112435      -281.33682      1693.4217      2437.7203    
    498000   498000         299.34561     -1416.6536      23275.524      24824.023      5513.4748      19310.549      2480.2475      6628.6192     -1938.8956      199.13635     -308.68298      43022.003     -30771.879     -523.67232      74949.979      42.162256      42.162256      42.162256      1.109522      -689.35324     -1930.6983     -1629.9092    
    498100   498100         297.62628     -747.406        23850.933      24668.53       5481.8074      19186.723      2449.7213      6525.7302     -1897.3066      208.82735     -361.3902       43036.95      -30775.81      -523.26812      75007.875      42.173109      42.173109      42.173109      1.1086656     -876.30663     -584.42259     -781.48877    
    498200   498200         295.75901      988.75556      25742.328      24662.503      5447.4153      19215.088      2435.8917      6455.2324     -1862.9998      207.65362     -281.28974      43036.427     -30775.827     -524.13458      74883.876      42.149857      42.149857      42.149857      1.1105014     -381.10536      1127.9057      2219.4663    
    498300   498300         297.92052      455.39893      25243.447      24746.772      5487.2268      19259.545      2420.045       6555.6666     -1865.985       186.1979      -283.45278      43024.33      -30777.257     -524.83895      74783.377      42.130993      42.130993      42.130993      1.1119938     -618.08347      971.23032      1013.05      
    498400   498400         302.33815      108.36099      24928.194      24810.247      5568.5926      19241.654      2396.9023      6545.2574     -1895.1188      199.0117      -258.29385      43028.428     -30774.533     -525.88557      74634.543      42.103024      42.103024      42.103024      1.1142113      188.97435     -397.29613      533.40473    
    498500   498500         297.14274     -107.15862      24728.827      24845.286      5472.9013      19372.384      2472.7312      6628.1318     -1913.622       219.27085     -275.80692      43021.062     -30779.382     -526.69735      74519.512      42.081383      42.081383      42.081383      1.1159312      284.94698     -872.21774      265.79491    
    498600   498600         302.85366      589.12931      25446.81       24806.005      5578.0876      19227.917      2440.5044      6545.4288     -1894.6394      194.95829     -334.8032       43050.676     -30774.208     -526.24915      74582.979      42.093326      42.093326      42.093326      1.1149816      588.72855      849.28598      329.3734     
    498700   498700         296.95946      715.93811      25439.952      24660.615      5469.5257      19191.09       2350.364       6598.1903     -1948.0597      179.79544     -230.6329       43017.657     -30776.224     -525.84436      74640.392      42.104124      42.104124      42.104124      1.114124       1779.6852      134.63473      233.49438    
    498800   498800         297.37408     -282.02188      24321.774      24629.454      5477.1623      19152.291      2387.6355      6503.7769     -1918.8973      194.29566     -257.53685      43021.729     -30778.712     -524.67633      74806.555      42.135345      42.135345      42.135345      1.1116492      71.741415     -1089.3894      171.58232    
    498900   498900         296.0518       488.40568      25244.633      24710.021      5452.808       19257.213      2407.7526      6634.7764     -1905.36        193.65465     -325.19765      43032.384     -30780.797     -522.93635      75055.461      42.182026      42.182026      42.182026      1.1079627      321.30993      533.04681      610.8603     
    499000   499000         300.29645     -570.76094      24136.28       24761.742      5530.9877      19230.754      2373.3454      6527.8597     -1841.4703      204.55374     -304.9261       43043.929     -30772.537     -522.3483       75139.958      42.197849      42.197849      42.197849      1.1067168     -703.99941     -13.646586     -994.63683    
    499100   499100         300.66415     -294.34855      24521.652      24844.599      5537.7603      19306.839      2474.0146      6512.9443     -1907.593       200.55175     -250.84156      43051.392     -30773.63      -521.72026      75230.411      42.214775      42.214775      42.214775      1.1053861     -1049.8009      325.27754     -158.52229    
    499200   499200         303.0905      -62.697873      24860.415      24929.304      5582.4497      19346.854      2470.7218      6593.1849     -1872.5848      193.17467     -294.33095      43025.928     -30769.239     -520.96446      75339.553      42.23518       42.23518       42.23518       1.1037848      675.70946     -1337.6454      473.84236    
    499300   499300         301.74808      388.25335      25357.607      24931.154      5557.7245      19373.43       2439.6461      6605.3404     -1898.9266      209.99912     -235.07142      43026.936     -30774.494     -521.13644      75314.689      42.230533      42.230533      42.230533      1.1041492      780.991        269.24449      114.52458    
    499400   499400         299.37457     -778.11098      23948.899      24803.545      5514.0081      19289.537      2444.5521      6587.0928     -1898.6695      205.53929     -313.05334      43036.403     -30772.328     -521.14985      75312.752      42.230171      42.230171      42.230171      1.1041776     -535.26906     -564.01909     -1235.0448    
    499500   499500         300.71874      178.40941      24928.276      24732.952      5538.7657      19194.187      2455.5615      6534.7113     -1904.8085      181.34971     -337.04281      43042.272     -30777.857     -522.84109      75069.137      42.184588      42.184588      42.184588      1.1077608     -340.47165      811.96557      63.734311    
    499600   499600         294.34089      700.60097      25528.427      24764.433      5421.2958      19343.137      2472.0627      6478.9924     -1924.4679      210.60634     -157.76106      43040.1       -30776.395     -524.91345      74772.763      42.128999      42.128999      42.128999      1.1121516      489.86592      195.28474      1416.6523    
    499700   499700         301.63971      105.04018      24974.862      24860.346      5555.7285      19304.618      2425.851       6617.6582     -1888.3887      203.1959      -297.57616      43020.218     -30776.34      -525.04563      74753.939      42.125464      42.125464      42.125464      1.1124317      373.8488      -134.34626      75.618008    
    499800   499800         301.81926      1257.8592      26248.091      24873.92       5559.0355      19314.884      2417.836       6544.7034     -1900.8827      199.4098      -202.71478      43031.602     -30775.069     -523.96022      74908.796      42.154532      42.154532      42.154532      1.110132       1232.11       -66.472432      2607.94      
    499900   499900         296.06628     -1051.331       23626.656      24780.453      5453.0746      19327.379      2446.1453      6632.0548     -1917.0898      193.79963     -277.65333      43020.409     -30770.287     -521.57517      75251.338      42.218689      42.218689      42.218689      1.1050787     -1309.4721     -568.65575     -1275.8652    
    500000   500000         294.75512     -376.66448      24253.791      24667.902      5428.9252      19238.976      2479.3306      6500.3519     -1942.5265      198.84105     -247.74213      43027.259     -30776.537     -520.64957      75385.118      42.243692      42.243692      42.243692      1.1031176      125.79963     -1022.3192     -233.47382    
Loop time of 1324 on 1 procs for 500000 steps with 7520 atoms

Performance: 32.628 ns/day, 0.736 hours/ns, 377.642 timesteps/s, 2.840 Matom-step/s
100.0% CPU use with 1 MPI tasks x 1 OpenMP threads

MPI task timing breakdown:
Section |  min time  |  avg time  |  max time  |%varavg| %total
---------------------------------------------------------------
Pair    | 148.26     | 148.26     | 148.26     |   0.0 | 11.20
Bond    | 137.02     | 137.02     | 137.02     |   0.0 | 10.35
Kspace  | 559.12     | 559.12     | 559.12     |   0.0 | 42.23
Neigh   | 123.37     | 123.37     | 123.37     |   0.0 |  9.32
Comm    | 15.116     | 15.116     | 15.116     |   0.0 |  1.14
Output  | 5.6911     | 5.6911     | 5.6911     |   0.0 |  0.43
Modify  | 296.67     | 296.67     | 296.67     |   0.0 | 22.41
Other   |            | 38.76      |            |       |  2.93

Nlocal:           7520 ave        7520 max        7520 min
Histogram: 1 0 0 0 0 0 0 0 0 0
Nghost:          20342 ave       20342 max       20342 min
Histogram: 1 0 0 0 0 0 0 0 0 0
Neighs:              0 ave           0 max           0 min
Histogram: 1 0 0 0 0 0 0 0 0 0
FullNghs:  4.77613e+06 ave 4.77613e+06 max 4.77613e+06 min
Histogram: 1 0 0 0 0 0 0 0 0 0

Total # of neighbors = 4776134
Ave neighs/atom = 635.1242
Ave special neighs/atom = 5.7207447
Neighbor list builds = 17779
Dangerous builds = 0

# --- Cleanup ---
unfix npt_fix
unfix shake_fix
undump dump_npt

# --- Write Output ---
write_dump all custom /home/alexzhao/PolyJarvis/data/PMMA4/lammps/mechanical/bm_series/bm_P0/bm_P0_last.dump id type mol x y z xu yu zu vx vy vz modify sort id
write_data /home/alexzhao/PolyJarvis/data/PMMA4/lammps/mechanical/bm_series/bm_P0/bm_P0_out.data
System init for write_data ...
PPPM Kokkos initialization ...
  using 12-bit tables for long-range coulomb
  G vector (1/distance) = 0.33255906
  grid = 45 45 45
  stencil order = 5
  estimated absolute RMS force accuracy = 0.00029435307
  estimated relative force accuracy = 8.8643552e-07
  using double precision cuFFT
  3d grid and FFT values/proc = 140608 91125
Generated 15 of 15 mixed pair_coeff terms from sixthpower/sixthpower mixing rule

print "STAGE COMPLETE: NPT T=300.0->300.0K P=0.0->0.0atm steps=500000"
STAGE COMPLETE: NPT T=300.0->300.0K P=0.0->0.0atm steps=500000
quit
