units real
atom_style full
boundary p p p

# --- Force Field Styles ---
pair_style lj/class2/coul/long 9.5 9.5
kspace_style pppm 1e-6
dielectric 1.000000
bond_style class2
angle_style class2
dihedral_style class2
improper_style class2
special_bonds lj/coul 0 0 1
pair_modify mix sixthpower tail yes
neighbor 2.0 bin
neigh_modify delay 0 every 1 check yes
neigh_modify one 4000
# KOKKOS: package loaded via -pk kokkos on the command line

read_data /home/arz2/PolyJarvis/data/PEEK3/lammps/nvt_production/nvt_production_out.data
Reading data file ...
  orthogonal box = (4.0461362 4.0461362 4.0461362) to (53.009392 53.009392 53.009392)
  1 by 1 by 1 MPI processor grid
  reading atoms ...
  8720 atoms
  reading velocities ...
  8720 velocities
  scanning bonds ...
  3 = max bonds/atom
  scanning angles ...
  9 = max angles/atom
  scanning dihedrals ...
  18 = max dihedrals/atom
  scanning impropers ...
  4 = max impropers/atom
  orthogonal box = (4.0461362 4.0461362 4.0461362) to (53.009392 53.009392 53.009392)
  1 by 1 by 1 MPI processor grid
  reading bonds ...
  9480 bonds
  reading angles ...
  15104 angles
  reading dihedrals ...
  22512 dihedrals
  reading impropers ...
  4864 impropers
Finding 1-2 1-3 1-4 neighbors ...
  special bond factors lj:    0        0        1       
  special bond factors coul:  0        0        1       
     3 = max # of 1-2 neighbors
     6 = max # of 1-3 neighbors
     9 = max # of special neighbors
  special bonds CPU = 0.005 seconds
  read_data CPU = 0.278 seconds
include /home/arz2/PolyJarvis/data/PEEK3/lammps/cell/emc_build.params
# LAMMPS parameters created by EMC v9.4.4, build Jul 31 2025 20:33:44

# Variables

variable	seed		index	481572
variable	ntotal		index	8720
variable	fshape		index	1
variable	output		index	emc_build
variable	field		index	pcff/pcff
variable	location1	index	/home/arz2/emc/field/
variable	nav		index	0.6022141179
variable	temperature	index	300
variable	radius		index	5
variable	nrelax		index	100
variable	weight_nonbond	index	0.0001
variable	weight_bond	index	0.0001
variable	weight_focus	index	1
variable	cutoff		index	9.5
variable	charge_cutoff	index	9.5
variable	kappa		index	4
variable	density1	index	0.66
variable	lprevious	index	0
variable	lphase		index	57.0555285531
variable	f_poly		index	8
variable	chem_repeat	index	*Oc1ccc(Oc2ccc(C(=O)c3ccc(cc3)*)cc2)cc1
variable	chem_cap	index	*[H]
variable	lg_repeat	index	34
variable	lg_cap		index	1
variable	norm_poly	index	100
variable	l_poly		index	1090
variable	mg_repeat	index	260.29514
variable	mg_cap		index	0
variable	m_poly		index	8329.44448
variable	n_poly		index	8
variable	mtotal		index	73822.38416
variable	nphase1		index	8720
variable	mphase1		index	73822.38416
variable	vphase1		index	185734.764243
variable	lbox		index	57.0555285531
variable	lphase1		index	57.0555285531
variable	lxx		index	57.0555285531
variable	lyy		index	57.0555285531
variable	lzz		index	57.0555285531
variable	lzy		index	0
variable	lzx		index	0
variable	lyx		index	0
variable	vtotal		index	185734.764243
variable	nl_poly		index	8

# Types

variable	type_c_0	index	1
variable	type_cp		index	2
variable	type_hc		index	3
variable	type_ho		index	4
variable	type_o_1	index	5
variable	type_oc		index	6
variable	type_oh		index	7

variable	type_bond_c_0_cp index	1
variable	type_bond_c_0_o_1 index	2
variable	type_bond_cp_cp	index	3
variable	type_bond_cp_hc	index	4
variable	type_bond_cp_oc	index	5
variable	type_bond_cp_oh	index	6
variable	type_bond_ho_oh	index	7

variable	type_angle_c_0_cp_cp index	1
variable	type_angle_cp_c_0_cp index	2
variable	type_angle_cp_c_0_o_1 index	3
variable	type_angle_cp_cp_cp index	4
variable	type_angle_cp_cp_hc index	5
variable	type_angle_cp_cp_oc index	6
variable	type_angle_cp_cp_oh index	7
variable	type_angle_cp_oc_cp index	8
variable	type_angle_cp_oh_ho index	9

# Clusters

variable	n0_poly		index	1
variable	n1_poly		index	8
variable	nl_poly		index	8

# Flags

variable	flag_charged	index	1

# Masses

mass		1    12.01115  # c_0
mass		2    12.01115  # cp
mass		3     1.00797  # hc
mass		4     1.00797  # ho
mass		5    15.99940  # o_1
mass		6    15.99940  # oc
mass		7    15.99940  # oh

# Potentials

pair_modify	mix sixthpower tail yes
special_bonds	lj/coul 0 0 1

# Pair Coeffs

pair_coeff	 1  1    0.12000    3.30800  # c_0,c_0
pair_coeff	 2  2    0.06400    4.01000  # cp,cp
pair_coeff	 3  3    0.02000    2.99500  # hc,hc
pair_coeff	 4  4    0.01300    1.09800  # ho,ho
pair_coeff	 5  5    0.26700    3.30000  # o_1,o_1
pair_coeff	 6  6    0.24000    3.53500  # oc,oc
pair_coeff	 7  7    0.24000    3.53500  # oh,oh

# Bond Coeffs

bond_coeff	1    1.48900  339.35740 -655.72360  670.23620  # c_0,cp
bond_coeff	2    1.21600  823.79480 -1878.79400 2303.53110  # c_0,o_1
bond_coeff	3    1.41700  470.83610 -627.61790 1327.63450  # cp,cp
bond_coeff	4    1.09820  372.82510 -803.45260  894.31730  # cp,hc
bond_coeff	5    1.37680  428.87980 -738.23510 1114.96550  # cp,oc
bond_coeff	6    1.37680  428.87980 -738.23510 1114.96550  # cp,oh
bond_coeff	7    0.96500  532.50620 -1282.90500 2004.76580  # ho,oh

# Angle Coeffs

angle_coeff	1  108.40000   43.95940   -8.39240   -9.33790  # c_0,cp,cp
angle_coeff	2  110.58840   34.62140   -7.09390   -7.40320  # cp,c_0,cp
angle_coeff	3  119.30000   65.10160  -17.97660    0.00000  # cp,c_0,o_1
angle_coeff	4  118.90000   61.02260  -34.99310    0.00000  # cp,cp,cp
angle_coeff	5  117.94000   35.15580  -12.46820    0.00000  # cp,cp,hc
angle_coeff	6  123.42000   73.67810  -21.67870    0.00000  # cp,cp,oc
angle_coeff	7  123.42000   73.67810  -21.67870    0.00000  # cp,cp,oh
angle_coeff	8  109.50000   60.00000    0.00000    0.00000  # cp,oc,cp
angle_coeff	9  108.19000   53.12500   -8.50160    0.00000  # cp,oh,ho

# BondBond Coeffs

angle_coeff	1 bb    0.00000    1.48900    1.41700  # c_0,cp,cp
angle_coeff	2 bb    0.00000    1.48900    1.48900  # cp,c_0,cp
angle_coeff	3 bb    0.00000    1.48900    1.21600  # cp,c_0,o_1
angle_coeff	4 bb   68.28560    1.41700    1.41700  # cp,cp,cp
angle_coeff	5 bb    1.07950    1.41700    1.09820  # cp,cp,hc
angle_coeff	6 bb   48.47540    1.41700    1.37680  # cp,cp,oc
angle_coeff	7 bb   48.47540    1.41700    1.37680  # cp,cp,oh
angle_coeff	8 bb    0.00000    1.37680    1.37680  # cp,oc,cp
angle_coeff	9 bb   20.65770    1.37680    0.96500  # cp,oh,ho

# BondAngle Coeffs

angle_coeff	1 ba    0.00000    0.00000    1.48900    1.41700  # c_0,cp,cp
angle_coeff	2 ba    0.00000    0.00000    1.48900    1.48900  # cp,c_0,cp
angle_coeff	3 ba    0.00000    0.00000    1.48900    1.21600  # cp,c_0,o_1
angle_coeff	4 ba   28.87080   28.87080    1.41700    1.41700  # cp,cp,cp
angle_coeff	5 ba   20.00330   24.21830    1.41700    1.09820  # cp,cp,hc
angle_coeff	6 ba   58.47900  107.68060    1.41700    1.37680  # cp,cp,oc
angle_coeff	7 ba   58.47900  107.68060    1.41700    1.37680  # cp,cp,oh
angle_coeff	8 ba    0.00000    0.00000    1.37680    1.37680  # cp,oc,cp
angle_coeff	9 ba   53.86140   23.92240    1.37680    0.96500  # cp,oh,ho

# Dihedral Coeffs

dihedral_coeff	 1    0.00000    0.00000    4.62820    0.00000    0.00000    0.00000  # c_0,cp,cp,cp
dihedral_coeff	 2    0.00000    0.00000    2.16700    0.00000    0.00000    0.00000  # c_0,cp,cp,hc
dihedral_coeff	 3    0.00000    0.00000    2.50000    0.00000    0.00000    0.00000  # cp,c_0,cp,cp
dihedral_coeff	 4    0.00000    0.00000    0.90630    0.00000    0.00000    0.00000  # cp,cp,c_0,o_1
dihedral_coeff	 5    8.36670    0.00000    1.19320    0.00000    0.00000    0.00000  # cp,cp,cp,cp
dihedral_coeff	 6    0.00000    0.00000    3.96610    0.00000    0.00000    0.00000  # cp,cp,cp,hc
dihedral_coeff	 7    0.00000    0.00000    4.84980    0.00000    0.00000    0.00000  # cp,cp,cp,oc
dihedral_coeff	 8    0.00000    0.00000    4.84980    0.00000    0.00000    0.00000  # cp,cp,cp,oh
dihedral_coeff	 9    0.00000    0.00000    1.80000    0.00000    0.00000    0.00000  # cp,cp,oc,cp
dihedral_coeff	10   -0.69000    0.00000    0.50970    0.00000    0.00950    0.00000  # cp,cp,oh,ho
dihedral_coeff	11    0.00000    0.00000    1.87690    0.00000    0.00000    0.00000  # hc,cp,cp,hc
dihedral_coeff	12    0.00000    0.00000    1.72340    0.00000    0.00000    0.00000  # hc,cp,cp,oc
dihedral_coeff	13    0.00000    0.00000    1.72340    0.00000    0.00000    0.00000  # hc,cp,cp,oh

# MiddleBondTorsion Coeffs

dihedral_coeff	 1 mbt    0.00000    0.00000    0.00000    1.41700  # c_0,cp,cp,cp
dihedral_coeff	 2 mbt    0.00000    0.00000    0.00000    1.41700  # c_0,cp,cp,hc
dihedral_coeff	 3 mbt    0.00000    0.00000    0.00000    1.48900  # cp,c_0,cp,cp
dihedral_coeff	 4 mbt    0.00000    0.00000    0.00000    1.48900  # cp,cp,c_0,o_1
dihedral_coeff	 5 mbt   27.59890   -2.31200    0.00000    1.41700  # cp,cp,cp,cp
dihedral_coeff	 6 mbt    0.00000   -1.15210    0.00000    1.41700  # cp,cp,cp,hc
dihedral_coeff	 7 mbt    0.00000    4.82550    0.00000    1.41700  # cp,cp,cp,oc
dihedral_coeff	 8 mbt    0.00000    4.82550    0.00000    1.41700  # cp,cp,cp,oh
dihedral_coeff	 9 mbt    0.00000    0.00000    0.00000    1.37680  # cp,cp,oc,cp
dihedral_coeff	10 mbt    1.15800    3.26970    3.51320    1.37680  # cp,cp,oh,ho
dihedral_coeff	11 mbt    0.00000    4.82280    0.00000    1.41700  # hc,cp,cp,hc
dihedral_coeff	12 mbt    0.00000    5.54320    0.00000    1.41700  # hc,cp,cp,oc
dihedral_coeff	13 mbt    0.00000    5.54320    0.00000    1.41700  # hc,cp,cp,oh

# EndBondTorsion Coeffs

dihedral_coeff	 1 ebt    0.00000    0.00000    0.00000    0.00000    0.00000    0.00000    1.48900    1.41700  # c_0,cp,cp,cp
dihedral_coeff	 2 ebt    0.00000    0.00000    0.00000    0.00000    0.00000    0.00000    1.48900    1.09820  # c_0,cp,cp,hc
dihedral_coeff	 3 ebt    0.00000    0.00000    0.00000    0.00000    0.00000    0.00000    1.48900    1.41700  # cp,c_0,cp,cp
dihedral_coeff	 4 ebt    0.00000    0.00000    0.00000    0.00000    0.00000    0.00000    1.41700    1.21600  # cp,cp,c_0,o_1
dihedral_coeff	 5 ebt   -0.11850    6.32040    0.00000   -0.11850    6.32040    0.00000    1.41700    1.41700  # cp,cp,cp,cp
dihedral_coeff	 6 ebt    0.00000   -6.89580    0.00000    0.00000   -0.46690    0.00000    1.41700    1.09820  # cp,cp,cp,hc
dihedral_coeff	 7 ebt    0.00000    0.26550    0.00000    0.00000    4.89050    0.00000    1.41700    1.37680  # cp,cp,cp,oc
dihedral_coeff	 8 ebt    0.00000    0.26550    0.00000    0.00000    4.89050    0.00000    1.41700    1.37680  # cp,cp,cp,oh
dihedral_coeff	 9 ebt    0.00000    0.00000    0.00000    0.00000    0.00000    0.00000    1.41700    1.37680  # cp,cp,oc,cp
dihedral_coeff	10 ebt    0.90000   -1.34560    1.19000    3.41320    0.58730   -0.13230    1.41700    0.96500  # cp,cp,oh,ho
dihedral_coeff	11 ebt    0.00000   -0.68900    0.00000    0.00000   -0.68900    0.00000    1.09820    1.09820  # hc,cp,cp,hc
dihedral_coeff	12 ebt    0.00000   -1.58670    0.00000    0.00000    4.26410    0.00000    1.09820    1.37680  # hc,cp,cp,oc
dihedral_coeff	13 ebt    0.00000   -1.58670    0.00000    0.00000    4.26410    0.00000    1.09820    1.37680  # hc,cp,cp,oh

# AngleTorsion Coeffs

dihedral_coeff	 1 at    0.00000    0.00000    0.00000    0.00000    0.00000    0.00000  108.40000  118.90000  # c_0,cp,cp,cp
dihedral_coeff	 2 at    0.00000    0.00000    0.00000    0.00000    0.00000    0.00000  108.40000  117.94000  # c_0,cp,cp,hc
dihedral_coeff	 3 at    0.00000    0.00000    0.00000    0.00000    0.00000    0.00000  110.58840  108.40000  # cp,c_0,cp,cp
dihedral_coeff	 4 at    0.00000    0.00000    0.00000    0.00000    0.00000    0.00000  108.40000  119.30000  # cp,cp,c_0,o_1
dihedral_coeff	 5 at    1.97670    1.02390    0.00000    1.97670    1.02390    0.00000  118.90000  118.90000  # cp,cp,cp,cp
dihedral_coeff	 6 at    0.00000    2.50140    0.00000    0.00000    2.71470    0.00000  118.90000  117.94000  # cp,cp,cp,hc
dihedral_coeff	 7 at    0.00000   10.01550    0.00000    0.00000    1.74040    0.00000  118.90000  123.42000  # cp,cp,cp,oc
dihedral_coeff	 8 at    0.00000   10.01550    0.00000    0.00000    1.74040    0.00000  118.90000  123.42000  # cp,cp,cp,oh
dihedral_coeff	 9 at    0.00000    0.00000    0.00000    0.00000    0.00000    0.00000  123.42000  109.50000  # cp,cp,oc,cp
dihedral_coeff	10 at   -5.13600   -1.01220    0.00000    4.68520    0.02300   -0.59800  123.42000  108.19000  # cp,cp,oh,ho
dihedral_coeff	11 at    0.00000    2.45010    0.00000    0.00000    2.45010    0.00000  117.94000  117.94000  # hc,cp,cp,hc
dihedral_coeff	12 at    0.00000    1.87290    0.00000    0.00000    2.57060    0.00000  117.94000  123.42000  # hc,cp,cp,oc
dihedral_coeff	13 at    0.00000    1.87290    0.00000    0.00000    2.57060    0.00000  117.94000  123.42000  # hc,cp,cp,oh

# AngleAngleTorsion Coeffs

dihedral_coeff	 1 aat    0.00000  108.40000  118.90000  # c_0,cp,cp,cp
dihedral_coeff	 2 aat    0.00000  108.40000  117.94000  # c_0,cp,cp,hc
dihedral_coeff	 3 aat    0.00000  110.58840  108.40000  # cp,c_0,cp,cp
dihedral_coeff	 4 aat    0.00000  108.40000  119.30000  # cp,cp,c_0,o_1
dihedral_coeff	 5 aat    0.00000  118.90000  118.90000  # cp,cp,cp,cp
dihedral_coeff	 6 aat   -4.81410  118.90000  117.94000  # cp,cp,cp,hc
dihedral_coeff	 7 aat  -21.02470  118.90000  123.42000  # cp,cp,cp,oc
dihedral_coeff	 8 aat  -21.02470  118.90000  123.42000  # cp,cp,cp,oh
dihedral_coeff	 9 aat    0.00000  123.42000  109.50000  # cp,cp,oc,cp
dihedral_coeff	10 aat   -4.60720  123.42000  108.19000  # cp,cp,oh,ho
dihedral_coeff	11 aat    0.35980  117.94000  117.94000  # hc,cp,cp,hc
dihedral_coeff	12 aat    4.22960  117.94000  123.42000  # hc,cp,cp,oc
dihedral_coeff	13 aat    4.22960  117.94000  123.42000  # hc,cp,cp,oh

# BondBond13 Coeffs

dihedral_coeff	 1 bb13    0.00000    1.48900    1.41700  # c_0,cp,cp,cp
dihedral_coeff	 2 bb13    0.00000    1.48900    1.09820  # c_0,cp,cp,hc
dihedral_coeff	 3 bb13    0.00000    1.48900    1.41700  # cp,c_0,cp,cp
dihedral_coeff	 4 bb13    0.00000    1.41700    1.21600  # cp,cp,c_0,o_1
dihedral_coeff	 5 bb13   53.00000    1.41700    1.41700  # cp,cp,cp,cp
dihedral_coeff	 6 bb13   -6.27410    1.41700    1.09820  # cp,cp,cp,hc
dihedral_coeff	 7 bb13   -2.24360    1.41700    1.37680  # cp,cp,cp,oc
dihedral_coeff	 8 bb13   -2.24360    1.41700    1.37680  # cp,cp,cp,oh
dihedral_coeff	 9 bb13    0.00000    1.41700    1.37680  # cp,cp,oc,cp
dihedral_coeff	10 bb13    1.15900    1.41700    0.96500  # cp,cp,oh,ho
dihedral_coeff	11 bb13   -1.70770    1.09820    1.09820  # hc,cp,cp,hc
dihedral_coeff	12 bb13    2.05170    1.09820    1.37680  # hc,cp,cp,oc
dihedral_coeff	13 bb13    2.05170    1.09820    1.37680  # hc,cp,cp,oh

# Improper Coeffs

improper_coeff	1   38.79490    0.00000  # c_0,cp,cp,o_1
improper_coeff	2    0.00000    0.00000  # cp,c_0,cp,cp
improper_coeff	3    4.89120    0.00000  # cp,cp,cp,hc
improper_coeff	4   13.04210    0.00000  # cp,cp,cp,oc
improper_coeff	5   13.04210    0.00000  # cp,cp,cp,oh

# AngleAngle Coeffs

improper_coeff	1 aa    0.00000    0.00000    0.00000  110.58840  119.30000  119.30000  # c_0,cp,cp,o_1
improper_coeff	2 aa    0.00000    0.00000    0.00000  108.40000  108.40000  118.90000  # cp,c_0,cp,cp
improper_coeff	3 aa    0.00000    0.00000    0.00000  118.90000  117.94000  117.94000  # cp,cp,cp,hc
improper_coeff	4 aa    0.00000    0.00000    0.00000  118.90000  123.42000  123.42000  # cp,cp,cp,oc
improper_coeff	5 aa    0.00000    0.00000    0.00000  118.90000  123.42000  123.42000  # cp,cp,cp,oh


# --- Thermo Output ---
thermo_style custom step time temp press enthalpy etotal ke pe ebond eangle edihed eimp evdwl ecoul elong etail vol lx ly lz density pxx pyy pzz
thermo_modify flush yes
thermo 1000

# --- Trajectory ---
dump dump_npt all custom 1000 npt_production.dump id type mol x y z ix iy iz vx vy vz

# --- Restart Checkpointing ---
# No restart checkpointing

# --- Initial Velocities (optional) ---
# Velocities read from data file

# --- SHAKE Constraints ---
# SHAKE disabled

# --- NPT Thermostat + Barostat (Nose-Hoover) ---
# T_damp = 100.0 fs  (heat bath coupling)
# P_damp = 1000.0 fs  (pressure bath coupling, ~10x T_damp typical)
# Ramp: T=770.0->770.0K  P=1.0->1.0atm
timestep 1.0
fix npt_fix all npt temp 770.0 770.0 100.0 iso 1.0 1.0 1000.0

run 1000000
PPPM Kokkos initialization ...
  using 12-bit tables for long-range coulomb
  G vector (1/distance) = 0.31205924
  grid = 40 40 40
  stencil order = 5
  estimated absolute RMS force accuracy = 0.00026765245
  estimated relative force accuracy = 8.0602741e-07
  using double precision cuFFT
  3d grid and FFT values/proc = 103823 64000
Generated 21 of 21 mixed pair_coeff terms from sixthpower/sixthpower mixing rule
Neighbor list info ...
  update: every = 1 steps, delay = 0 steps, check = yes
  max neighbors/atom: 4000, page size: 100000
  master list distance cutoff = 11.5
  ghost atom cutoff = 11.5
  binsize = 11.5, bins = 5 5 5
  1 neighbor lists, perpetual/occasional/extra = 1 0 0
  (1) pair lj/class2/coul/long/kk, perpetual
      attributes: full, newton off, kokkos_device
      pair build: full/bin/kk/device
      stencil: full/bin/3d
      bin: kk/device
Per MPI rank memory allocation (min/avg/max) = 37.59 | 37.59 | 37.59 Mbytes
   Step          Time           Temp          Press         Enthalpy        TotEng         KinEng         PotEng         E_bond        E_angle        E_dihed        E_impro         E_vdwl         E_coul         E_long         E_tail         Volume           Lx             Ly             Lz          Density          Pxx            Pyy            Pzz      
         0   0              770.6149      -163.75817      53193.971      53474.314      20028.037      33446.277      8699.6747      8824.5806      9118.1517      1093.5745      300.377        15935.733     -10525.814     -684.82628      117384.53      48.963256      48.963256      48.963256      1.0443023      1772.2111     -1845.8229     -417.66269    
      1000   1000           769.8154      -699.09039      51892.637      53087.287      20007.258      33080.029      8525.0537      8723.2261      9097.1239      1076.7757      233.85284      15953.972     -10529.975     -686.05597      117174.13      48.933985      48.933985      48.933985      1.0461775     -1343.3738     -1251.6764      497.77905    
      2000   2000           780.39558      1593.1827      56769.069      54026.907      20282.234      33744.673      8695.3064      9074.8916      9098.4043      1073.4781      352.28635      15969.535     -10519.229     -681.14498      118018.95      49.051306      49.051306      49.051306      1.0386887      2133.6         182.99392      2462.9542    
      3000   3000           768.63523     -307.71578      52773.548      53303.458      19976.586      33326.873      8615.5086      8658.0485      9209.9413      1085.1866      308.99587      15972.38      -10523.189     -680.79214      118080.11      49.059779      49.059779      49.059779      1.0381506     -817.62893     -1311.5241      1206.0057    
      4000   4000           766.26333     -544.92943      52597.912      53538.891      19914.941      33623.95       8551.7483      8853.3833      9256.9563      1141.5097      392.82595      15954.534     -10527.008     -678.9343       118403.23      49.104487      49.104487      49.104487      1.0353176     -395.03342     -1381.3287      141.57385    
      5000   5000           760.02901      612.22323      53901.037      52858.408      19752.913      33105.495      8430.568       8818.6244      9103.0887      1047.7659      249.50187      15980.924     -10524.978     -688.40997      116773.46      48.878145      48.878145      48.878145      1.0497672     -554.35731      1778.8609      612.16613    
      6000   6000           777.33281      2130.3552      57125.497      53495.218      20202.633      33292.585      8367.7383      8896.4963      9185.4247      1117.1807      259.87798      15985.439     -10519.572     -687.98537      116845.53      48.888198      48.888198      48.888198      1.0491197      1909.6276      4189.1485      292.28945    
      7000   7000           765.79192     -522.82292      52384.884      53293.331      19902.689      33390.641      8595.5283      8897.2989      9086.3785      1094.0229      303.48652      15936.673     -10522.746     -674.71784      119143.16      49.206563      49.206563      49.206563      1.0288878     -825.34936     -125.86213     -617.25727    
      8000   8000           772.38289      1329.6125      55874.335      53587.503      20073.986      33513.516      8758.8312      8859.6363      8967.3496      1094.7687      368.76497      15980.896     -10516.73      -681.64446      117932.47      49.039322      49.039322      49.039322      1.0394503      1754.4064      1706.2975      528.13374    
      9000   9000           772.36821      1501.9146      55773.55       53201.49       20073.605      33127.886      8606.4925      8716.1725      8928.8455      1117.111       336.37247      15942.861     -10519.969     -684.59142      117424.8       48.968855      48.968855      48.968855      1.0439442      2024.469       650.50643      1830.7684    
     10000   10000          773.50811      559.94449      54599.936      53627.012      20103.23       33523.782      8647.5348      8794.8159      9164.8588      1080.0421      405.88226      15955.439     -10524.791     -674.73517      119140.1       49.206142      49.206142      49.206142      1.0289142      653.76466      1377.8287     -351.75994    
     11000   11000          770.12225      755.29479      54756.379      53459.326      20015.233      33444.093      8455.7064      8644.0939      9355.4529      1132.7327      409.92459      15968.5       -10522.318     -682.69344      117751.26      49.014193      49.014193      49.014193      1.0410499      1477.1317     -247.31687      1036.0695    
     12000   12000          769.88046      240.46874      53822.488      53406.087      20008.949      33397.138      8484.1956      8852.9357      9178.4586      1073.8402      350.67783      15976.77      -10519.74      -677.0401       118734.49      49.150239      49.150239      49.150239      1.0324291     -18.501067     -421.10742      1161.0147    
     13000   13000          773.75316      642.91978      54608.014      53496.718      20109.599      33387.119      8452.3738      8786.7764      9237.5693      1106.5467      372.1421       15951.707     -10519.996     -678.25687      118521.49      49.12083       49.12083       49.12083       1.0342845      149.67833      1860.5614     -81.480399    
     14000   14000          764.78063      1210.5599      55360.149      53304.085      19876.406      33427.679      8526.9628      8801.5285      9266.4327      1108.5825      290.99373      15958.464     -10525.286     -690.26642      116459.4       48.834287      48.834287      48.834287      1.0525981      1362.1651      2874.4139     -604.89928    
     15000   15000          782.01273      1535.6663      56466.054      53807.074      20324.263      33482.811      8576.2436      8807.2574      9136.6383      1117.7881      392.56873      15977.319     -10525.004     -677.09403      118725.04      49.148934      49.148934      49.148934      1.0325113      976.10061      2123.7579      1507.1403    
     16000   16000          760.41564     -934.12958      51420.688      53036.308      19762.961      33273.347      8389.2693      8715.4836      9232.983       1094.9837      413.56545      15944.062     -10517         -677.85228      118592.23      49.130601      49.130601      49.130601      1.0336676     -759.6303      -1917.1554     -125.60306    
     17000   17000          768.93887     -893.25403      52040.56       53565.056      19984.477      33580.579      8604.7902      8782.2344      9268.8321      1133.2653      375.39849      15944.006     -10527.947     -686.93549      117024.11      48.913091      48.913091      48.913091      1.0475187     -742.5804      -755.56302     -1181.6187    
     18000   18000          775.47207      210.44132      53766.505      53407.873      20154.273      33253.6        8712.0713      8648.4967      9039.8835      1122.9217      318.32874      15939.563     -10527.666     -687.93656      116853.82      48.889354      48.889354      48.889354      1.0490453      1490.1877      1252.1108     -2110.9745    
     19000   19000          775.90518      30.491496      53767.576      53714.941      20165.53       33549.412      8632.7116      8904.9397      9022.5586      1113.3694      462.81605      15943.856     -10530.839     -679.16263      118363.42      49.098984      49.098984      49.098984      1.0356657     -423.44373      1188.9342     -674.01594    
     20000   20000          768.10583     -1094.6344      51715.236      53587.421      19962.827      33624.594      8727.3785      8776.7828      9333.2397      1109.1003      245.07445      15951.543     -10518.525     -685.46846      117274.56      48.947961      48.947961      48.947961      1.0452816     -1700.4698     -1099.9427     -483.49067    
     21000   21000          772.17354     -134.42478      53223.133      53454.578      20068.545      33386.032      8811.9439      8623.9323      9102.4514      1081.332       337.94206      15954.003     -10525.572     -680.92496      118057.08      49.056589      49.056589      49.056589      1.0383532      991.57131     -1002.5022     -392.34342    
     22000   22000          769.84867     -1000.622       51429.111      53136.856      20008.123      33128.733      8368.2103      8763.6761      9247.402       1091.7157      249.00889      15933.86      -10525.14      -686.93258      117024.6       48.913161      48.913161      48.913161      1.0475143     -401.80397     -1724.4197     -875.64248    
     23000   23000          764.03226     -346.92159      52687.738      53276.244      19856.956      33419.287      8616.3721      8918.4192      9075.0836      1108.0032      278.65921      15942.781     -10520.031     -691.11111      116317.06      48.814383      48.814383      48.814383      1.0538862     -895.70753     -975.04567      829.98843    
     24000   24000          779.74633      799.40662      55155.252      53787.042      20265.36       33521.682      8527.931       8941.4546      9163.5042      1145.4681      304.77137      15955.398     -10516.845     -684.98657      117357.07      48.959437      48.959437      48.959437      1.0445468      101.92436     -1404.5747      3700.8702    
     25000   25000          763.8754       2043.1399      56834.003      53306.21       19852.879      33453.331      8517.1648      8916.8744      9092.6715      1111.0724      379.14559      15955.603     -10519.201     -678.98814      118393.84      49.103189      49.103189      49.103189      1.0353997      1134.0832      1881.9292      3113.4072    
     26000   26000          764.21218     -379.28166      52354.219      53004.787      19861.632      33143.155      8604.1969      8727.9606      9108.3619      1095.4748      186.61852      15948.175     -10527.633     -683.49633      117612.94      48.994993      48.994993      48.994993      1.0422743      322.89464     -276.02203     -1184.7176    
     27000   27000          774.97659      1030.0488      55407.73       53623.791      20141.396      33482.395      8598.3198      8887.6003      8987.6757      1110.0914      487.64534      15938.516     -10527.454     -676.93182      118753.48      49.152859      49.152859      49.152859      1.032264       2434.3052     -151.86284      807.70412    
     28000   28000          767.84347     -1021.5868      51433.423      53191.408      19956.008      33235.399      8609.7564      8766.3425      9024.9673      1098.0625      324.77715      15938.36      -10526.867     -681.28273      117995.08      49.048         49.048         49.048         1.0388987     -3.6272966     -1145.5102     -1915.6229    
     29000   29000          772.94911     -223.50439      52911.782      53297.656      20088.702      33208.953      8327.0697      8741.7222      9187.9828      1103.5618      413.10571      15954.676     -10519.165     -679.05991      118381.33      49.101459      49.101459      49.101459      1.0355091      551.49202     -294.65244     -927.35275    
     30000   30000          761.15341      461.94686      53994.43       53199.183      19782.136      33417.047      8621.8371      8716.4263      9119.5233      1089.4115      487.08579      15908.976     -10526.212     -681.01636      118041.24      49.054394      49.054394      49.054394      1.0384925     -1360.5623      1098.8546      1647.5482    
     31000   31000          774.76376      116.62408      53796.85       53595.165      20135.864      33459.3        8466.6965      8641.0351      9466.1087      1125.1526      332.96478      15952.66      -10525.318     -677.9232       118579.82      49.128888      49.128888      49.128888      1.0337757     -690.18554     -1103.3175      2143.3753    
     32000   32000          764.3947       2332.0772      57356.349      53311.563      19866.376      33445.187      8629.7829      8757.028       9049.2223      1080.5281      491.35909      15962.606     -10525.34      -675.94992      118925.99      49.176648      49.176648      49.176648      1.0307666      1956.6105      2048.3528      2991.2684    
     33000   33000          767.86942      2218.2136      57329.906      53496.569      19956.683      33539.886      8299.917       8840.7686      9313.7219      1173.4545      476.99055      15965.483     -10530.45      -678.41199      118494.39      49.117086      49.117086      49.117086      1.0345211      3440.5644      1774.576       1439.5004    
     34000   34000          787.39997      94.32411       54069.15       53905.031      20464.275      33440.756      8502.0035      8848.7004      9076.7294      1116.9737      444.5161       15968.264     -10516.432     -673.80149      119305.19      49.22886       49.22886       49.22886       1.0274905      82.270847      773.75395     -573.05247    
     35000   35000          774.58291      1208.4127      55434.99       53363.531      20131.164      33232.367      8489.9224      8800.7906      8998.2409      1083.825       410.91579      15970.12      -10521.447     -683.92144      117539.83      48.98484       48.98484       48.98484       1.0429225      1633.5464      1744.527       247.16458    
     36000   36000          780.43703      594.22057      54860.745      53840.826      20283.311      33557.515      8687.31        8672.2853      9249.1935      1110.2681      415.46785      15941.918     -10518.928     -683.04473      117690.7       49.005789      49.005789      49.005789      1.0415856     -849.84279      1638.7989      993.70558    
     37000   37000          771.82435     -74.089349      53286.876      53415.313      20059.47       33355.843      8484.908       8741.2666      9195.0112      1071.0366      423.31309      15964.975     -10524.668     -676.28908      118866.35      49.168426      49.168426      49.168426      1.0312838     -1369.3159     -17.096455      1164.1443    
     38000   38000          778.58647     -306.13659      53171.586      53702.105      20235.215      33466.89       8670.4341      8736.5402      9073.9758      1082.6716      449.15376      15962.468     -10508.353     -676.52134      118825.54      49.162799      49.162799      49.162799      1.031638       326.07899     -118.65417     -1125.8346    
     39000   39000          772.29924      1230.7771      55312.97       53205.937      20071.812      33134.125      8365.9132      8697.2524      9194.0761      1136.0114      310.56445      15954.639     -10524.332     -684.81801      117385.95      48.963453      48.963453      48.963453      1.0442897      1135.2097      2592.9251     -35.803621    
     40000   40000          756.44991     -169.60205      52881.041      53176.399      19659.893      33516.506      8596.8781      8729.0391      9217.5806      1122.7865      400.98191      15963.704     -10514.464     -673.20959      119410.08      49.243283      49.243283      49.243283      1.0265879      1165.7952     -1587.8025     -86.798786    
     41000   41000          776.33571     -116.23637      53310.191      53509.334      20176.719      33332.616      8453.6625      8709.1306      9283.8618      1128.8849      304.00112      15965.589     -10512.514     -684.29382      117475.87      48.975953      48.975953      48.975953      1.0434904      1064.7613     -1282.1699     -131.30047    
     42000   42000          765.33775     -1497.7866      50764.047      53350.889      19890.885      33460.004      8536.2895      8958.6291      9145.9313      1094.7085      272.58236      15966.781     -10514.918     -678.80858      118425.16      49.107519      49.107519      49.107519      1.0351259     -2556.8227     -384.51579     -1552.0212    
     43000   43000          772.70812      89.930148      53825.883      53667.661      20082.439      33585.222      8459.4044      9027.0847      9166.7534      1099.9249      398.60421      15954.371     -10520.921     -666.35472      120638.47      49.411565      49.411565      49.411565      1.0161348      185.29073      545.94923     -461.44952    
     44000   44000          771.24502      387.59594      53955.688      53289.229      20044.413      33244.815      8634.1653      8842.3665      8871.8699      1070.9418      381.60606      15954.361     -10510.496     -681.82519      117901.21      49.034989      49.034989      49.034989      1.0397259      207.72628     -775.82667      1730.8882    
     45000   45000          767.92369      1164.1762      55385.229      53389.619      19958.093      33431.526      8785.4383      8741.8327      8965.7608      1156.1749      358.4482       15947.127     -10523.256     -683.92765      117538.77      48.984692      48.984692      48.984692      1.042932      -68.093969      220.87119      3339.7515    
     46000   46000          765.77902      1614.6629      56258.443      53484.19       19902.354      33581.836      8791.7209      8797.2618      9045.6927      1121.7446      383.1888       15958.652     -10516.425     -682.34346      117811.66      49.022571      49.022571      49.022571      1.0405162      1741.7457      1395.8962      1706.3468    
     47000   47000          778.18895     -608.87614      52531.039      53578.593      20224.884      33353.709      8682.1524      8743.6732      9176.7839      1110.9471      212.475        15944.409     -10516.732     -681.4277       117969.98      49.044522      49.044522      49.044522      1.0391198      465.17332     -887.13113     -1404.6706    
     48000   48000          767.04563     -36.068016      53235.3        53296.966      19935.273      33361.693      8462.8774      8903.6672      9138.2134      1095.6142      308.41615      15963.031     -10510.127     -685.71536      117232.33      48.942086      48.942086      48.942086      1.0456581     -213.75351      811.56186     -706.01239    
     49000   49000          759.26681     -1500.2124      50131.706      52672.999      19733.104      32939.895      8132.958       8621.9118      9469.4963      1122.275       153.78614      15958.531     -10519.064     -692.09429      116151.82      48.791257      48.791257      48.791257      1.0553854     -560.14778     -2881.2587     -1059.2308    
     50000   50000          768.59215      432.40025      54309.613      53569.214      19975.466      33593.748      8564.6453      9004.2012      9108.9589      1089.192       412.56787      15936.275     -10522.092     -684.67948      117409.7       48.966755      48.966755      48.966755      1.0440785      1344.6842      313.98841     -361.47183    
     51000   51000          762.97808     -194.81292      52793.624      53126.824      19829.558      33297.266      8302.7071      8727.5196      9422.8515      1169.8248      228.59005      15961.173     -10515.401     -685.45531      117276.81      48.948274      48.948274      48.948274      1.0452616      209.71022     -414.15331     -379.99567    
     52000   52000          761.68095      1253.6009      55260.599      53146.749      19795.846      33350.902      8568.2961      8887.8748      9128.245       1136.4969      224.67013      15926.837     -10521.518     -695.26812      115621.6       48.716902      48.716902      48.716902      1.0602253      1779.9029      795.05006      1185.8499    
     53000   53000          776.8878       192.72508      53858.37       53526.637      20191.068      33335.569      8593.7941      8963.8085      8923.4516      1115.3862      317.84429      15944.581     -10523.296     -681.10764      118025.42      49.052203      49.052203      49.052203      1.0386317      732.89398      432.48252     -587.20126    
     54000   54000          772.40506      944.8226       55177.525      53555.099      20074.563      33480.537      8456.4807      8989.7435      9100.8478      1144.436       349.31038      15959.559     -10519.841     -682.73549      117744.01      49.013187      49.013187      49.013187      1.0411141      2351.0298      3024.6144     -2541.1763    
     55000   55000          756.10493     -516.00441      52231.836      53117.906      19650.927      33466.978      8589.2012      8943.0167      9104.7817      1117.4659      262.22508      15969.662     -10519.374     -682.73628      117743.87      49.013168      49.013168      49.013168      1.0411153     -1035.9236     -1715.1747      1203.085     
     56000   56000          766.62677      139.38448      53592.782      53356.96       19924.387      33432.573      8525.9765      8901.6332      9259.4831      1109.162       176.36097      15973.989     -10514.032     -692.94115      116009.87      48.771373      48.771373      48.771373      1.0566768      165.49379     -697.50425      950.1639     
     57000   57000          768.24122      1082.2691      55092.182      53223.971      19966.346      33257.625      8479.2606      8632.5223      9158.0555      1112.7711      438.64843      15955.194     -10518.827     -679.16674      118362.71      49.098885      49.098885      49.098885      1.035672       1179.2557      944.75562      1122.796     
     58000   58000          772.69783      1045.996       55386.447      53609.903      20082.171      33527.731      8642.8033      8978.9966      9031.2924      1124.1299      278.25805      15986.262     -10514.012     -690.27348      116458.21      48.83412       48.83412       48.83412       1.0526089      676.09585      1022.807       1439.0853    
     59000   59000          768.14642      290.92028      53575.046      53077.593      19963.882      33113.711      8547.9752      8682.5222      9055.9307      1097.804       301.51158      15950.683     -10522.716     -685.62893      117247.11      48.944142      48.944142      48.944142      1.0455263      1050.7604     -1301.6985      1123.699     
     60000   60000          774.61611     -506.9806       52625.579      53487.634      20132.027      33355.607      8517.895       8768.1808      9176.7416      1150.7532      300.23221      15960.113     -10518.308     -689.4828       116591.76      48.85278       48.85278       48.85278       1.0514031     -1290.2811     -201.66133     -28.999363    
     61000   61000          778.74337     -388.9893       52840.489      53504.617      20239.293      33265.323      8515.9367      8818.6925      9074.9447      1101.5518      334.77754      15942.091     -10522.671     -686.67833      117067.93      48.919197      48.919197      48.919197      1.0471266      353.92638     -1982.8224      461.92816    
     62000   62000          768.36208      2022.6009      56716.648      53247.687      19969.487      33278.201      8680.6275      8859.6801      8822.5487      1044.8671      427.43428      15957.038     -10513.996     -683.56207      117601.63      48.993423      48.993423      48.993423      1.0423745      1837.6963      679.0842       3551.022     
     63000   63000          776.51957      443.57468      54453.674      53690.875      20181.497      33509.378      8762.6102      8753.9208      9133.5892      1113.3347      312.23122      15952.331     -10518.639     -681.74816      117914.53      49.036836      49.036836      49.036836      1.0396085      795.72329      1573.0714     -1038.0706    
     64000   64000          759.42608     -600.18921      52073.566      53102.022      19737.243      33364.779      8668.7299      8756.8996      9151.7938      1123.7501      243.50405      15936.863     -10516.761     -684.179        117495.59      48.978692      48.978692      48.978692      1.0433153     -911.94358      341.54724     -1230.1713    
     65000   65000          769.77421      418.91921      53560.344      52850.659      20006.188      32844.471      8356.414       8726.7856      9082.1646      1090.057       181.92391      15934.63      -10527.504     -692.04121      116160.73      48.792505      48.792505      48.792505      1.0553045      1436.3078     -184.15633      4.6061402    
     66000   66000          770.70186     -576.52878      52042.243      53020.085      20030.297      32989.788      8412.865       8710.5336      9192.1951      1039.6134      186.1719       15973.684     -10525.275     -691.22486      116297.92      48.811705      48.811705      48.811705      1.0540596     -2499.6957     -172.13145      942.24084    
     67000   67000          783.73886     -469.42915      52948.383      53751.391      20369.124      33382.266      8447.713       8920.3576      9086.0979      1103.9424      384.60635      15959.388     -10519.839     -685.35819      117293.43      48.950586      48.950586      48.950586      1.0451135     -187.83954     -618.24465     -602.20328    
     68000   68000          772.6651       528.10923      54160.534      53260.015      20081.321      33178.694      8640.8163      8732.8575      9040.1994      1086.5722      238.01235      15958.149     -10517.913     -687.5397       116921.27      48.898759      48.898759      48.898759      1.0484401      1363.6166      781.80157     -561.09048    
     69000   69000          778.24288     -1799.9291      50616.627      53691.483      20226.286      33465.198      8510.7937      8798.1035      9378.8141      1117.3508      212.69297      15969.937     -10522.494     -686.27431      117136.85      48.928795      48.928795      48.928795      1.0465105     -1667.0872     -2054.2761     -1678.4241    
     70000   70000          768.3517      -2293.2579      49277.821      53180.603      19969.217      33211.386      8508.6317      8918.3088      9049.5428      1069.7151      217.3854       15965.282     -10517.48      -688.88357      116693.18      48.866941      48.866941      48.866941      1.0504894     -1451.2789     -4608.3469     -820.14769    
     71000   71000          760.91381     -934.90132      51954.25       53561.774      19775.909      33785.865      8667.8726      8880.1436      9428.5862      1149.9909      189.68854      15984.114     -10514.531     -681.82911      117900.53      49.034895      49.034895      49.034895      1.0397319      919.72881     -1779.0181     -1945.4147    
     72000   72000          771.1119      -725.46662      52063.276      53316.697      20040.954      33275.744      8478.4924      8869.747       9127.4221      1075.6842      323.00391      15936.077     -10534.683     -678.55895      118468.72      49.11354       49.11354       49.11354       1.0347452     -298.90922     -737.07807     -1140.4126    
     73000   73000          768.14272     -1870.9726      50483.48       53673.278      19963.786      33709.492      8697.8315      8780.942       9435.5568      1123.2876      207.90706      15984.653     -10520.686     -687.65642      116901.42      48.895992      48.895992      48.895992      1.0486181     -835.69364     -4042.2515     -734.97247    
     74000   74000          764.38969     -810.61597      52112.207      53528.59       19866.246      33662.345      8558.2673      8987.2239      9255.9597      1103.2195      343.51521      15943.17      -10529.011     -670.96756      119809.09      49.298071      49.298071      49.298071      1.023169       545.3742      -1388.8213     -1588.4008    
     75000   75000          765.05053     -992.85111      51178.918      52868.854      19883.421      32985.433      8369.6512      8820.2095      8984.658       1086.4746      315.0559       15930.164     -10520.78      -688.78109      116710.54      48.869365      48.869365      48.869365      1.0503331     -412.61497     -1263.2535     -1302.6849    
     76000   76000          768.82078     -441.18729      52716.597      53472.406      19981.408      33490.997      8502.5357      9070.0388      9093.6339      1071.5691      306.09054      15957.909     -10510.78      -684.35044      117466.15      48.974602      48.974602      48.974602      1.0435767      3.4446906     -550.99521     -776.01135    
     77000   77000          768.36036     -1493.8457      50468.196      53030.623      19969.442      33061.181      8253.8439      8838.2562      9240.4426      1108.2834      189.96398      15948.695     -10518.304     -683.4729       117616.97      48.995553      48.995553      48.995553      1.0422385     -1569.3745     -887.34211     -2024.8204    
     78000   78000          767.07639     -1597.6771      50511.117      53254.94       19936.072      33318.868      8286.5116      9118.1836      9136.0628      1112.1351      236.42165      15948.569     -10519.016     -682.65318      117758.21      49.015156      49.015156      49.015156      1.0409885     -2090.7312      93.259595     -2795.5596    
     79000   79000          776.28675      1265.9508      55883.337      53726.339      20175.446      33550.892      8666.9935      8925.0372      9057.0787      1115.7514      367.0909       15939.965     -10521.025     -688.07266      116830.7       48.886131      48.886131      48.886131      1.0492528      2085.0285      276.76157      1436.0624    
     80000   80000          758.42995      1023.0142      54756.119      53031.539      19711.354      33320.185      8485.1869      8825.7731      9157.8983      1115.2207      272.63567      15978.055     -10514.584     -695.4491       115591.51      48.712675      48.712675      48.712675      1.0605012     -643.69211      1243.6213      2469.1133    
     81000   81000          754.82972     -1081.3727      51396.575      53246.517      19617.785      33628.732      8562.9354      9091.7787      9163.4999      1102.8844      278.86216      15947.028     -10518.257     -685.30604      117302.36      48.951828      48.951828      48.951828      1.0450339     -1104.6644      579.15374     -2718.6075    
     82000   82000          779.3707       1992.3048      57022.47       53629.084      20255.597      33373.487      8655.2773      8751.0975      9112.7866      1077.0826      297.70477      15986.161     -10506.623     -688.31894      116788.9       48.8803        48.8803        48.8803        1.0496283      997.62427      1013.1587      3966.1316    
     83000   83000          776.93506      908.87709      55269.408      53705.327      20192.296      33513.032      8789.8488      8803.4272      8988.8063      1078.5235      415.07033      15953.86      -10516.504     -681.2604       117998.95      49.048536      49.048536      49.048536      1.0388647      1955.1627     -804.13581      1575.6044    
     84000   84000          772.6302      -34.556289      53502.539      53561.561      20080.414      33481.147      8530.9144      9000.8335      9103.2855      1074.6096      324.74362      15961.774     -10515.013     -686.40596      117114.39      48.925666      48.925666      48.925666      1.0467112     -598.44073      912.56752     -417.79566    
     85000   85000          769.43009     -2095.5531      49631.021      53235.089      19997.244      33237.845      8215.9517      8860.3209      9415.9522      1070.6215      249.23455      15944.498     -10518.734     -681.66792      117928.41      49.03876       49.03876       49.03876       1.0394861     -2641.1376     -1990.9074     -1654.6143    
     86000   86000          763.52627     -1157.9798      51103.899      53074.956      19843.806      33231.15       8459.6154      8804.8293      9216.0441      1105.2426      211.59135      15957.877     -10524.049     -688.76151      116713.86      48.869828      48.869828      48.869828      1.0503032     -1061.5985     -1869.433      -542.90787    
     87000   87000          775.75512     -463.75446      52576.84       53377.149      20161.63       33215.52       8559.1948      8566.9947      9233.9964      1074.8655      368.04807      15943.387     -10530.967     -679.35613      118329.71      49.094322      49.094322      49.094322      1.0359608     -294.79054     -954.36217     -142.11067    
     88000   88000          784.18909     -64.675566      53652.97       53764.914      20380.826      33384.088      8601.8414      8808.6568      9128.3608      1084.6483      326.72752      15963.936     -10530.082     -677.34255      118681.47      49.142922      49.142922      49.142922      1.0328903     -887.71532      606.30426      87.384357    
     89000   89000          763.91846      1801.8214      56628.102      53469.606      19853.998      33615.607      8664.5717      8882.8717      9009.3069      1100.114       505.87895      15965.885     -10513.021     -668.8034       120196.78      49.351187      49.351187      49.351187      1.0198688      660.74011      3389.8267      1354.8974    
     90000   90000          766.07805      283.10147      53977.398      53483.089      19910.126      33572.963      8679.4641      8772.0785      9091.2613      1092.5837      493.44827      15959.179     -10515.051     -671.44594      119723.73      49.28636       49.28636       49.28636       1.0238984      616.22728     -103.22824      336.30538    
     91000   91000          764.9918       958.37812      54599.962      52945.743      19881.894      33063.848      8550.0707      8859.0622      8821.1988      1039.1666      334.58919      15972.709     -10512.948     -679.22069      118353.3       49.097585      49.097585      49.097585      1.0357543      1433.5038     -1239.3517      2680.9823    
     92000   92000          778.73274      1470.118       56103.58       53572.16       20239.017      33333.143      8710.8322      8655.1131      9048.0605      1081.8018      391.14986      15966.32      -10520.135     -680.85576      118069.08      49.058251      49.058251      49.058251      1.0382476      923.8889       1224.0055      2262.4595    
     93000   93000          762.67499     -739.40401      51912.175      53183.741      19821.681      33362.06       8588.6448      8899.7818      9071.1549      1079.3546      303.78652      15936.384     -10517.047     -681.72626      117918.32      49.037361      49.037361      49.037361      1.0395751     -125.27789     -1597.3337     -495.60048    
     94000   94000          773.51342     -224.36223      52964.587      53348.877      20103.369      33245.509      8587.3231      8749.9502      9182.4352      1078.8732      208.88183      15959.349     -10521.304     -684.4756       117444.67      48.971617      48.971617      48.971617      1.0437676     -152.14705     -1800.8969      1279.9573    
     95000   95000          758.11565     -1048.4396      51175.593      52970.486      19703.185      33267.3        8611.7889      8523.4517      9203.8301      1095.4423      370.68564      15974.68      -10512.578     -684.81319      117386.78      48.963568      48.963568      48.963568      1.0442824     -996.79907     -823.68979     -1324.83      
     96000   96000          769.71132     -1399.8309      51067.14       53479.385      20004.553      33474.831      8476.3772      8757.4797      9379.8956      1168.3451      247.1191       15964.634     -10519.02      -680.33291      118159.82      49.070815      49.070815      49.070815      1.0374503     -2325.737      -35.550629     -1838.2051    
     97000   97000          777.70799      631.60499      54531.05       53443.782      20212.384      33231.398      8541.5994      8761.3187      9040.6608      1082.5883      374.85207      15950.044     -10519.666     -681.0454       118036.2       49.053697      49.053697      49.053697      1.0385368      2563.1241      363.31151     -1031.6207    
     98000   98000          772.53743     -324.93246      53005.581      53557.167      20078.003      33479.165      8617.7715      8782.9757      9288.758       1142.7186      220.40193      15956.21      -10529.672     -690.63182      116397.78      48.825673      48.825673      48.825673      1.0531553     -1905.0954      984.96433     -54.666337    
     99000   99000          769.23781     -1076.4153      51310.79       53162.053      19992.247      33169.806      8540.7184      8733.7986      9081.5926      1072.5641      313.05953      15954.337     -10526.264     -681.67744      117926.76      49.038532      49.038532      49.038532      1.0395006     -950.24824     -1663.1584     -615.83922    
    100000   100000         765.39878      1007.7592      55231.43       53511.627      19892.472      33619.156      8724.1278      8790.3714      9166.8744      1139.105       356.27223      15969.4       -10526.995     -686.98197      117016.19      48.911988      48.911988      48.911988      1.0475896      2581.9444     -125.06922      566.40258    
    101000   101000         771.19094      852.45026      54778.446      53308.977      20043.008      33265.969      8498.2724      8842.4526      9071.0294      1099.9482      297.43577      15981.793     -10524.963     -680.10478      118199.45      49.076301      49.076301      49.076301      1.0371024      3668.074      -589.57579     -521.14747    
    102000   102000         762.56564     -1081.4401      51482.038      53346.308      19818.839      33527.469      8578.2087      8820.9208      9227.3635      1116.1522      383.15482      15928.628     -10526.959     -680.08131      118203.53      49.076866      49.076866      49.076866      1.0370667     -1407.7426     -2848.1479      1011.5701    
    103000   103000         771.40157     -1167.9214      51290.173      53286.281      20048.482      33237.799      8517.7896      8750.7116      9310.7403      1052.2467      173.92548      15956.335     -10523.95      -685.9569       117191.06      48.93634       48.93634       48.93634       1.0460264     -2291.7575     -1045.0375     -166.96926    
    104000   104000         774.31825     -856.91014      52356.286      53825.2        20124.286      33700.914      8640.4749      8964.5098      9230.1959      1137.2114      308.0341       15948.046     -10527.558     -683.92108      117539.9       48.984848      48.984848      48.984848      1.042922      -2564.5285     -2088.2164      2082.0145    
    105000   105000         767.87084      1197.0606      55286.379      53259.35       19956.72       33302.63       8720.5517      8643.4164      9096.9208      1099.984       334.059        15940.054     -10532.356     -692.34633      116109.54      48.785336      48.785336      48.785336      1.0557698      1772.7392     -509.5926       2328.0352    
    106000   106000         778.24928      571.87623      54505.977      53526.629      20226.452      33300.177      8616.6419      8780.0537      9119.5955      1072.4208      270.49861      15962.796     -10521.829     -684.59263      117424.6       48.968826      48.968826      48.968826      1.043946       1150.7457     -850.29996      1415.1829    
    107000   107000         781.66727     -677.49085      52726.035      53876.628      20315.284      33561.344      8631.2872      8792.5776      9222.4121      1153.2781      301.868        15975.064     -10515.144     -690.31736      116450.81      48.833086      48.833086      48.833086      1.0526758     -1933.7357     -16.613481     -82.12338     
    108000   108000         768.11454      220.17059      53734.436      53352.877      19963.053      33389.824      8670.4648      8766.7397      9037.3892      1089.8031      382.75873      15965.809     -10523.141     -676.49455      118830.25      49.163448      49.163448      49.163448      1.0315971      373.26762      3.0798628      284.16429    
    109000   109000         780.47027      143.69668      53967.732      53721.531      20284.175      33437.356      8516.7521      8803.62        9252.6795      1157.4355      263.74072      15970.212     -10527.084     -684.26663      117480.54      48.976601      48.976601      48.976601      1.0434489     -534.97072     -414.73172      1380.7925    
    110000   110000         768.57881      1351.3248      55924.042      53600.714      19975.12       33625.595      8637.573       8911.4825      9139.4164      1132.6701      396.17601      15935.231     -10526.955     -681.89334      117889.42      49.033355      49.033355      49.033355      1.0398299      1990.3645      1191.6983      871.91171    
    111000   111000         771.64321      1533.8975      55693.844      53099.602      20054.762      33044.839      8291.657       8798.0312      9115.5115      1097.4943      320.78852      15954.53      -10533.173     -693.19102      115968.05      48.765512      48.765512      48.765512      1.0570579      1374.7095      1274.7299      1952.2531    
    112000   112000         775.03809      477.58274      54130.17       53310.091      20142.994      33167.097      8550.4318      8773.7046      8945.8966      1097.9262      348.72427      15980.702     -10530.288     -682.74799      117741.85      49.012887      49.012887      49.012887      1.0411331     -195.61218      176.80201      1451.5584    
    113000   113000         765.77801     -2196.5571      49328.246      53084.35       19902.327      33182.022      8410.8698      8757.2544      9205.9658      1128.8193      214.9919       15980.402     -10516.281     -685.6021       117251.7       48.94478       48.94478       48.94478       1.0454854     -2459.9868     -1150.7386     -2978.9459    
    114000   114000         781.91045     -245.74556      53103.838      53525.307      20321.605      33203.702      8444.0715      8610.5328      9302.7374      1111.7952      269.52861      15972.878     -10507.842     -683.5771       117599.04      48.993063      48.993063      48.993063      1.0423974      918.19644     -1451.0809     -204.35224    
    115000   115000         772.74489     -67.042234      53502.609      53617.53       20083.395      33534.136      8548.5123      8925.4399      9116.1772      1078.6141      431.93511      15945.775     -10512.318     -683.93434      117537.62      48.984532      48.984532      48.984532      1.0429422     -415.22846     -1687.3285      1901.4302    
    116000   116000         783.27815     -1343.3585      51428.283      53749.888      20357.151      33392.738      8517.1459      8819.2643      9238.5531      1106.518       272.9731       15952.692     -10514.409     -678.37632      118500.62      49.117947      49.117947      49.117947      1.0344667     -2520.9147      872.63464     -2381.7953    
    117000   117000         768.63662      663.72378      54566.638      53445.919      19976.622      33469.297      8531.4665      9015.2076      9101.9288      1103.765       286.99218      15953.306     -10523.369     -694.31714      115779.96      48.739133      48.739133      48.739133      1.0587751      700.61219      1205.6276      84.931541    
    118000   118000         768.11912     -286.94622      52632.963      53124.11       19963.172      33160.938      8527.4897      8778.9244      9048.1689      1082.5861      261.5586       15983.255     -10521.045     -684.94485      117364.21      48.960431      48.960431      48.960431      1.0444831     -831.03286      547.21616     -577.02195    
    119000   119000         763.82789      1593.1333      55773.072      53070.156      19851.645      33218.511      8638.3206      8786.2315      9036.8482      1110.7602      222.08707      15949.447     -10525.184     -691.0137       116333.46      48.816677      48.816677      48.816677      1.0537376      1514.9486      1410.864       1853.5873    
    120000   120000         774.49826      290.89724      54002.291      53510.179      20128.964      33381.215      8794.7794      8615.1723      9171.2291      1152.0562      221.13838      15954.806     -10527.966     -693.01547      115997.43      48.769629      48.769629      48.769629      1.0567902      1791.8891     -113.09604     -806.1013     
    121000   121000         763.00383      254.41249      53591.174      53155.325      19830.227      33325.097      8464.7959      8922.9738      9175.9465      1101.1899      199.83176      15985.264     -10524.905     -684.33572      117468.68      48.974953      48.974953      48.974953      1.0435543      659.21806      2074.7879     -1970.7685    
    122000   122000         771.04497     -508.30208      52280.817      53139.682      20039.214      33100.467      8588.3773      8568.6479      9218.4371      1090.6462      191.03922      15964.835     -10521.516     -693.84788      115858.27      48.750119      48.750119      48.750119      1.0580595     -849.34728     -1849.5924      1174.0335    
    123000   123000         765.49349     -552.51686      52409.407      53360.261      19894.933      33465.328      8688.3584      8774.9389      9093.9915      1106.1235      354.42186      15961.818     -10514.324     -681.23846      118002.75      49.049063      49.049063      49.049063      1.0388312      32.546771      542.90867     -2233.006     
    124000   124000         764.33866      76.931935      53057.532      52926.6        19864.919      33061.681      8452.7278      8721.2582      9081.7472      1086.886       267.80715      15966.648     -10515.393     -688.85786      116697.53      48.867549      48.867549      48.867549      1.0504502     -1535.9542      849.35703      917.39293    
    125000   125000         770.90434     -312.57711      52846.014      53382.394      20035.559      33346.835      8577.9257      8858.5893      9122.8778      1097.2008      270.18042      15943.189     -10523.128     -683.20602      117662.92      49.001932      49.001932      49.001932      1.0418316     -3255.8604      2089.7343      228.39476    
    126000   126000         776.93235     -1565.6834      51030.72       53690.564      20192.225      33498.338      8643.6617      8768.5929      9268.7583      1095.6435      266.14925      15970.513     -10514.98      -690.10463      116486.7       48.838103      48.838103      48.838103      1.0523514      247.60986     -2141.3606     -2803.2994    
    127000   127000         761.23191     -1006.2259      51466.123      53183.32       19784.176      33399.144      8433.0467      8825.0398      9236.9323      1130.5311      349.45153      15950.543     -10526.401     -686.97785      117016.89      48.912086      48.912086      48.912086      1.0475833      10.239835     -3326.4648      297.54716    
    128000   128000         775.49345     -743.18451      52430.249      53707.076      20154.829      33552.248      8668.2287      8843.3379      9199.6452      1125.8441      292.8698       15942.79      -10520.468     -682.38844      117803.89      49.021494      49.021494      49.021494      1.0405848     -267.28202     -1780.3984     -181.87314    
    129000   129000         777.92284      302.6274       54027.913      53510.873      20217.968      33292.905      8592.1224      8768.4846      9245.9051      1096.8592      177.99927      15929.167     -10517.633     -686.20059      117149.44      48.930547      48.930547      48.930547      1.046398      -1316.3368      1376.4058      847.81318    
    130000   130000         770.98096      491.22332      54047.757      53204.686      20037.551      33167.136      8250.7075      8764.4947      9179.4885      1116.8267      460.77315      15925.482     -10530.637     -683.0965       117681.78      49.004551      49.004551      49.004551      1.0416646      831.28488      24.204435      618.18065    
    131000   131000         757.61505     -619.23435      51818.34       52880.943      19690.175      33190.768      8312.0171      8861.3544      9184.3153      1079.3215      324.42877      15950.993     -10521.662     -683.20505      117663.08      49.001955      49.001955      49.001955      1.0418301     -1478.0391      124.69618     -504.36011    
    132000   132000         775.7705       1024.6906      55178.323      53438.44       20162.029      33276.41       8615.649       8638.5388      9187.638       1135.2235      250.56161      15961.907     -10513.107     -690.46213      116426.39      48.829672      48.829672      48.829672      1.0528965      1441.8415      825.17946      807.0508     
    133000   133000         757.05247     -22.950751      53081.621      53121.032      19675.554      33445.479      8698.658       8725.2986      9264.6877      1091.063       232.862        15951.752     -10518.843     -682.73168      117744.66      49.013278      49.013278      49.013278      1.0411083     -1576.9846      541.89457      966.23777    
    134000   134000         763.52803      3187.653       58604.275      53177.409      19843.851      33333.558      8684.4319      8763.7842      8981.2281      1103.3235      359.18382      15959.554     -10517.948     -688.63508      116735.29      48.872818      48.872818      48.872818      1.0501104      2578.7853      4059.6967      2924.4771    
    135000   135000         769.64537     -99.606383      53194.779      53365.684      20002.839      33362.845      8688.1859      8723.9367      9123.6592      1104.233       274.71629      15962.958     -10514.844     -683.28003      117650.17      49.000163      49.000163      49.000163      1.0419444     -764.41697      215.68918      249.90864    
    136000   136000         773.69817     -1151.2595      51364.559      53342.024      20108.17       33233.854      8571.3948      8707.0845      9142.1929      1049.7923      331.2069       15951.806     -10519.624     -682.54555      117776.77      49.017732      49.017732      49.017732      1.0408244      390.36374     -2335.5445     -1508.5976    
    137000   137000         769.55992      1392.6772      55759.671      53376.384      20000.618      33375.765      8619.2864      8837.6902      9077.3534      1089.6444      314.5961       15953.493     -10516.298     -685.07976      117341.1       48.957217      48.957217      48.957217      1.0446889      1959.3151      588.41494      1630.3014    
    138000   138000         762.70721     -83.351971      52625.292      52768.875      19822.519      32946.356      8399.8292      8785.4578      8975.6169      1064.63        284.98578      15957.353     -10521.516     -680.58298      118116.4       49.064804      49.064804      49.064804      1.0378317     -468.50476     -281.0094       499.45825    
    139000   139000         768.53352     -458.38441      52852.594      53655.653      19973.942      33681.711      8559.9622      8968.7133      9191.2892      1105.3057      414.95865      15955.886     -10514.404     -669.18972      120127.39      49.341689      49.341689      49.341689      1.0204579     -181.10604     -297.71925     -896.32794    
    140000   140000         774.41257     -2109.284       49863.614      53495.875      20126.737      33369.138      8417.2885      8830.2451      9329.7035      1067.0263      320.90112      15927.036     -10523.062     -680.80884      118077.22      49.059378      49.059378      49.059378      1.0381761     -1618.315      -2145.576      -2563.9611    
    141000   141000         770.81076      1359.6806      55750.222      53400.069      20033.127      33366.942      8425.5288      8914.4792      9112.4301      1108.7036      351.62602      15977.654     -10523.48      -678.27834      118517.74      49.120312      49.120312      49.120312      1.0343173      1969.5625      1277.265       832.21422    
    142000   142000         768.43472     -208.7495       52827.753      53186.025      19971.375      33214.65       8585.6587      8803.1126      9146.2632      1037.1726      211.13136      15956.639     -10525.328     -683.09368      117682.27      49.004618      49.004618      49.004618      1.0416603      65.169697      55.59424      -747.01244    
    143000   143000         770.23161      866.41472      55150.838      53656.593      20018.075      33638.518      8559.1466      9012.0892      9114.5561      1120.5148      373.77262      15975.668     -10517.23      -679.78482      118255.09      49.084         49.084         49.084         1.0366145      1539.2204      939.39623      120.62755    
    144000   144000         760.33195      1173.286       55218.455      53200.744      19760.786      33439.958      8621.4169      8864.6762      9109.0489      1090.483       334.32542      15945.98      -10525.973     -681.72951      117917.76      49.037283      49.037283      49.037283      1.03958        109.96182      658.14195      2751.7541    
    145000   145000         765.351        121.00437      53325.271      53118.156      19891.23       33226.926      8554.9316      8809.4331      9006.2332      1073.8653      343.28992      15956.322     -10517.149     -684.94689      117363.86      48.960382      48.960382      48.960382      1.0444863      1774.3455     -1172.6847     -238.64765    
    146000   146000         769.52438      774.11551      54788.631      53445.313      19999.695      33445.618      8660.8216      8686.4831      9082.1282      1128.3708      430.01643      15971.546     -10513.748     -675.60709      118986.34      49.184965      49.184965      49.184965      1.0302439      2557.5528      727.571       -962.77731    
    147000   147000         769.87786     -1100.7824      51589.094      53484.594      20008.881      33475.713      8617.9448      8893.6064      9085.7821      1105.3512      322.94717      15971.519     -10521.437     -680.83944      118071.91      49.058643      49.058643      49.058643      1.0382227     -1004.4734     -1492.8514     -805.02251    
    148000   148000         782.22175      1986.0999      56720.526      53321.252      20329.695      32991.557      8421.383       8798.4667      8877.6222      1114.3576      325.85563      15975.224     -10521.353     -684.98653      117357.07      48.959438      48.959438      48.959438      1.0445467      694.18375      2783.0962      2481.0199    
    149000   149000         779.22184      427.67853      54365.244      53634.348      20251.728      33382.62       8622.3104      8797.8187      9199.6128      1043.8637      286.66466      15959.575     -10527.226     -686.00822      117182.29      48.93512       48.93512       48.93512       1.0461047      1159.8181     -657.66272      780.88024    
    150000   150000         773.51074     -766.5469       52101.427      53407.51       20103.299      33304.211      8568.2228      8812.6866      9151.775       1039.7296      311.15085      15947.279     -10526.633     -688.07415      116830.45      48.886095      48.886095      48.886095      1.0492551     -923.92637     -197.35204     -1178.3623    
    151000   151000         764.30407      1031.4882      55361.281      53574.794      19864.02       33710.773      8770.1842      8865.339       9181.4112      1118.4927      366.58558      15936.541     -10527.78      -676.91076      118757.18      49.153369      49.153369      49.153369      1.0322318      1426.5732      689.52697      978.36438    
    152000   152000         755.30309     -64.203426      52956.543      53065.787      19630.088      33435.699      8564.4144      8771.8459      9357.2136      1112.7272      202.31567      15952.232     -10525.05      -689.01505      116670.91      48.863833      48.863833      48.863833      1.0506899      2273.2017     -1733.3454     -732.46655    
    153000   153000         766.28679      702.92401      54649.304      53434.071      19915.551      33518.52       8747.866       8751.6636      9127.4493      1102.1718      366.69735      15950.35      -10527.678     -678.1344       118542.89      49.123787      49.123787      49.123787      1.0340978      675.73818      447.11966      985.91417    
    154000   154000         779.19867     -76.844737      53594.505      53725.281      20251.126      33474.155      8537.4741      8833.7947      9255.8186      1155.9065      260.57796      15958.171     -10527.587     -688.89172      116691.8       48.866749      48.866749      48.866749      1.0505018      1388.5967      20.988919     -1640.1198    
    155000   155000         767.60632     -653.72487      52119.407      53245.103      19949.845      33295.258      8456.129       8677.8862      9268.7529      1120.9704      334.45039      15961.597     -10524.527     -680.83391      118072.87      49.058776      49.058776      49.058776      1.0382143     -1200.5814     -947.14375      186.5505     
    156000   156000         775.5768       1138.7194      55936.542      53985.484      20156.995      33828.489      8891.5282      8828.8847      9123.9373      1174.9774      353.2463       15979.892     -10523.977     -684.24847      117483.66      48.977035      48.977035      48.977035      1.0434212      853.54517      201.8946       2360.7184    
    157000   157000         771.85346      332.36064      54190.11       53621.117      20060.227      33560.891      8600.4745      9125.7632      8932.48        1100.673       334.5317       15993.385     -10526.416     -684.80991      117387.34      48.963646      48.963646      48.963646      1.0442774      402.65022      345.78752      248.6442     
    158000   158000         767.54554     -532.10399      52715.941      53630.166      19948.265      33681.901      8536.9461      8939.9266      9174.9277      1154.5257      442.44048      15956.585     -10523.45      -682.35566      117809.55      49.022279      49.022279      49.022279      1.0405349      499.81479     -1333.5258     -762.60093    
    159000   159000         759.85134     -886.53753      51438.715      52958.459      19748.295      33210.164      8519.1388      8725.4715      9023.5293      1092.7242      465.05633      15912.038     -10527.794     -683.90163      117543.24      48.985313      48.985313      48.985313      1.0428923     -197.93097     -527.122       -1934.5596    
    160000   160000         774.24451      555.74571      54413.584      53442.842      20122.369      33320.473      8598.8609      8881.6289      8903.2867      1134.7294      389.63669      15938.797     -10526.467     -671.1812       119770.95      49.292839      49.292839      49.292839      1.0234947     -105.29884     -307.13387      2079.6698    
    161000   161000         768.47664      1019.7508      55435.861      53691.924      19972.464      33719.459      8775.2764      8869.1906      9134.6394      1115.3169      381.66902      15959.978     -10516.611     -685.53616      117262.98      48.94635       48.94635       48.94635       1.0453848      1767.1409     -956.35971      2248.4711    
    162000   162000         766.93703     -610.47248      52469.147      53513.736      19932.45       33581.286      8654.0565      8926.1354      9243.1688      1094.9261      246.46728      15950.318     -10533.786     -685.15382      117328.42      48.955453      48.955453      48.955453      1.0448018      61.321812     -1192.2222     -700.51704    
    163000   163000         765.78414      388.99188      53909.42       53236.843      19902.487      33334.356      8525.0066      8824.213       9077.8553      1070.4749      414.32302      15945.953     -10523.469     -678.05598      118556.6       49.125681      49.125681      49.125681      1.0339782      423.52852      672.18488      71.262228    
    164000   164000         765.38731     -860.92059      51849.223      53317.406      19892.174      33425.233      8628.2137      8936.664       9109.4354      1076.4016      251.31219      15944.495     -10521.289     -687.46419      116934.11      48.900549      48.900549      48.900549      1.0483249      239.63646     -935.50863     -1886.8896    
    165000   165000         779.69928     -1263.5728      51484.719      53661.241      20264.137      33397.104      8609.0748      8969.1435      9044.9301      1082.8585      287.2683       15936.997     -10533.168     -680.6194       118110.08      49.063929      49.063929      49.063929      1.0378872     -353.73015     -1594.3564     -1842.6318    
    166000   166000         775.41609     -365.42553      52780.777      53404.649      20152.818      33251.831      8488.2938      8901.4491      9048.6141      1074.3627      329.33373      15940.7       -10530.922     -686.70544      117063.31      48.918553      48.918553      48.918553      1.0471679     -751.91972      17.991597     -362.34846    
    167000   167000         772.67123     -223.8212       53133.501      53522.673      20081.48       33441.192      8709.4239      8730.4138      9064.9211      1084.2305      432.80426      15945.385     -10525.986     -674.25957      119224.13      49.217709      49.217709      49.217709      1.028189      -1054.3236      1118.3793     -735.51925    
    168000   168000         768.47692     -1477.6887      50698.699      53236.436      19972.472      33263.964      8485.0683      8762.6152      9063.9495      1108.4855      435.95957      15932.551     -10524.665     -682.6586       117757.27      49.015027      49.015027      49.015027      1.0409968     -1672.1373     -548.02384     -2212.9051    
    169000   169000         768.46511      1787.975       56357.247      53261.438      19972.165      33289.273      8511.3885      8849.7365      8970.61        1101.4297      455.05313      15930.806     -10529.75      -677.10266      118723.52      49.148725      49.148725      49.148725      1.0325245      4339.1088      2728.3787     -1703.5625    
    170000   170000         769.66165     -680.91187      52222.43       53389.029      20003.262      33385.767      8618.207       8787.9516      9079.3063      1157.4605      328.13216      15946.66      -10531.95      -684.28382      117477.59      48.976191      48.976191      48.976191      1.0434751     -1492.5085     -122.59372     -427.63336    
    171000   171000         767.94174     -1168.235       51606.878      53590.877      19958.562      33632.315      8643.847       8746.5555      9468.4208      1132.1416      186.80522      15973.527     -10518.982     -690.3287       116448.89      48.832818      48.832818      48.832818      1.0526931      913.15703     -1314.6344     -3103.2277    
    172000   172000         781.61866     -249.98567      53419.56       53851.134      20314.021      33537.113      8662.2005      8808.2022      9233.4541      1090.532       303.31193      15960.046     -10520.634     -679.0888       118376.29      49.100763      49.100763      49.100763      1.0355532     -888.05877      1442.0098     -1303.908     
    173000   173000         767.9381      -884.90259      51614.541      53112.24       19958.468      33153.772      8566.3449      8832.0684      9009.0707      1091.0388      238.12286      15943.647     -10526.52      -692.68866      116052.16      48.777298      48.777298      48.777298      1.0562918     -1202.481      -706.6323      -745.59448    
    174000   174000         765.91929      1117.9546      55197.66       53282.817      19905.999      33376.817      8862.5213      8902.9837      8723.31        1084.3648      405.04172      15931.627     -10533.031     -684.47559      117444.67      48.971617      48.971617      48.971617      1.0437676     -1225.1281      1870.5597      2708.4322    
[...]
    955000   955000         772.15601      801.63932      55118.996      53739.509      20068.09       33671.419      8490.7171      8936.5967      9290.2761      1146.2684      394.87773      15939.319     -10526.636     -681.28469      117994.74      49.047953      49.047953      49.047953      1.0389017      354.58939      1224.4428      825.88577    
    956000   956000         773.51834     -473.76281      52248.365      53065.622      20103.496      32962.126      8178.3483      8784.8554      9221.1512      1087.1633      263.55593      15954.706     -10527.654     -679.62522      118282.86      49.087842      49.087842      49.087842      1.0363712     -201.51255     -712.72079     -507.05508    
    957000   957000         766.20467     -392.2554       52605.89       53278.004      19913.416      33364.588      8465.0153      8831.1158      9212.4425      1101.9329      317.68762      15956.955     -10520.562     -684.21633      117489.18      48.977801      48.977801      48.977801      1.0433722      141.58953     -664.81564     -653.54008    
    958000   958000         765.21899     -1300.0652      51243.302      53487.825      19887.799      33600.026      8680.4811      8874.0297      9128.7505      1072.4645      436.38532      15940.142     -10532.227     -679.06017      118381.28      49.101453      49.101453      49.101453      1.0355095     -1245.7681     -627.6549      -2026.7726    
    959000   959000         767.88539      486.9284       53944.232      53102.162      19957.098      33145.064      8471.5388      8673.3345      9063.768       1100.9275      424.35154      15941.897     -10530.753     -677.92891      118578.82      49.12875       49.12875       49.12875       1.0337844      1120.4745      827.50725     -487.19658    
    960000   960000         760.70606     -572.68978      52016.297      53005.324      19770.509      33234.815      8675.2994      8641.3936      9100.3146      1067.5331      304.76913      15965.131     -10519.625     -678.85678      118416.75      49.106356      49.106356      49.106356      1.0351994      4.6679592     -1264.8421     -457.89521    
    961000   961000         764.96468      1034.5844      55137.587      53360.918      19881.189      33479.729      8557.1864      8924.1943      9108.7444      1073.0435      391.47209      15953.596     -10528.507     -682.69481      117751.02      49.01416       49.01416       49.01416       1.041052       1648.1272     -333.81849      1789.4445    
    962000   962000         774.61151     -1460.8632      51122.307      53616.428      20131.907      33484.52       8469.5792      8768.4626      9418.3646      1123.1931      260.02514      15967.833     -10522.937     -686.68757      117066.36      48.918977      48.918977      48.918977      1.0471406     -2384.0851     -1105.3665     -893.13807    
    963000   963000         762.50436      39.310274      52880.905      52813.95       19817.246      32996.704      8460.9841      8682.3984      9118.399       1066.1812      218.14259      15970.854     -10520.256     -688.31906      116788.88      48.880297      48.880297      48.880297      1.0496285      14.604294      764.3613      -661.03477    
    964000   964000         760.74923     -1298.9191      51080.958      53280.753      19771.631      33509.121      8650.8202      8698.1119      9294.3644      1132.1384      329.47965      15931.845     -10527.638     -692.25659      116124.59      48.787444      48.787444      48.787444      1.0556329     -2182.3347      157.45298     -1871.8755    
    965000   965000         763.57353      442.20214      53840.054      53085.849      19845.034      33240.815      8457.9977      8724.117       9243.1043      1110.1276      284.79995      15946.363     -10525.694     -687.38336      116947.86      48.902466      48.902466      48.902466      1.0482017     -354.82115      758.93528      922.49228    
    966000   966000         770.84949      199.0311       53680.456      53338.615      20034.134      33304.481      8610.4647      8726.4072      9102.9134      1071.3885      391.49607      15926.065     -10524.254     -682.59715      117767.87      49.016498      49.016498      49.016498      1.0409031     -215.4671       1286.2517     -473.69127    
    967000   967000         766.15034     -310.80382      52481.041      53014.104      19912.004      33102.1        8438.208       8737.0927      9116.4889      1100.4231      271.46305      15959.024     -10520.599     -683.55765      117602.39      48.993528      48.993528      48.993528      1.0423678     -669.34435     -217.73464     -45.332459    
    968000   968000         774.3138       1606.6306      56353.302      53595.862      20124.17       33471.692      8420.3201      8905.3404      9235.8175      1071.9956      373.54691      15982.167     -10517.495     -683.08873      117683.12      49.004736      49.004736      49.004736      1.0416527      2507.1694      1214.508       1098.2143    
    969000   969000         764.9814       11.07199       53245.988      53227.086      19881.624      33345.462      8576.28        8624.8368      9230.4264      1102.2355      343.81026      15985.665     -10517.792     -686.72462      117060.04      48.918098      48.918098      48.918098      1.0471971      368.3786      -1428.706       1093.5433    
    970000   970000         758.74752     -332.44622      52742.68       53315.889      19719.607      33596.281      8661.1646      8777.7296      9270.55        1133.6117      305.14647      15969.719     -10521.64      -679.94818      118226.68      49.080069      49.080069      49.080069      1.0368636      1048.6829     -174.91414     -1871.1074    
    971000   971000         767.78766      159.94085      54062.318      53787.569      19954.558      33833.011      8776.9812      8855.2397      9342.5414      1126.6923      314.10823      15941.226     -10523.778     -682.47993      117788.1       49.019304      49.019304      49.019304      1.0407243      88.912387     -659.11052      1050.0207    
    972000   972000         766.33216     -1222.3672      51261.08       53375.23       19916.73       33458.501      8376.1725      8737.5629      9360.4538      1139.2213      442.67587      15927.347     -10524.933     -677.84898      118592.81      49.130681      49.130681      49.130681      1.0336625      20.807808     -1860.3924     -1827.5172    
    973000   973000         772.04022      542.82171      54304.706      53377.742      20065.08       33312.662      8456.2193      8694.3786      9253.0863      1130.2903      315.43527      15976.149     -10512.897     -686.53307      117092.7       48.922647      48.922647      48.922647      1.0469051      736.8345      -48.571648      940.20227    
    974000   974000         773.63711      1242.0777      56047.14       53914.803      20106.583      33808.219      8712.5654      8845.8904      9278.654       1130.6142      398.1095       15968.98      -10526.594     -682.90442      117714.88      49.009145      49.009145      49.009145      1.0413717      2705.0629      538.65376      482.51645    
    975000   975000         767.91848      1069           55222.396      53380.89       19957.958      33422.932      8577.4425      8685.0882      9236.0516      1072.4855      439.35145      15941.747     -10529.235     -680.56819      118118.97      49.06516       49.06516       49.06516       1.0378091      562.10864      2347.6085      297.28278    
    976000   976000         771.64912     -1274.722       50987.874      53165.81       20054.916      33110.894      8329.0106      8625.47        9337.2072      1109.7309      284.98921      15946.178     -10521.692     -686.17922      117153.09      48.931055      48.931055      48.931055      1.0463655     -2078.3001     -262.50601     -1483.3598    
    977000   977000         775.96826     -307.12424      53071.532      53598.852      20167.169      33431.683      8648.2336      8668.0409      9194.9455      1132.4863      370.34475      15943.005     -10525.373     -682.82056      117729.34      49.011151      49.011151      49.011151      1.0412438     -908.76641      470.94298     -483.5493     
    978000   978000         777.51412     -20.751591      53448.744      53484.518      20207.345      33277.173      8728.4976      8628.2916      9053.5256      1108.1271      340.50555      15939.788     -10521.562     -680.06075      118207.11      49.07736       49.07736       49.07736       1.0370353      393.0537      -1079.9379      624.62938    
    979000   979000         759.95972     -639.03494      51966.915      53050.373      19751.112      33299.261      8697.0208      8744.9494      9130.5325      1127.6985      184.68515      15935.992     -10521.618     -691.48038      116254.94      48.805692      48.805692      48.805692      1.0544493      1682.6381     -929.83374     -2669.9091    
    980000   980000         766.37183      699.09619      54320.399      53136.069      19917.761      33218.308      8593.1721      8853.5662      9079.1244      1074.3657      173.35105      15967.6       -10522.872     -692.03992      116160.95      48.792535      48.792535      48.792535      1.0553025     -983.74455      1388.8063      1692.2268    
    981000   981000         767.58115     -126.14696      53103.597      53319.901      19949.191      33370.71       8433.5931      8828.9283      9290.2093      1137.1637      274.15697      15936.893     -10530.234     -683.7216       117574.19      48.989612      48.989612      48.989612      1.0426178     -2136.9471      200.89708      1557.6092    
    982000   982000         774.47514      63.167268      53723.504      53615.781      20128.363      33487.418      8636.2669      8818.0683      9366.831       1085.0755      176.64959      15939.533     -10535.007     -687.46175      116934.52      48.900607      48.900607      48.900607      1.0483212      2299.0361     -2039.9261     -69.60815     
    983000   983000         776.13004     -626.63609      52229.576      53288.599      20171.374      33117.226      8523.1023      8705.0464      9101.2896      1108.9597      240.05525      15963.071     -10524.299     -693.70844      115881.55      48.753385      48.753385      48.753385      1.0578469      209.14994     -2278.9374      189.87921    
    984000   984000         771.73197     -1219.7913      51497.863      53580.502      20057.069      33523.433      8442.3523      8817.7205      9466.5304      1182.5177      192.99534      15952.454     -10531.137     -686.65498      117071.91      48.919751      48.919751      48.919751      1.0470909      109.09277     -1681.4529     -2087.0139    
    985000   985000         756.89759     -371.12413      52383.418      53014.331      19671.528      33342.802      8533.4907      8679.6636      9350.0065      1157.907       208.50499      15946.49      -10533.26      -689.63191      116566.55      48.849259      48.849259      48.849259      1.0516305      1732.0662     -2880.9735      35.534915    
    986000   986000         763.14709     -96.723859      52809.115      52974.077      19833.951      33140.126      8471.2432      8643.9548      9134.2125      1121.1065      345.26369      15951.983     -10527.638     -687.41119      116943.13      48.901806      48.901806      48.901806      1.0482441      182.86633     -1379.7867      906.74874    
    987000   987000         773.6297      -1730.5872      50368.914      53346.799      20106.391      33240.409      8603.2003      8761.6391      9042.1588      1100.4547      297.6404       15953.668     -10518.353     -681.32239      117988.22      49.047048      49.047048      49.047048      1.0389592     -1708.5809     -1553.5663     -1929.6143    
    988000   988000         783.66883     -300.1343       53064.46       53571.499      20367.304      33204.195      8546.5792      8741.7028      9200.9185      1127.2262      159.16628      15951.473     -10522.871     -693.97165      115837.6       48.74722       48.74722       48.74722       1.0582483     -1498.4404      1128.297      -530.25959    
    989000   989000         769.92767     -548.11021      52344.564      53283.07       20010.176      33272.894      8657.8119      8949.8854      8994.984       1033.8246      214.82866      15950.504     -10528.944     -684.69582      117406.9       48.966366      48.966366      48.966366      1.0441034      66.465153     -1750.0929      39.297083    
    990000   990000         771.14136      409.1172       54155.948      53465.228      20041.719      33423.508      8715.5966      8795.3529      9137.6872      1086.4265      276.6081       15940.728     -10528.89      -694.40513      115765.29      48.737075      48.737075      48.737075      1.0589093      310.75134      368.79412      547.80614    
    991000   991000         774.22986     -657.08538      52155.603      53270.541      20121.989      33148.552      8502.7417      8772.33        9155.1836      1092.4858      207.4993       15940.903     -10522.591     -690.93666      116346.43      48.818491      48.818491      48.818491      1.0536201     -599.83145     -364.10532     -1007.3194    
    992000   992000         766.22821      185.36991      53482.324      53167.905      19914.028      33253.877      8447.3544      8668.9534      9289.5348      1148.5847      271.07531      15952.335     -10523.961     -691.1894       116303.89      48.81254       48.81254       48.81254       1.0540056     -228.85604      1110.8617     -325.89595    
    993000   993000         767.20822      154.23526      53123.387      52858.561      19939.498      32919.063      8164.1221      8783.4858      9181.4646      1140.5723      216.82923      15957.868     -10525.279     -682.79565      117733.63      49.011747      49.011747      49.011747      1.0412058      2026.6388     -498.83952     -1065.0934    
    994000   994000         777.80645     -563.00489      52441.477      53410.956      20214.943      33196.013      8374.8557      8791.0463      9187.2249      1099.653       288.88686      15972.916     -10518.569     -680.83393      118072.87      49.058775      49.058775      49.058775      1.0382143     -1766.6764     -358.77976      436.44144    
    995000   995000         759.39377     -1022.6777      51435.461      53171.546      19736.403      33435.143      8570.7526      8693.0446      9534.8121      1132.9992      63.497639      15970.754     -10530.717     -690.6133       116400.91      48.826109      48.826109      48.826109      1.053127      -1620.3693     -224.52348     -1223.1403    
    996000   996000         760.17989     -2700.0614      48738.851      53372.877      19756.834      33616.043      8615.4001      8805.516       9364.2165      1141.7545      244.26413      15963.126     -10518.234     -683.09687      117681.72      49.004542      49.004542      49.004542      1.0416651     -3348.5718     -1716.4447     -3035.1677    
    997000   997000         766.91283      336.2717       53945.545      53371.984      19931.821      33440.163      8627.3299      8724.5305      9330.6986      1103.0917      224.90084      15951.561     -10521.95      -687.35018      116953.51      48.903253      48.903253      48.903253      1.0481511     -649.31485      1935.3911     -277.2612     
    998000   998000         772.86272      430.5991       54253.909      53511.898      20086.457      33425.44       8558.0628      8630.6618      9259.0135      1113.6795      440.19487      15948.214     -10524.386     -680.34607      118157.53      49.070499      49.070499      49.070499      1.0374704      1252.5908      290.1104      -250.9039     
    999000   999000         756.88672     -3547.0906      46695.844      52831.641      19671.246      33160.396      8332.272       8584.838       9477.1791      1111.1521      241.4352       15942.944     -10529.424     -677.74828      118610.43      49.133114      49.133114      49.133114      1.033509      -3810.8046     -2052.5168     -4777.9505    
   1000000   1000000        761.45632     -1817.4221      50066.72       53191.533      19790.008      33401.525      8330.4234      8933.0373      9317.4871      1092.2144      282.39534      15960.045     -10514.078     -681.86595      117894.16      49.034012      49.034012      49.034012      1.0397881     -1442.2347     -877.63287     -3132.3987    
Loop time of 4922.31 on 1 procs for 1000000 steps with 8720 atoms

Performance: 17.553 ns/day, 1.367 hours/ns, 203.156 timesteps/s, 1.772 Matom-step/s
100.0% CPU use with 1 MPI tasks x 1 OpenMP threads

MPI task timing breakdown:
Section |  min time  |  avg time  |  max time  |%varavg| %total
---------------------------------------------------------------
Pair    | 2029.6     | 2029.6     | 2029.6     |   0.0 | 41.23
Bond    | 711.25     | 711.25     | 711.25     |   0.0 | 14.45
Kspace  | 1081.9     | 1081.9     | 1081.9     |   0.0 | 21.98
Neigh   | 538.8      | 538.8      | 538.8      |   0.0 | 10.95
Comm    | 74.614     | 74.614     | 74.614     |   0.0 |  1.52
Output  | 17.646     | 17.646     | 17.646     |   0.0 |  0.36
Modify  | 297.68     | 297.68     | 297.68     |   0.0 |  6.05
Other   |            | 170.8      |            |       |  3.47

Nlocal:           8720 ave        8720 max        8720 min
Histogram: 1 0 0 0 0 0 0 0 0 0
Nghost:          18829 ave       18829 max       18829 min
Histogram: 1 0 0 0 0 0 0 0 0 0
Neighs:              0 ave           0 max           0 min
Histogram: 1 0 0 0 0 0 0 0 0 0
FullNghs:  4.10457e+06 ave 4.10457e+06 max 4.10457e+06 min
Histogram: 1 0 0 0 0 0 0 0 0 0

Total # of neighbors = 4104574
Ave neighs/atom = 470.70803
Ave special neighs/atom = 5.6385321
Neighbor list builds = 81925
Dangerous builds = 0

# --- Cleanup ---
unfix npt_fix

undump dump_npt

# --- Write Output ---
write_dump all custom npt_production_last.dump id type mol x y z xu yu zu vx vy vz modify sort id
write_data /home/arz2/PolyJarvis/data/PEEK3/lammps/npt_production/npt_production_out.data
System init for write_data ...
PPPM Kokkos initialization ...
  using 12-bit tables for long-range coulomb
  G vector (1/distance) = 0.3119453
  grid = 40 40 40
  stencil order = 5
  estimated absolute RMS force accuracy = 0.00026880927
  estimated relative force accuracy = 8.0951114e-07
  using double precision cuFFT
  3d grid and FFT values/proc = 103823 64000
Generated 21 of 21 mixed pair_coeff terms from sixthpower/sixthpower mixing rule

print "STAGE COMPLETE: NPT T=770.0->770.0K P=1.0->1.0atm steps=1000000"
STAGE COMPLETE: NPT T=770.0->770.0K P=1.0->1.0atm steps=1000000
quit
er   |            | 170.8      |            |       |  3.47

Nlocal:           8720 ave        8720 max        8720 min
Histogram: 1 0 0 0 0 0 0 0 0 0
Nghost:          18829 ave       18829 max       18829 min
Histogram: 1 0 0 0 0 0 0 0 0 0
Neighs:              0 ave           0 max           0 min
Histogram: 1 0 0 0 0 0 0 0 0 0
FullNghs:  4.10457e+06 ave 4.10457e+06 max 4.10457e+06 min
Histogram: 1 0 0 0 0 0 0 0 0 0

Total # of neighbors = 4104574
Ave neighs/atom = 470.70803
Ave special neighs/atom = 5.6385321
Neighbor list builds = 81925
Dangerous builds = 0
System init for write_data ...
PPPM Kokkos initialization ...
  using 12-bit tables for long-range coulomb
  G vector (1/distance) = 0.3119453
  grid = 40 40 40
  stencil order = 5
  estimated absolute RMS force accuracy = 0.00026880927
  estimated relative force accuracy = 8.0951114e-07
  using double precision cuFFT
  3d grid and FFT values/proc = 103823 64000
Generated 21 of 21 mixed pair_coeff terms from sixthpower/sixthpower mixing rule
STAGE COMPLETE: NPT T=770.0->770.0K P=1.0->1.0atm steps=1000000
