units real
atom_style full
boundary p p p

# --- Force Field Styles ---
pair_style lj/class2/coul/long 9.5 9.5
kspace_style pppm 1e-6
dielectric 1.000000
bond_style class2
angle_style class2
dihedral_style class2
improper_style class2
special_bonds lj/coul 0 0 1
pair_modify mix sixthpower tail yes
neighbor 2.0 bin
neigh_modify delay 0 every 1 check yes
neigh_modify one 4000
# KOKKOS: package loaded via -pk kokkos on the command line

read_data /home/alexzhao/PolyJarvis/data/PMMA4/lammps/equil/npt_extend/npt_extend_out.data
Reading data file ...
  orthogonal box = (4.8465158 4.8465158 4.8465158) to (46.904482 46.904482 46.904482)
  1 by 1 by 1 MPI processor grid
  reading atoms ...
  7520 atoms
  reading velocities ...
  7520 velocities
  scanning bonds ...
  4 = max bonds/atom
  scanning angles ...
  17 = max angles/atom
  scanning dihedrals ...
  40 = max dihedrals/atom
  scanning impropers ...
  14 = max impropers/atom
  orthogonal box = (4.8465158 4.8465158 4.8465158) to (46.904482 46.904482 46.904482)
  1 by 1 by 1 MPI processor grid
  reading bonds ...
  7510 bonds
  reading angles ...
  14000 angles
  reading dihedrals ...
  18910 dihedrals
  reading impropers ...
  8500 impropers
Finding 1-2 1-3 1-4 neighbors ...
  special bond factors lj:    0        0        1       
  special bond factors coul:  0        0        1       
     4 = max # of 1-2 neighbors
    11 = max # of 1-3 neighbors
    15 = max # of special neighbors
  special bonds CPU = 0.004 seconds
  read_data CPU = 0.300 seconds


# --- Thermo Output ---
thermo_style custom step time temp press enthalpy etotal ke pe ebond eangle edihed eimp evdwl ecoul elong etail vol lx ly lz density pxx pyy pzz
thermo_modify flush yes
thermo 100

# --- Trajectory ---
dump dump_npt all custom 1000 /home/alexzhao/PolyJarvis/data/PMMA4/lammps/mechanical/bm_series/bm_P500/bm_P500.dump id type mol x y z ix iy iz vx vy vz

# --- Restart Checkpointing ---
restart 10000 npt_1.rst npt_2.rst

# --- Initial Velocities (optional) ---
# Velocities read from data file

# --- SHAKE Constraints ---
fix shake_fix all shake 1e-4 1000 0 m 1.008
Finding SHAKE clusters ...
      10 = # of size 2 clusters
     490 = # of size 3 clusters
    1010 = # of size 4 clusters
       0 = # of frozen angles
  find clusters CPU = 0.002 seconds

# --- NPT Thermostat + Barostat (Nose-Hoover) ---
# T_damp = 100.0 fs  (heat bath coupling)
# P_damp = 1000.0 fs  (pressure bath coupling, ~10x T_damp typical)
# Ramp: T=300.0->300.0K  P=500.0->500.0atm
timestep 1.0
fix npt_fix all npt temp 300.0 300.0 100.0 iso 500.0 500.0 1000.0

run 500000
PPPM Kokkos initialization ...
  using 12-bit tables for long-range coulomb
  G vector (1/distance) = 0.33288361
  grid = 45 45 45
  stencil order = 5
  estimated absolute RMS force accuracy = 0.00029054851
  estimated relative force accuracy = 8.749782e-07
  using double precision cuFFT
  3d grid and FFT values/proc = 140608 91125
Generated 15 of 15 mixed pair_coeff terms from sixthpower/sixthpower mixing rule
Neighbor list info ...
  update: every = 1 steps, delay = 0 steps, check = yes
  max neighbors/atom: 4000, page size: 100000
  master list distance cutoff = 11.5
  ghost atom cutoff = 11.5
  binsize = 11.5, bins = 4 4 4
  1 neighbor lists, perpetual/occasional/extra = 1 0 0
  (1) pair lj/class2/coul/long/kk, perpetual
      attributes: full, newton off, kokkos_device
      pair build: full/bin/kk/device
      stencil: full/bin/3d
      bin: kk/device
Per MPI rank memory allocation (min/avg/max) = 65 | 65 | 65 Mbytes
   Step          Time           Temp          Press         Enthalpy        TotEng         KinEng         PotEng         E_bond        E_angle        E_dihed        E_impro         E_vdwl         E_coul         E_long         E_tail         Volume           Lx             Ly             Lz          Density          Pxx            Pyy            Pzz      
         0   0              365.47415      980.36452      27073.577      26009.903      6731.4584      19278.445      2524.9021      6529.5873     -1915.0785      208.97182     -314.04684      43017.372     -30773.263     -527.57757      74395.182      42.057967      42.057967      42.057967      1.1177962      2202.8039     -580.25339      1318.543     
       100   100            305.85907      141.72055      24996.976      24843.551      5633.4424      19210.109      2504.7848      6562.743      -1921.7446      194.51677     -399.71147      43038.122     -30768.602     -528.74113      74231.465      42.027092      42.027092      42.027092      1.1202615      77.665809     -623.1894       970.68524    
       200   200            298.88847      1877.3737      26777.052      24753.146      5505.0549      19248.091      2393.6464      6589.6917     -1895.7572      199.93759     -315.32115      43043.26      -30767.367     -530.96678      73920.31       41.968289      41.968289      41.968289      1.124977       2342.9676      2732.2157      556.93793    
       300   300            300.52116      332.6262       25086.419      24728.856      5535.1266      19193.729      2475.995       6520.2819     -1898.2032      207.7866      -379.80159      43032.525     -30764.854     -532.48887      73709.013      41.928263      41.928263      41.928263      1.1282019      1220.7303     -855.94898      633.09724    
       400   400            298.39747      232.79071      24992.45       24742.629      5496.0116      19246.617      2420.3238      6565.1789     -1889.8299      170.2496      -291.80123      43030.012     -30757.516     -533.38938      73584.572      41.904654      41.904654      41.904654      1.1301099     -313.77593      385.75615      626.3919     
       500   500            305.50811      1530.1539      26488.015      24843.344      5626.9783      19216.366      2420.1004      6504.1283     -1912.2574      202.97796     -264.30241      43038.834     -30773.115     -532.55321      73700.109      41.926574      41.926574      41.926574      1.1283382      824.4031       1814.3515      1951.7072    
       600   600            307.34133      268.72373      25195.84       24905.769      5660.7433      19245.026      2477.0055      6535.349      -1906.8647      212.29245     -329.85673      43033.413     -30776.313     -530.28417      74015.465      41.986289      41.986289      41.986289      1.1235308      72.420782      274.10524      459.64516    
       700   700            300.23506      332.71755      25218.875      24858.795      5529.857       19328.938      2484.6765      6551.5887     -1887.4029      192.93277     -267.01881      43034.424     -30780.262     -528.91264      74207.395      42.022549      42.022549      42.022549      1.1206249      747.94599      164.43026      85.776399    
       800   800            297.24475      223.61488      24958.765      24716.779      5474.7802      19241.999      2410.4446      6563.4183     -1897.0664      199.62238     -294.68686      43034.779     -30774.512     -528.95386      74201.612      42.021458      42.021458      42.021458      1.1207122      1059.4321      208.76187     -597.34934    
       900   900            296.76426     -2.3865292      24669.973      24672.556      5465.9304      19206.626      2434.6671      6577.5756     -1929.5272      189.82983     -341.61837      43050.337     -30774.639     -528.83766      74217.917      42.024535      42.024535      42.024535      1.120466       732.05673     -983.6323       244.41598    
      1000   1000           297.15176      829.45556      25650.551      24753.158      5473.0676      19280.09       2381.5997      6615.7452     -1893.5568      186.96422     -259.65504      43030.214     -30781.222     -529.07522      74184.592      42.018245      42.018245      42.018245      1.1209693      1069.0274      150.93074      1268.4086    
      1100   1100           299.557        806.656        25712.605      24839.215      5517.3682      19321.847      2421.4647      6566.4128     -1921.5952      200.01835     -197.44324      43031.171     -30778.181     -528.67316      74241.009      42.028893      42.028893      42.028893      1.1201175      1277.6696      461.16084      681.13756    
      1200   1200           305.03687      409.78364      25285.625      24841.148      5618.2987      19222.849      2465.5616      6539.2449     -1922.3039      186.48369     -311.49872      43034.958     -30769.596     -527.73111      74373.537      42.053887      42.053887      42.053887      1.1181215      376.35167      376.16014      476.83911    
      1300   1300           303.05729      615.17218      25484.351      24817.616      5581.838       19235.778      2471.1701      6570.6262     -1906.4928      200.44282     -351.12203      43026.387     -30775.234     -528.14124      74315.781      42.042999      42.042999      42.042999      1.1189905     -368.89202      521.30494      1693.1036    
      1400   1400           300.33766      732.94398      25592.191      24800.381      5531.7467      19268.635      2381.6359      6522.4619     -1848.1854      192.76064     -263.6417       43053.642     -30770.039     -529.85513      74075.397      41.997618      41.997618      41.997618      1.1226217     -290.18258      275.70224      2213.3123    
      1500   1500           298.81497     -320.14329      24413.387      24758.442      5503.7013      19254.741      2449.9041      6644.1418     -1933.1584      205.23818     -379.93064      43043.392     -30774.846     -531.08362      73904.048      41.965211      41.965211      41.965211      1.1252246      733.96654      210.13833     -1904.5347    
      1600   1600           299.759        242.97476      24986.014      24724.769      5521.0887      19203.68       2405.5219      6670.7593     -1960.5641      191.98373     -363.86134      43033.975     -30774.135     -532.3782       73724.335      41.931168      41.931168      41.931168      1.1279675      158.55939      90.908492      479.4564     
      1700   1700           296.45387      599.70766      25377.887      24733.329      5460.2135      19273.116      2397.7779      6632.1881     -1922.1091      194.04214     -286.76339      43033.244     -30775.264     -532.57983      73696.425      41.925875      41.925875      41.925875      1.1283946      839.91772      86.136885      873.06836    
      1800   1800           302.27745      660.69252      25481.285      24770.575      5567.4747      19203.1        2446.995       6587.7716     -1933.511       199.6778      -373.53923      43052.002     -30776.296     -532.12552      73759.344      41.937804      41.937804      41.937804      1.1274321      356.36003      12.476542      1613.241     
      1900   1900           301.2962       853.17211      25741.82       24824.054      5549.4015      19274.652      2429.7381      6556.0681     -1975.1136      205.52711     -206.07862      43036.892     -30772.381     -532.12253      73759.759      41.937882      41.937882      41.937882      1.1274257      1543.0249      354.62343      661.86803    
      2000   2000           302.86915      1153.9176      26051.416      24807.793      5578.3727      19229.42       2497.4476      6522.7441     -1972.6309      207.40284     -280.5465       43027.362     -30772.36      -531.12036      73898.935      41.964243      41.964243      41.964243      1.1253024      1544.7209      291.42602      1625.6059    
      2100   2100           297.67775      1325.1296      26135.85       24705.447      5482.7555      19222.692      2389.3567      6526.3809     -1915.1666      213.38098     -255.22017      43036.585     -30772.624     -530.28229      74015.726      41.986338      41.986338      41.986338      1.1235268      1205.206       2044.6809      725.50198    
      2200   2200           297.53797      549.27081      25245.869      24652.129      5480.1809      19171.948      2386.9698      6537.7976     -1935.9891      208.80379     -309.83524      43056.858     -30772.657     -529.53835      74119.711      42.005991      42.005991      42.005991      1.1219506      559.24876      366.75273      721.81093    
      2300   2300           300.83449     -18.217269      24722.301      24742.016      5540.8976      19201.118      2403.5825      6566.7071     -1927.8308      194.26663     -321.26358      43051.975     -30766.319     -528.91852      74206.57       42.022394      42.022394      42.022394      1.1206373     -376.01424      280.65405      40.70838     
      2400   2400           298.65813      154.65301      25012.938      24845.637      5500.8125      19344.825      2542.2245      6592.4822     -1925.1276      195.1826      -323.44544      43030.158     -30766.649     -529.13527      74176.173      42.016655      42.016655      42.016655      1.1210965      1088.5171     -648.55048      23.992411    
      2500   2500           301.98258      456.04861      25342.159      24849.862      5562.0436      19287.819      2417.5428      6616.5483     -1887.8575      201.16438     -325.29471      43037.204     -30771.489     -530.2631       74018.405      41.986845      41.986845      41.986845      1.1234861     -486.73758      1364.3204      490.563      
      2600   2600           297.7202       623.16432      25462.327      24790.094      5483.5373      19306.557      2481.2334      6685.0086     -1960.0273      189.02742     -341.19347      43028.811     -30776.302     -530.62787      73967.523      41.977222      41.977222      41.977222      1.124259      -644.77756      673.6463       1840.6242    
      2700   2700           300.29637      392.61307      25151.354      24727.701      5530.9863      19196.714      2377.9725      6564.2588     -1855.4486      195.47582     -325.3753       43015.826     -30775.994     -530.47083      73989.42       41.981364      41.981364      41.981364      1.1239262      1234.265      -111.72408      55.298315    
      2800   2800           297.50593      694.39291      25454.251      24704.775      5479.5908      19225.184      2491.0378      6558.238      -1960.143       217.79107     -331.85537      43020.265     -30770.15      -530.34035      74007.624      41.984806      41.984806      41.984806      1.1236498     -1001.4174      192.30552      2892.2906    
      2900   2900           296.65776      761.47165      25541.258      24719.849      5463.9689      19255.88       2399.1836      6579.488      -1902.8945      202.68391     -301.15926      43043.682     -30765.103     -530.64143      73965.632      41.976864      41.976864      41.976864      1.1242877      1658.0692     -36.399675      662.74544    
      3000   3000           299.65823      812.21977      25639.553      24762.9        5519.2327      19243.667      2409.1583      6549.8502     -1914.1782      192.02401     -292.97462      43060.233     -30760.446     -530.33802      74007.949      41.984868      41.984868      41.984868      1.1236448      1562.8686      389.20235      484.58836    
      3100   3100           300.26192     -661.15787      24104.25       24819.006      5530.3517      19288.655      2490.1103      6559.4806     -1863.1976      196.95565     -363.93788      43035.346     -30766.102     -529.4853       74127.136      42.007394      42.007394      42.007394      1.1218382     -1992.6097      396.8244      -387.68832    
      3200   3200           303.14285      534.472        25446.092      24868.396      5583.4139      19284.982      2476.2178      6551.1347     -1910.7364      194.3131      -278.68979      43017.05      -30764.308     -529.5818       74113.629      42.004842      42.004842      42.004842      1.1220426      362.50206     -265.48455      1506.3985    
      3300   3300           300.91256      881.34746      25796.174      24843.078      5542.3356      19300.742      2395.4339      6675.8902     -1952.4761      205.50514     -311.21396      43051.262     -30763.659     -529.31891      74150.438      42.011795      42.011795      42.011795      1.1214856      1692.2655      620.45436      331.32255    
      3400   3400           293.9678      -136.27653      24552.477      24699.92       5414.424       19285.496      2425.8215      6568.3823     -1866.6323      198.51531     -304.89429      43035.616     -30771.313     -529.05807      74186.997      42.018699      42.018699      42.018699      1.120933       432.34866     -554.67552     -286.50272    
      3500   3500           302.90429     -96.992623      24567.094      24672.151      5579.0201      19093.131      2461.5274      6475.651      -1928.998       191.47073     -356.21009      43022.786     -30773.096     -528.47141      74269.352      42.034241      42.034241      42.034241      1.11969       -847.51593     -276.07561      832.61367    
      3600   3600           301.33147      982.94307      25821.519      24756.185      5550.0512      19206.134      2368.2143      6540.189      -1883.5935      197.97228     -277.34276      43030.509     -30769.815     -528.14054      74315.88       42.043017      42.043017      42.043017      1.118989       245.82377      1153.364       1549.6414    
      3700   3700           304.03963     -698.08246      24099.98       24856.721      5599.9312      19256.79       2384.7275      6646.025      -1898.5015      208.22693     -338.42016      43022.148     -30767.416     -528.03972      74330.069      42.045693      42.045693      42.045693      1.1187754     -657.18457     -2098.7377      661.67489    
      3800   3800           298.02916      70.107084      24939.893      24864.101      5489.2278      19374.873      2488.4328      6588.5755     -1893.8604      222.03593     -308.53143      43046.817     -30768.596     -529.47347      74128.793      42.007707      42.007707      42.007707      1.1218131      120.6308       24.897646      64.792806    
      3900   3900           301.8256       639.84989      25488.622      24798.614      5559.1523      19239.461      2390.67        6639.277      -1934.344       197.14694     -330.05969      43046.978     -30770.207     -530.79953      73943.602      41.972696      41.972696      41.972696      1.1246227      775.3234       62.412943      1081.8133    
      4000   4000           299.3535       569.96921      25360.011      24746.597      5513.6201      19232.977      2399.7474      6594.5067     -1875.2801      199.37643     -346.83856      43037.892     -30776.426     -531.86941      73794.861      41.944534      41.944534      41.944534      1.1268895      878.4941       382.31994      449.09359    
      4100   4100           298.1651       536.09254      25306.532      24730.126      5491.7316      19238.395      2474.5569      6523.5886     -1899.4818      197.62697     -305.49518      43018.903     -30771.304     -532.37625      73724.605      41.931219      41.931219      41.931219      1.1279633     -1134.904       1296.8939      1446.2877    
      4200   4200           301.94339      853.20984      25692.662      24773.915      5561.3219      19212.593      2432.0988      6556.493      -1894.6393      203.68157     -332.4389       43023.674     -30776.275     -531.57786      73835.335      41.952201      41.952201      41.952201      1.1262717      2603.544      -758.26028      714.34581    
      4300   4300           304.52083      542.1214       25442.909      24858.857      5608.7942      19250.063      2550.1094      6589.5745     -1975.1886      202.54276     -360.02522      43017.358     -30774.308     -531.31469      73871.907      41.959126      41.959126      41.959126      1.1257141      267.15395      667.83164      691.37862    
      4400   4400           300.83782      967.23161      25906.074      24865.409      5540.9588      19324.45       2395.6235      6601.2625     -1897.6417      204.50199     -265.53466      43059.61      -30773.371     -532.01865      73774.161      41.940612      41.940612      41.940612      1.1272056      541.17609      758.42544      1602.0933    
      4500   4500           302.26021     -93.098569      24677.846      24777.995      5567.1572      19210.838      2393.1552      6624.1        -1886.3432      205.3194      -385.21979      43026.918     -30767.092     -532.11106      73761.348      41.938183      41.938183      41.938183      1.1274015     -300.90796      666.52136     -644.90911    
      4600   4600           299.13443      1132.9496      25904.053      24684.712      5509.5851      19175.127      2378.4406      6520.6568     -1926.261       193.66062     -264.33863      43041.275     -30768.307     -531.85376      73797.033      41.944945      41.944945      41.944945      1.1268563      489.5483       1935.5276      973.77282    
      4700   4700           301.8685      -815.50667      23810.025      24689.765      5559.9424      19129.822      2489.4365      6450.7738     -1887.3794      202.82066     -366.2946       43008.031     -30767.566     -530.61604      73969.172      41.977534      41.977534      41.977534      1.1242339     -192.79478     -1483.1665     -770.55876    
      4800   4800           298.84324      775.06294      25629.445      24792.687      5504.2219      19288.465      2506.2593      6483.2601     -1857.3026      201.59692     -307.05676      43030.795     -30769.087     -530.20545      74026.454      41.988367      41.988367      41.988367      1.123364      -206.50863      2214.0789      317.61858    
      4900   4900           306.574        811.94702      25724.101      24848.163      5646.6103      19201.552      2382.1038      6584.2645     -1903.21        211.12558     -337.81631      43039.558     -30774.473     -530.5927       73972.426      41.978149      41.978149      41.978149      1.1241844      1405.2425      1560.0936     -529.49506    
      5000   5000           300.96093      815.36754      25681.213      24802.556      5543.2264      19259.33       2497.3686      6557.6325     -1973.2331      200.80677     -305.9183       43050.878     -30768.205     -531.17928      73890.738      41.962691      41.962691      41.962691      1.1254273      1575.8889     -997.52673      1867.7404    
      5100   5100           299.27693      875.23991      25673.815      24729.83       5512.2098      19217.62       2371.8686      6592.8566     -1920.7042      200.17829     -299.38201      43038.064     -30765.262     -530.724        73954.125      41.974687      41.974687      41.974687      1.1244626      232.60451      1059.8665      1333.2487    
      5200   5200           295.50589      21.634551      24731.739      24708.366      5442.7532      19265.613      2421.7424      6608.053      -1901.048       212.64328     -319.66619      43016.849     -30772.96      -529.84713      74076.516      41.99783       41.99783       41.99783       1.1226048      830.66189     -508.59356     -257.16467    
      5300   5300           300.50505      400.26833      25234.983      24801.823      5534.8297      19266.994      2455.363       6522.8488     -1908.1908      201.69687     -266.62147      43035.101     -30773.204     -528.9452       74202.827      42.021687      42.021687      42.021687      1.1206938      547.10551     -222.11553      875.815      
      5400   5400           303.73922     -190.49552      24706.791      24913.466      5594.3982      19319.068      2459.5744      6645.7738     -1915.9463      192.12894     -341.92333      43051.991     -30772.53      -527.59793      74392.311      42.057425      42.057425      42.057425      1.1178393     -332.64932     -231.53871     -7.2985241    
      5500   5500           302.29105      791.76782      25748.584      24889.315      5567.7252      19321.589      2427.8872      6646.5352     -1944.2271      190.87704     -274.74344      43049.094     -30773.834     -527.44277      74414.196      42.061549      42.061549      42.061549      1.1175106      589.58324      730.70297      1055.0172    
      5600   5600           300.39177      1067.6738      25979.731      24822.076      5532.7434      19289.333      2439.7692      6568.0328     -1923.6877      199.81555     -250.34968      43030.441     -30774.688     -527.91789      74347.223      42.048927      42.048927      42.048927      1.1185172      1487.1515      562.76352      1153.1065    
      5700   5700           300.04513      659.77478      25493.755      24779.249      5526.3589      19252.89       2429.8493      6556.3077     -1920.6155      214.92094     -314.3942       43062.258     -30775.436     -528.56318      74256.458      42.031808      42.031808      42.031808      1.1198844      210.1174       480.37659      1288.8304    
      5800   5800           300.02958      200.65537      24982.908      24766.223      5526.0723      19240.151      2429.1669      6504.321      -1847.7495      198.41621     -333.40262      43057.502     -30768.103     -530.06379      74046.238      41.992107      41.992107      41.992107      1.1230638     -36.190999     -183.10565      821.26276    
      5900   5900           299.59296     -448.57631      24268.944      24751.948      5518.0306      19233.917      2402.3781      6578.3876     -1933.1962      209.43811     -292.0487       43035.794     -30766.835     -531.60998      73830.874      41.951356      41.951356      41.951356      1.1263398     -540.44355     -1053.3272      248.04185    
      6000   6000           300.62491      955.79744      25792.857      24764.888      5537.0375      19227.85       2409.7544      6576.3115     -1951.9085      205.65297     -268.15923      43029.515     -30773.316     -532.22175      73746.008      41.935276      41.935276      41.935276      1.127636      -308.70187      790.74103      2385.3532    
      6100   6100           303.8191       1277.8788      26191.105      24816.041      5595.8694      19220.172      2398.0808      6620.1242     -1921.6816      198.54543     -338.87095      43040.486     -30776.511     -531.95394      73783.135      41.942312      41.942312      41.942312      1.1270685      1328.353       1683.051       822.23251    
      6200   6200           300.63313      1157.3451      26091.359      24845.118      5537.1889      19307.929      2540.2925      6543.9088     -1920.0061      197.12463     -308.18844      43029.572     -30774.775     -531.57888      73835.193      41.952174      41.952174      41.952174      1.1262739      811.61926      853.38994      1807.026     
      6300   6300           298.28002      138.11285      24935.29       24786.393      5493.8483      19292.545      2418.3129      6662.2775     -1888.8679      194.86532     -366.73752      43038.473     -30765.778     -530.95107      73922.497      41.968703      41.968703      41.968703      1.1249437     -265.92283      557.74348      122.51792    
      6400   6400           299.16838      654.48426      25389.863      24684.335      5510.2105      19174.125      2418.047       6615.0733     -1950.2324      201.19176     -367.62895      43027.203     -30769.529     -530.99729      73916.063      41.967485      41.967485      41.967485      1.1250417     -411.89749      924.63318      1450.7171    
      6500   6500           296.3124      -164.17266      24490.9        24667.998      5457.6079      19210.39       2428.8149      6550.9032     -1874.9096      197.9707      -344.32411      43021.566     -30769.631     -530.63406      73966.66       41.977059      41.977059      41.977059      1.1242721      546.30065     -1328.4778      289.6592     
      6600   6600           304.86092      1211.0924      26128.584      24818.92       5615.0582      19203.861      2439.6188      6568.1696     -1939.1645      212.09404     -326.95927      43024.555     -30774.452     -529.32713      74149.287      42.011578      42.011578      42.011578      1.121503       2136.2799      929.19934      567.79788    
      6700   6700           303.26022      715.6298       25657.206      24881.574      5585.5757      19295.998      2470.8924      6609.2421     -1958.1046      214.0996      -306.50719      43035.559     -30769.183     -528.12855      74317.568      42.043335      42.043335      42.043335      1.1189636     -71.640168      559.53339      1658.9962    
      6800   6800           301.59853     -646.20889      24129.859      24830.438      5554.97        19275.468      2454.5635      6625.8913     -1898.9581      188.97778     -366.47863      43039.408     -30767.937     -527.98711      74337.476      42.047089      42.047089      42.047089      1.1186639     -1232.0815     -670.42178     -36.12336     
      6900   6900           297.27302      732.82735      25532.64       24739.375      5475.3009      19264.074      2447.6505      6540.3992     -1925.9992      207.42986     -279.63174      43044.489     -30770.264     -528.79818      74223.458      42.025581      42.025581      42.025581      1.1203823      173.67237     -99.977575      2124.7873    
      7000   7000           297.02968      1270.845       26076.703      24701.805      5470.819       19230.986      2465.0415      6527.407      -1931.2658      201.923       -290.82545      43033.764     -30775.058     -529.08929      74182.618      42.017872      42.017872      42.017872      1.1209991      1434.0137      865.37855      1513.1428    
      7100   7100           299.0876       1471.5117      26344.636      24754.999      5508.7226      19246.277      2380.8172      6566.4079     -1911.9284      196.71977     -248.43158      43039.182     -30776.49      -529.87442      74072.701      41.997109      41.997109      41.997109      1.1226626      1061.7625      1271.5003      2081.2724    
      7200   7200           305.10722     -938.89018      23910.677      24922.83       5619.5946      19303.235      2523.1985      6609.0584     -1913.6         185.34656     -368.59307      43038.693     -30770.868     -530.97665      73918.936      41.968029      41.968029      41.968029      1.1249979     -181.91848     -1220.4905     -1414.2615    
      7300   7300           303.48781      855.76282      25829.838      24909.242      5589.7676      19319.475      2382.317       6720.703      -1940.86        192.68856     -306.98998      43039.154     -30767.538     -532.09802      73763.156      41.938526      41.938526      41.938526      1.1273738      1246.511      -161.86434      1482.6418    
      7400   7400           303.11809      138.39496      24962.532      24813.396      5582.9579      19230.438      2444.5613      6569.4804     -1867.6741      194.50392     -371.86781      43034.955     -30773.521     -531.18487      73889.96       41.962544      41.962544      41.962544      1.1254391     -1760.3508     -18.566876      2194.1026    
      7500   7500           301.51198      696.07572      25484.791      24735.665      5553.3758      19182.289      2411.634       6564.5958     -1920.5185      199.10402     -331.60653      43034.637     -30775.557     -531.87382      73794.249      41.944418      41.944418      41.944418      1.1268988      724.01134      199.06878      1165.147     
      7600   7600           296.41263      41.847653      24743.942      24698.936      5459.4538      19239.482      2389.3512      6672.6119     -1916.6409      205.93605     -366.76906      43023.365     -30768.373     -532.23293      73744.459      41.934982      41.934982      41.934982      1.1276597      531.0704       930.94045     -1336.4679    
      7700   7700           299.93597      1008.5494      25804.747      24718.771      5524.3482      19194.422      2389.4888      6652.0278     -1965.874       198.74403     -354.76747      43034.289     -30759.485     -531.59879      73832.427      41.95165       41.95165       41.95165       1.1263161      1162.3847     -164.64253      2027.9059    
      7800   7800           305.61788      652.26491      25594.568      24891.667      5629           19262.667      2493.025       6548.9391     -1893.7761      199.09697     -336.71009      43023.149     -30771.057     -531.1743       73891.431      41.962822      41.962822      41.962822      1.1254167      221.08201     -199.64344      1935.3562    
      7900   7900           303.0701       234.93335      25164.394      24910.843      5582.074       19328.769      2517.4672      6614.3685     -1918.1119      208.83139     -371.03016      43038.243     -30760.999     -530.38002      74002.089      41.98376       41.98376       41.98376       1.1237338      345.8205       243.21104      115.7685     
      8000   8000           299.56895      219.92415      25061.997      24824.569      5517.5884      19306.981      2471.255       6657.4045     -1945.1808      213.75037     -346.88449      43023.793     -30767.156     -530.21011      74025.803      41.988244      41.988244      41.988244      1.1233738      731.91094      643.47578     -715.61427    
      8100   8100           296.14749      748.15795      25550.361      24742.112      5454.5705      19287.541      2393.7483      6575.3818     -1900.7823      218.79339     -273.31062      43041.374     -30767.664     -529.85236      74075.784      41.997691      41.997691      41.997691      1.1226159      1715.8271      794.02365     -265.37694    
      8200   8200           301.66789      545.61415      25321.669      24732.347      5556.2476      19176.099      2419.2339      6598.6172     -1953.6064      197.90135     -371.27506      43056.531     -30771.303     -529.95596      74061.303      41.994955      41.994955      41.994955      1.1228354     -136.93241      943.56488      830.20999    
      8300   8300           299.6116      -291.18911      24452.394      24766.388      5518.3738      19248.014      2449.828       6534.9179     -1889.6117      198.05849     -315.36108      43036.934     -30766.752     -530.8365       73938.452      41.971722      41.971722      41.971722      1.124701      -177.79522     -399.24561     -296.52651    
      8400   8400           302.81848      629.96067      25493.178      24815.413      5577.4395      19237.974      2335.5423      6649.9985     -1924.9463      188.13613     -295.77798      43050.787     -30765.766     -532.03691      73771.628      41.940132      41.940132      41.940132      1.1272443      1436.161      -254.72622      708.44717    
      8500   8500           302.33638      317.15648      25282.755      24941.654      5568.56        19373.094      2483.6967      6682.1556     -1958.4474      189.21956     -317.94781      43064.028     -30769.611     -532.22744      73745.219      41.935126      41.935126      41.935126      1.127648       202.12335      158.30999      591.03609    
      8600   8600           305.70566      1313.9582      26343.555      24930.096      5630.6169      19299.479      2400.0956      6584.8989     -1909.4927      208.46024     -291.44285      43070.019     -30763.059     -532.11472      73760.841      41.938087      41.938087      41.938087      1.1274092      1776.0209      741.14244      1424.7112    
      8700   8700           300.24263      1134.8491      26015.976      24794.437      5529.9965      19264.44       2482.251       6579.5153     -1897.4609      196.89325     -377.69067      43049.06      -30768.128     -531.7868       73806.325      41.946706      41.946706      41.946706      1.1267144      537.0982      -195.41359      3062.8627    
      8800   8800           297.34764      1158.0072      25977.201      24730.677      5476.6752      19254.002      2447.0444      6545.2305     -1918.03        209.24957     -290.52104      43031.853     -30770.824     -531.76261      73809.682      41.947342      41.947342      41.947342      1.1266632      598.37208      905.69277      1969.9568    
      8900   8900           301.28001      861.91646      25639.862      24711.094      5549.1033      19161.991      2449.1474      6530.4714     -1946.3624      199.88075     -335.36134      43035.558     -30771.343     -531.2085       73886.674      41.961922      41.961922      41.961922      1.1254892      1646.8593      1487.2992     -548.40914    
      9000   9000           303.60148      351.84414      25154.677      24774.847      5591.8612      19182.986      2498.8662      6511.7353     -1900.8781      198.29614     -380.90597      43028.779     -30772.907     -530.23526      74022.292      41.98758       41.98758       41.98758       1.1234271      207.96521      128.11673      719.4505     
      9100   9100           307.23703      552.38781      25498.748      24902.231      5658.8223      19243.409      2467.2296      6576.5224     -1938.0826      210.02421     -320.81638      43023.233     -30774.701     -530.06443      74046.148      41.99209       41.99209       41.99209       1.1230652      119.74608      484.7552       1052.6622    
      9200   9200           306.35128      291.87484      25189.259      24873.587      5642.5082      19231.079      2464.3892      6565.3901     -1933.6658      207.11536     -349.56162      43046.861     -30769.449     -529.25822      74158.942      42.013401      42.013401      42.013401      1.121357      -335.49291      1168.1732      42.944228    
      9300   9300           301.244       -182.58153      24608.983      24806.852      5548.4401      19258.412      2511.5136      6533.2009     -1898.6588      208.72571     -357.4488       43029.137     -30768.057     -528.18455      74309.688      42.04185       42.04185       42.04185       1.1190822     -309.23219     -791.58822      553.07581    
      9400   9400           300.17644     -852.13393      23836.034      24759.462      5528.7774      19230.685      2510.4885      6519.6396     -1851.0733      217.37847     -425.95563      43028.96      -30768.753     -528.21632      74305.219      42.041007      42.041007      42.041007      1.1191495     -382.83733     -1001.0324     -1172.5321    
      9500   9500           298.70643      999.74786      25814.984      24735.49       5501.7022      19233.788      2393.3151      6566.865      -1914.9583      196.10982     -280.74908      43043.115     -30769.909     -530.1238       74037.855      41.990522      41.990522      41.990522      1.123191       422.07705      1352.047       1225.1195    
      9600   9600           301.33406      1181.5338      26058.239      24786.988      5550.0989      19236.889      2406.4588      6599.7635     -1932.5219      199.63435     -307.81211      43041.51      -30770.143     -532.01248      73775.016      41.940774      41.940774      41.940774      1.1271926      2849.582      -115.83222      810.85168    
      9700   9700           304.47261      36.967082      24956.999      24917.289      5607.906       19309.383      2585.4069      6560.7786     -1934.8705      208.0282      -370.31151      43035.374     -30775.023     -532.87309      73655.867      41.918183      41.918183      41.918183      1.129016      -1286.2927      509.32052      887.87345    
      9800   9800           301.91113      2240.0718      27314.87       24911.224      5560.7275      19350.497      2404.8761      6625.5267     -1924.1619      210.84634     -251.74767      43052.837     -30767.68      -533.45592      73575.393      41.902911      41.902911      41.902911      1.1302508      1606.7206      1644.7769      3468.7179    
      9900   9900           301.27705      520.03499      25339.659      24779.607      5549.0488      19230.558      2414.6195      6632.7797     -1936.6133      197.33653     -311.30201      43005.019     -30771.281     -531.50976      73844.794      41.953992      41.953992      41.953992      1.1261275      639.33925      629.14685      291.61886    
     10000   10000          298.98177      671.67623      25463.364      24736.956      5506.7734      19230.183      2368.5666      6588.085      -1983.1905      200.39663     -231.64022      43059.996     -30772.031     -529.281        74155.749      42.012798      42.012798      42.012798      1.1214053      1412.8        -187.2175       789.44618    
     10100   10100          296.17996      565.61836      25368.055      24753.812      5455.1685      19298.644      2490.9125      6574.4054     -1939.3895      215.00185     -312.3235       43043.331     -30773.295     -527.09661      74463.065      42.070755      42.070755      42.070755      1.1167772     -1008.0792      844.781        1860.1532    
     10200   10200          299.63943      629.13942      25488.346      24803.886      5518.8864      19284.999      2415.7892      6589.8591     -1939.0031      203.94623     -254.66926      43039.637     -30770.56      -526.1453       74597.699      42.096095      42.096095      42.096095      1.1147616      287.99172     -200.86182      1800.2884    
     10300   10300          303.00761     -872.47683      23927.937      24876.863      5580.9231      19295.94       2436.0968      6684.075      -1934.0122      228.08706     -385.24869      43033.547     -30766.606     -526.29455      74576.545      42.092116      42.092116      42.092116      1.1150778     -413.59945     -729.58044     -1474.2506    
     10400   10400          303.26264     -840.05178      24068.67       24979.785      5585.6202      19394.165      2507.7973      6704.7351     -1920.5067      215.33157     -391.4819       43039.853     -30761.563     -527.764        74368.902      42.053014      42.053014      42.053014      1.1181912     -1775.1073     -1005.7916      260.7436     
     10500   10500          302.43194      2110.0477      27177.952      24898.01       5570.3201      19327.69       2433.277       6621.4745     -1977.002       228.30009     -252.94991      43040.865     -30766.275     -529.75562      74089.312      42.000248      42.000248      42.000248      1.1224109      3223.9345      1156.9918      1949.2169    
     10600   10600          296.79634      932.82481      25788.3        24782.335      5466.5213      19315.814      2426.4052      6603.9278     -1883.9045      214.84452     -304.91262      43032.609     -30773.156     -530.79198      73944.654      41.972895      41.972895      41.972895      1.1246067      480.18216      2852.6791     -534.38685    
     10700   10700          302.14665      726.11509      25519.082      24737.505      5565.0654      19172.44       2431.9087      6528.1168     -1953.6173      208.77307     -308.33556      43038.733     -30773.139     -531.79125      73805.708      41.946589      41.946589      41.946589      1.1267238      749.90335      309.94488      1118.497     
     10800   10800          301.13522      715.61873      25461.943      24692.092      5546.4365      19145.656      2445.5113      6545.7521     -1934.5027      189.29493     -360.29132      43032.088     -30772.197     -532.08626      73764.786      41.938835      41.938835      41.938835      1.1273489      418.69106     -420.74913      2148.9143    
     10900   10900          295.26891      711.73809      25448.929      24683.126      5438.3884      19244.738      2425.856       6548.4084     -1894.1812      203.84997     -287.79064      43021.206     -30772.611     -531.99816      73777.002      41.94115       41.94115       41.94115       1.1271622     -1193.1615      1269.6734      2058.7024    
     11000   11000          301.35108      1426.9096      26353.328      24815.692      5550.4124      19265.279      2452.4274      6558.5082     -1921.0211      199.16171     -290.88961      43039.775     -30772.682     -531.18984      73889.269      41.962413      41.962413      41.962413      1.1254496      1155.6692      1406.768       1718.2915    
     11100   11100          301.5591      -485.74916      24349.331      24874.135      5554.2438      19319.891      2491.3061      6624.0251     -1904.9973      198.85958     -336.87477      43022.426     -30774.854     -529.81249      74081.359      41.998745      41.998745      41.998745      1.1225314     -1809.1157      32.151842      319.71635    
     11200   11200          298.39817     -583.74941      24191.214      24822.354      5496.0244      19326.33       2473.7458      6583.3659     -1864.163       221.56996     -353.2513       43033.069     -30768.006     -529.42914      74135.001      42.00888       42.00888       42.00888       1.1217192     -1137.463      -413.70048     -200.08475    
     11300   11300          296.9434       976.94847      25768.558      24713.883      5469.2299      19244.654      2427.1287      6613.2953     -1902.0352      204.20138     -376.16067      43043.325     -30765.101     -530.22493      74023.734      41.987853      41.987853      41.987853      1.1234052      2449.4319      346.36155      135.05199    
     11400   11400          296.97072      1115.8587      25889.729      24685.372      5469.7329      19215.639      2329.2404      6612.3269     -1883.2895      195.35523     -304.8979       43033.699     -30766.795     -530.34819      74006.531      41.9846        41.9846        41.9846        1.1236664      491.37826      750.34852      2105.8492    
     11500   11500          293.41478     -292.1741       24411.864      24727.001      5404.2383      19322.762      2468.7357      6578.3572     -1891.5381      212.58618     -330.30373      43056.058     -30771.133     -530.70046      73957.406      41.975308      41.975308      41.975308      1.1244128     -893.19192     -246.14864      262.81828    
     11600   11600          303.25624      128.64703      24918.495      24779.879      5585.5023      19194.377      2461.4563      6473.9627     -1895.5619      194.70469     -300.2471       43025.896     -30765.833     -531.24591      73881.471      41.960937      41.960937      41.960937      1.1255684      539.76325     -27.757472     -126.0647     
     11700   11700          302.77471      1296.7337      26209.162      24810.063      5576.6333      19233.43       2436.5885      6492.233      -1900.007       200.50651     -274.63969      43045.583     -30766.835     -530.5294       73981.252      41.979819      41.979819      41.979819      1.1240503      1046.1552      1331.8352      1512.2108    
     11800   11800          300.56988      1153.1279      26041.75       24795.974      5536.0239      19259.95       2374.4812      6590.8824     -1938.6023      217.60709     -285.26343      43070.316     -30769.47      -529.84009      74077.5        41.998016      41.998016      41.998016      1.1225899      950.62217      2410.6255      98.136059    
     11900   11900          298.51872     -181.82445      24523.444      24720.083      5498.2447      19221.838      2411.8366      6580.6574     -1886.466       200.45563     -371.91313      43053.177     -30765.909     -529.28372      74155.368      42.012726      42.012726      42.012726      1.1214111      373.51422     -837.25137     -81.736194    
     12000   12000          292.23608      527.94994      25215.729      24644.704      5382.5283      19262.176      2443.4772      6580.7225     -1935.0999      204.65491     -299.35166      43040.401     -30772.628     -529.23074      74162.792      42.014128      42.014128      42.014128      1.1212988     -631.73174      747.86253      1467.719     
     12100   12100          299.08589      1041.6625      25841.435      24716.222      5508.6912      19207.53       2418.326       6582.6246     -1954.2843      213.07589     -324.21695      43041.785     -30769.78      -529.90645      74068.224      41.996263      41.996263      41.996263      1.1227305      1718.7954      667.47833      738.71384    
     12200   12200          301.67454      147.55954      25007.745      24848.639      5556.3699      19292.269      2406.472       6590.3896     -1918.0332      218.75354     -278.11319      43038.191     -30765.39      -530.86915      73933.905      41.970861      41.970861      41.970861      1.1247702     -122.98463     -156.46778      722.13104    
     12300   12300          301.19337      581.42329      25452.338      24825.601      5547.5077      19278.093      2431.2432      6587.486      -1923.9287      200.72634     -304.58316      43052.444     -30765.295     -531.02419      73912.319      41.966776      41.966776      41.966776      1.1250987      539.48901      491.28509      713.49576    
     12400   12400          297.96853      7.6037551      24757.021      24748.822      5488.1112      19260.711      2494.2479      6569.6527     -1920.9108      195.40467     -344.71322      43029.545     -30762.515     -530.86449      73934.555      41.970984      41.970984      41.970984      1.1247603     -340.61294      595.17744     -231.75323    
     12500   12500          298.73926      243.10083      24979.073      24716.902      5502.3067      19214.595      2444.4085      6602.4008     -1944.7192      214.33079     -353.04536      43024.631     -30773.411     -530.77257      73947.357      41.973407      41.973407      41.973407      1.1245656      250.26282      540.98399     -61.944323    
     12600   12600          297.91132      1153.308       26002.069      24757.673      5487.0574      19270.615      2450.8223      6628.7496     -1955.9999      211.42498     -329.39441      43037.847     -30772.834     -530.51014      73983.938      41.980327      41.980327      41.980327      1.1240095      8.2676776      1631.9539      1819.7023    
     12700   12700          303.61593      1552.3414      26604.902      24928.211      5592.1274      19336.083      2387.2624      6653.4396     -1907.4641      213.99433     -277.98347      43033.652     -30766.817     -529.95749      74061.089      41.994914      41.994914      41.994914      1.1228386      1539.4121      801.45497      2316.1571    
     12800   12800          305.61852      955.42646      25941.884      24908.06       5629.0119      19279.048      2446.8032      6593.6426     -1922.8656      189.97015     -291.16288      43030.301     -30767.64      -529.00225      74194.824      42.020176      42.020176      42.020176      1.1208147      315.08051     -373.29608      2924.495     
     12900   12900          301.90792     -413.18546      24364.131      24811.531      5560.6685      19250.863      2485.5134      6492.1076     -1918.3613      211.29372     -293.42409      43034.98      -30761.247     -528.63432      74246.464      42.029923      42.029923      42.029923      1.1200352      10.287412     -386.20109     -863.64271    
     13000   13000          300.39138      1225.0074      26090.671      24763.763      5532.7362      19231.027      2311.7239      6567.9656     -1891.1096      198.61951     -238.07279      43050.488     -30768.587     -528.45128      74272.181      42.034775      42.034775      42.034775      1.1196473      166.49994      2500.2973      1008.2251    
     13100   13100          298.12725     -727.27605      23972.571      24761.918      5491.0344      19270.884      2509.0588      6672.1612     -1931.4584      202.88654     -461.3456       43041.986     -30762.405     -527.3975       74420.583      42.062753      42.062753      42.062753      1.1174147     -87.729267     -1536.0901     -558.00879    
     13200   13200          301.2837      -561.97932      24180.687      24788.989      5549.1714      19239.818      2497.8608      6614.2069     -1957.291       226.62053     -408.17766      43033.838     -30767.24      -528.82014      74220.375      42.024999      42.024999      42.024999      1.1204289     -316.09032     -1028.8156     -341.03203    
     13300   13300          301.38818      368.02067      25308.341      24911.519      5551.0957      19360.423      2447.9277      6562.5682     -1904.6969      219.09604     -241.25102      43042.285     -30765.506     -530.8642       73934.595      41.970992      41.970992      41.970992      1.1247597     -412.49604      235.13978      1281.4183    
     13400   13400          303.4621       1272.637       26341.197      24969.827      5589.294       19380.533      2468.1675      6619.2592     -1912.1161      213.67323     -274.82633      43037.635     -30771.26      -531.19858      73888.054      41.962183      41.962183      41.962183      1.1254681      524.20808      2797.7223      495.98056    
     13500   13500          300.25987      1201.2367      26139.012      24845.479      5530.314       19315.165      2375.8164      6677.4543     -1903.2149      209.35677     -316.91614      43045.085     -30772.416     -531.56711      73836.828      41.952484      41.952484      41.952484      1.126249       1230.0576      1460.3115      913.34088    
     13600   13600          297.34799      153.18704      24935.735      24770.897      5476.6817      19294.215      2428.1532      6614.1059     -1947.9676      208.13501     -273.35084      43032.205     -30767.066     -531.94993      73783.69       41.942417      41.942417      41.942417      1.1270601     -333.4151       294.61522      498.36099    
     13700   13700          302.69106      876.58381      25700.762      24756.802      5575.0927      19181.709      2410.9691      6534.5392     -1946.3805      198.20128     -288.43385      43042.547     -30769.733     -531.55335      73838.739      41.952846      41.952846      41.952846      1.1262198      956.95559     -1039.0935      2711.8894    
     13800   13800          298.24928      643.0333       25473.047      24779.003      5493.2821      19285.721      2440.0914      6570.4753     -1864.8502      200.60635     -309.48818      43018.191     -30769.305     -530.33878      74007.843      41.984848      41.984848      41.984848      1.1236465      1390.5523     -542.20344      1080.7511    
     13900   13900          301.39741      817.32835      25761.316      24877.151      5551.2657      19325.885      2384.6144      6572.7773     -1863.1982      217.52866     -276.21906      43055.559     -30765.177     -529.13929      74175.61       42.016549      42.016549      42.016549      1.121105       537.87461      1213.8052      700.30529    
     14000   14000          303.99194     -266.35704      24666.776      24955.147      5599.0528      19356.094      2532.0336      6655.636      -1955.5254      229.72306     -364.78866      43027.096     -30768.081     -528.71223      74235.523      42.027858      42.027858      42.027858      1.1202002     -242.07988     -871.60868      314.61743    
     14100   14100          298.86156      483.62078      25400.001      24878.138      5504.5594      19373.579      2423.3883      6705.9197     -1901.6404      219.76242     -341.76018      43032.16      -30764.251     -530.46394      73990.382      41.981546      41.981546      41.981546      1.1239116      1076.2892     -482.1061       856.67926    
     14200   14200          299.28424      625.67349      25415.484      24742.535      5512.3444      19230.191      2452.9313      6661.3106     -1952.7811      207.80787     -398.53541      43028.454     -30768.997     -532.19731      73749.394      41.935918      41.935918      41.935918      1.1275842      1121.6864     -318.89877      1074.2329    
     14300   14300          298.74395      482.32328      25239.48       24722.082      5502.3932      19219.689      2444.7588      6527.2323     -1911.5943      195.04607     -303.13896      43037.624     -30770.239     -533.60562      73554.752      41.898992      41.898992      41.898992      1.130568       492.75356      429.99773      524.21856    
     14400   14400          298.36398     -160.7382       24574.855      24747.304      5495.3947      19251.91       2451.3283      6659.4092     -1940.8072      192.25113     -376.06702      43030.342     -30764.547     -533.53811      73564.059      41.90076       41.90076       41.90076       1.130425      -594.83212     -1015.7392      1128.3567    
     14500   14500          303.54884      944.81547      25845.288      24830.12       5590.8917      19239.229      2430.0849      6646.6586     -1929.0245      206.69375     -386.58203      43036.249     -30764.851     -532.74097      73674.133      41.921648      41.921648      41.921648      1.1287361      721.64765      531.33383      1581.4649    
     14600   14600          304.40496     -71.483712      24823.821      24900.785      5606.66        19294.125      2443.2525      6662.9416     -1917.1642      192.87897     -326.55321      43014.94      -30776.171     -531.65593      73824.492      41.950147      41.950147      41.950147      1.1264372      995.96207     -168.25521     -1042.158     
     14700   14700          300.65162     -252.42614      24545.296      24817.574      5537.5294      19280.044      2468.051       6641.4264     -1907.6988      201.14817     -356.669        43005.481     -30771.695     -530.67692      73960.686      41.975928      41.975928      41.975928      1.1243629     -378.62692      371.22166     -749.87315    
     14800   14800          297.68528      531.53716      25268.232      24693.869      5482.894       19210.975      2428.3364      6588.0559     -1941.3504      216.65101     -343.96656      43033.522     -30770.273     -529.72974      74092.932      42.000932      42.000932      42.000932      1.1223561     -717.42604      482.83821      1829.1993    
     14900   14900          296.81516      479.98819      25220.098      24700.558      5466.8678      19233.69       2476.5534      6542.3801     -1874.9766      195.01485     -373.62734      43038.489     -30770.144     -528.8333       74218.529      42.024651      42.024651      42.024651      1.1204567      1563.0285     -504.71853      381.65461    
     15000   15000          300.72625      280.92456      25091.628      24787.611      5538.9039      19248.708      2423.6461      6578.8656     -1916.4652      208.06919     -307.76748      43034.767     -30772.408     -528.93103      74204.815      42.022062      42.022062      42.022062      1.1206638     -1178.8402      991.09387      1030.52      
     15100   15100          297.88342     -133.97157      24712.848      24857.772      5486.5435      19371.228      2501.0531      6694.7404     -1906.925       193.63439     -361.32018      43020.855     -30770.809     -529.15283      74173.711      42.01619       42.01619       42.01619       1.1211337     -1327.5927      666.24906      259.42896    
     15200   15200          301.30499      1590.4206      26591.188      24874.112      5549.5635      19324.549      2466.2293      6607.5874     -1944.7899      187.05736     -263.70173      43045.006     -30772.84      -530.18758      74028.949      41.988838      41.988838      41.988838      1.1233261      3389.4742      379.72702      1002.0605    
     15300   15300          296.69052      1370.1925      26253.581      24775.591      5464.5722      19311.019      2410.385       6610.4306     -1945.6079      207.42434     -241.12676      43045.902     -30776.388     -530.66102      73962.903      41.976348      41.976348      41.976348      1.1243292      1936.2586     -483.63215      2657.951     
     15400   15400          297.27351     -186.63637      24473.566      24674.949      5475.3099      19199.639      2420.6145      6541.576      -1906.8183      197.88535     -344.08095      43056.074     -30765.611     -530.49342      73986.269      41.980768      41.980768      41.980768      1.1239741     -806.80706      893.1263      -646.22837    
     15500   15500          301.44005      980.32056      25758.253      24701.103      5552.051       19149.052      2458.7006      6497.3623     -1954.82        196.83539     -329.92731      43051.479     -30770.578     -530.80918      73942.257      41.972442      41.972442      41.972442      1.1246431      155.51443      980.18568      1805.2616    
     15600   15600          304.59727      968.8041       25851.38       24808.06       5610.202       19197.858      2450.3921      6522.6935     -1935.9439      194.18969     -318.12414      43055.154     -30770.503     -531.52678      73842.431      41.953545      41.953545      41.953545      1.1261635     -306.07723      1527.3873      1685.1023    
     15700   15700          300.23459      662.02156      25561.007      24848.548      5529.8483      19318.7        2453.7586      6613.2026     -1912.144       196.29194     -321.47221      43052.612     -30763.549     -531.88715      73792.399      41.944068      41.944068      41.944068      1.126927       1170.8563     -1301.1303      2116.3387    
     15800   15800          305.75278      720.0723       25597.126      24822.873      5631.4848      19191.388      2413.9216      6515.9821     -1929.9459      206.94604     -289.22819      43038.836     -30765.124     -532.35333      73727.779      41.931821      41.931821      41.931821      1.1279148      981.14214      479.84197      699.23279    
     15900   15900          294.82255      983.32473      25699.485      24641.887      5430.1671      19211.72       2398.7307      6594.454      -1949.2772      205.39778     -310.90823      43043.333     -30770.01      -532.21066      73747.545      41.935567      41.935567      41.935567      1.1276125     -223.43936      1491.2597      1682.1538    
     16000   16000          298.22686      1362.2414      26083.303      24615.862      5492.8691      19122.993      2376.3433      6587.3698     -1927.2787      197.68063     -372.63635      43035.448     -30773.934     -531.37414      73863.642      41.957561      41.957561      41.957561      1.1258401      1853.475       802.81855      1430.4306    
     16100   16100          296.4102      -292.22172      24405.398      24720.686      5459.4091      19261.276      2541.7129      6508.8147     -1934.8759      208.86919     -303.97515      43013.465     -30772.734     -530.53297      73980.754      41.979724      41.979724      41.979724      1.1240579      346.26751     -2155.0906      932.15793    
     16200   16200          302.04725      935.4167       25808.757      24799.485      5563.2347      19236.25       2451.4348      6639.341      -1941.4096      203.95978     -379.79987      43034.834     -30772.109     -530.52256      73982.205      41.979999      41.979999      41.979999      1.1240358      1911.4382      795.48176      99.330174    
     16300   16300          302.44222      636.37738      25490.65       24803.836      5570.5095      19233.327      2404.2172      6594.5899     -1947.1597      208.88663     -306.01045      43042.664     -30763.86      -530.37478      74002.819      41.983898      41.983898      41.983898      1.1237227     -76.965993     -125.20192      2111.3       
     16400   16400          300.22848     -847.17803      23870.134      24785.262      5529.7359      19255.526      2488.5573      6650.0177     -1955.3403      204.49016     -379.42693      43020.454     -30773.226     -529.90766      74068.054      41.996231      41.996231      41.996231      1.122733      -792.11567     -1121.5237     -627.89472    
     16500   16500          298.30523     -487.14642      24105.846      24631.849      5494.3126      19137.537      2518.0377      6573.9238     -1984.8937      199.8414      -433.95769      43036.982     -30772.397     -530.12417      74037.804      41.990513      41.990513      41.990513      1.1231917     -226.2736      -1864.286       629.12038    
     16600   16600          297.73299      1945.3691      26718.187      24625.58       5483.7728      19141.807      2405.6517      6466.513      -1946.7706      206.2316      -264.13072      43041.095     -30766.784     -532.13423      73758.137      41.937575      41.937575      41.937575      1.1274505      2139.2819      1159.2083      2537.6172    
     16700   16700          300.7025       1315.3848      26144.753      24731.024      5538.4665      19192.558      2432.3682      6551.9503     -1939.7398      206.86068     -328.31433      43036.43      -30766.997     -532.59093      73694.888      41.925584      41.925584      41.925584      1.1284182      722.25286      1263.518       1960.3835    
     16800   16800          303.0374       655.09667      25477.813      24773.655      5581.4718      19192.184      2375.4069      6538.013      -1934.5707      215.14159     -290.19955      43053.875     -30765.483     -532.52783      73703.62       41.92724       41.92724       41.92724       1.1282845      1124.5639      396.19417      444.53192    
     16900   16900          299.42694      190.71063      24978.773      24772.956      5514.9727      19257.984      2500.8043      6532.0162     -1937.0952      210.3708      -323.07713      43043.09      -30768.125     -530.39867      73999.487      41.983267      41.983267      41.983267      1.1237733      608.1318      -648.53711      612.53719    
     17000   17000          301.75702      1100.2942      25977.01       24787.191      5557.8892      19229.302      2467.5007      6535.5579     -1963.9446      220.61176     -311.73787      43045.912     -30764.598     -529.34042      74147.426      42.011226      42.011226      42.011226      1.1215312      406.21867      347.70174      2546.9621    
     17100   17100          299.96582      495.19282      25379.214      24843.915      5524.898       19319.017      2470.8713      6667.8281     -1944.9913      209.56015     -333.25358      43024.243     -30775.241     -529.52271      74121.899      42.006405      42.006405      42.006405      1.1219174     -88.486216      472.24461      1101.8201    
     17200   17200          305.50382     -39.297604      24858.873      24901.282      5626.8992      19274.383      2503.864       6617.3659     -1951.6264      208.21037     -375.10849      43042.013     -30770.336     -530.41552      73997.135      41.982823      41.982823      41.982823      1.1238091     -470.2431       1060.4269     -708.07666    
     17300   17300          304.11944      942.08591      25891.572      24876.527      5601.4011      19275.126      2390.451       6633.3763     -1903.7994      211.61448     -332.2949       43048.287     -30772.508     -531.26653      73878.603      41.960394      41.960394      41.960394      1.1256121      1576.2105      187.48915      1062.5581    
     17400   17400          298.02987      97.004248      24848.19       24743.706      5489.2409      19254.465      2489.712       6644.3501     -1952.9964      207.25042     -380.01993      43014.902     -30768.733     -531.43419      73855.296      41.955981      41.955981      41.955981      1.1259673      75.820595     -1017.451       1232.6431    
     17500   17500          297.96292      772.34861      25526.747      24696.317      5488.0079      19208.309      2432.9471      6590.5365     -1971.0367      219.35185     -307.62078      43016.045     -30771.914     -532.37503      73724.775      41.931251      41.931251      41.931251      1.1279607      665.01701      551.99383      1100.035     
     17600   17600          294.23307      224.4226       24937.727      24696.49       5419.3099      19277.181      2435.2954      6624.8307     -1861.9741      200.31109     -365.92542      43017.519     -30772.876     -532.5126       73705.728      41.92764       41.92764       41.92764       1.1282522      866.53306      603.29057     -796.55584    
     17700   17700          299.15412     -403.64827      24357.029      24791.43       5509.9477      19281.483      2449.8065      6693.0011     -1956.1351      199.16753     -362.43818      43022.758     -30764.677     -531.8868       73792.448      41.944077      41.944077      41.944077      1.1269263     -736.39123     -947.74236      473.18877    
     17800   17800          299.35225      151.94837      25080.107      24916.29       5513.5971      19402.693      2501.7018      6697.0974     -1914.8313      199.07163     -348.22182      43032.966     -30765.09      -530.93967      73924.085      41.969003      41.969003      41.969003      1.1249196      35.65917       378.68502      41.500911    
     17900   17900          303.77656      783.47298      25737.823      24891.911      5595.0859      19296.825      2385.3255      6696.4546     -1970.1991      179.42183     -270.7443       43047.601     -30771.034     -530.15903      74032.936      41.989592      41.989592      41.989592      1.1232656      1405.7706      352.97705      591.67131    
     18000   18000          299.66643      142.87524      24978.022      24823.436      5519.3838      19304.052      2460.316       6659.43       -1945.3455      194.30624     -324.69036      43028.372     -30768.337     -529.04708      74188.538      42.01899       42.01899       42.01899       1.1209097     -187.20313      56.710961      559.11788    
     18100   18100          294.77653      738.26636      25542.648      24743.559      5429.3194      19314.239      2387.5879      6691.9587     -1925.2205      195.55397     -303.8757       43039.224     -30770.989     -528.84047      74217.522      42.024461      42.024461      42.024461      1.1204719      1215.4489     -653.71848      1653.0687    
     18200   18200          299.60804      317.36299      25053.016      24709.495      5518.3083      19191.187      2454.1923      6556.7793     -1952.6046      212.95315     -360.23086      43047.51      -30767.412     -528.82287      74219.992      42.024927      42.024927      42.024927      1.1204346      592.63822      72.12643       287.32433    
     18300   18300          298.76905      574.56841      25361.813      24740.26       5502.8555      19237.405      2470.9382      6453.1453     -1892.3617      199.73388     -254.52469      43036.444     -30775.971     -529.14019      74175.483      42.016525      42.016525      42.016525      1.121107      -90.355621      816.74428      997.31658    
     18400   18400          307.63955      53.643834      24950.759      24892.793      5666.2362      19226.557      2440.4388      6617.2816     -1941.9712      213.23143     -345.58161      43018.02      -30774.862     -529.72948      74092.968      42.000939      42.000939      42.000939      1.1223555      726.02801     -1143.7727      578.67616    
     18500   18500          305.97929      554.90999      25495.395      24897.704      5635.6566      19262.047      2458.5562      6669.4524     -1983.6259      196.96365     -349.76606      43039.165     -30768.699     -531.43759      73854.824      41.955892      41.955892      41.955892      1.1259745      588.44883      249.35413      826.92702    
     18600   18600          298.69911      256.61133      25077.999      24802.309      5501.5672      19300.742      2486.8896      6578.1371     -1917.8486      216.19747     -317.28484      43028.279     -30773.627     -532.79734      73666.338      41.920169      41.920169      41.920169      1.1288555      1479.8262     -496.7421      -213.25008    
     18700   18700          298.90746      588.84347      25345.152      24712.779      5505.4047      19207.374      2480.8695      6565.1593     -1938.4731      200.64551     -337.24098      43011.277     -30774.863     -533.00771      73637.264      41.914654      41.914654      41.914654      1.1293012     -1473.8702      725.40072      2514.9999    
     18800   18800          298.79458      588.75018      25340.115      24706.786      5503.3256      19203.461      2435.2001      6592.2013     -1939.8359      192.32122     -318.51724      43020.489     -30778.398     -532.11922      73760.218      41.937969      41.937969      41.937969      1.1274187     -682.25584      790.49053      1658.0158    
     18900   18900          298.02957      1325.1577      26168.828      24742.989      5489.2354      19253.754      2430.4583      6569.0976     -1944.7044      206.99628     -283.56924      43048.549     -30773.074     -531.99077      73778.026      41.941344      41.941344      41.941344      1.1271466      2617.1137      976.41902      381.94043    
     19000   19000          305.5029       1160.3582      26068.138      24818.604      5626.8823      19191.722      2456.8134      6523.0865     -1914.9459      202.86395     -330.21011      43025.062     -30770.948     -531.55849      73838.026      41.952711      41.952711      41.952711      1.1262307      645.2267       852.09781      1983.75      
     19100   19100          305.14231      745.35275      25749.263      24945.097      5620.2409      19324.856      2464.7176      6672.2329     -1961.1592      214.30808     -326.89993      43032.141     -30770.485     -530.54611      73978.922      41.979378      41.979378      41.979378      1.1240857     -48.331997      1206.8627      1077.5276    
     19200   19200          304.16111      458.92432      25475.492      24979.711      5602.1687      19377.542      2450.0159      6651.3822     -1938.6537      199.16173     -256.24685      43037.712     -30765.829     -529.85545      74075.352      41.99761       41.99761       41.99761       1.1226224      1981.0777     -645.87895      41.574243    
     19300   19300          300.21626     -323.33092      24448.027      24798.503      5529.5107      19268.992      2446.2553      6578.3421     -1904.9021      197.0013      -316.13516      43034.264     -30765.834     -528.0764       74324.907      42.044719      42.044719      42.044719      1.1188531      218.04296     -378.9755      -809.06023    
     19400   19400          296.26735      330.61582      25101.754      24742.629      5456.7781      19285.851      2432.2403      6634.5287     -1902.7606      214.68222     -347.48596      43023.185     -30768.538     -526.96898      74481.1        42.074151      42.074151      42.074151      1.1165068     -191.80995      768.45051      415.20692    
     19500   19500          297.72283     -423.76333      24280.549      24739.948      5483.5858      19256.362      2506.9857      6540.879      -1896.7041      196.44923     -341.37891      43023.516     -30773.385     -528.00751      74334.604      42.046548      42.046548      42.046548      1.1187071     -1012.0814     -326.31221      67.103575    
     19600   19600          300.48261      186.68608      24989.366      24787.584      5534.4165      19253.167      2491.397       6560.7544     -1936.3712      192.26749     -308.93673      43026.867     -30772.811     -529.58592      74113.053      42.004734      42.004734      42.004734      1.1220513      2429.2218     -517.00117     -1352.1624    
     19700   19700          297.99653      1934.8727      26943.603      24855.752      5488.6269      19367.125      2411.0929      6551.3497     -1887.6896      206.97893     -201.921        43055.924     -30768.61      -530.46889      73989.691      41.981415      41.981415      41.981415      1.1239221      1488.9305      2663.3668      1652.321     
     19800   19800          300.64626      1033.7537      26040.662      24924.558      5537.4307      19387.128      2482.764       6649.059      -1898.9434      203.96187     -338.09015      43054.069     -30765.693     -530.17561      74030.621      41.989155      41.989155      41.989155      1.1233007      756.32859      155.25874      2189.6738    
     19900   19900          300.20728      312.63092      25209.728      24871.809      5529.3453      19342.464      2468.0869      6544.1591     -1900.85        214.80324     -250.26458      43036.133     -30769.604     -529.57387      74114.74       42.005052      42.005052      42.005052      1.1220258      1519.5186     -383.73817     -197.88763    
     20000   20000          297.49621      678.24931      25453.506      24719.451      5479.4118      19240.039      2434.3225      6479.0964     -1903.7823      222.89682     -258.72102      43040.224     -30773.997     -528.89293      74210.16       42.023071      42.023071      42.023071      1.1205831      1299.8778      557.97373      176.89644    
     20100   20100          297.19955      1212.1522      26015.731      24703.778      5473.9477      19229.83       2409.9516      6519.4856     -1883.5236      199.17195     -296.31619      43053.931     -30772.87      -528.86608      74213.928      42.023782      42.023782      42.023782      1.1205262     -83.328693      828.76755      2891.0176    
     20200   20200          300.70128      173.23325      24970.998      24783.795      5538.4441      19245.351      2411.9107      6609.5281     -1949.0977      200.98143     -307.16264      43043.156     -30763.965     -529.69273      74098.109      42.00191       42.00191       42.00191       1.1222776     -202.47586     -79.722314      801.89793    
     20300   20300          303.90911      869.0292       25797.51       24860.927      5597.5273      19263.399      2443.5947      6554.3072     -1952.327       219.28357     -273.76368      43041.535     -30769.23      -531.12256      73898.629      41.964185      41.964185      41.964185      1.1253071      1705.417       527.0481       374.62245    
     20400   20400          299.45852      913.30499      25839.692      24856.638      5515.5544      19341.083      2530.7996      6631.4388     -1969.1416      215.41035     -329.83897      43029.655     -30767.24      -531.79631      73805.005      41.946456      41.946456      41.946456      1.1267346      528.60421      359.61746      1851.6933    
     20500   20500          295.99305      610.00742      25327.536      24671.964      5451.7258      19220.238      2447.9382      6509.1555     -1900.9377      201.30175     -270.56702      43003.114     -30769.766     -532.62517      73690.15       41.924686      41.924686      41.924686      1.1284907      246.03549      404.25415      1179.7326    
     20600   20600          297.84138      797.12347      25501.461      24644.883      5485.7692      19159.114      2421.1512      6525.3229     -1902.1295      189.64292     -325.1129       43016.523     -30766.284     -532.67915      73682.684      41.92327       41.92327       41.92327       1.1286051      2129.4421     -660.63771      922.56598    
     20700   20700          297.53321      551.60094      25294.539      24701.218      5480.0932      19221.125      2451.5356      6540.4686     -1896.9867      213.44853     -357.05266      43039.808     -30770.097     -532.15959      73754.621      41.936909      41.936909      41.936909      1.1275043      122.22934      1035.7351      496.83838    
     20800   20800          300.88132      1402.8971      26329.06       24819.412      5541.7602      19277.652      2419.3776      6594.8872     -1913.0413      208.55037     -280.20725      43021.781     -30773.696     -531.9335       73785.97       41.942849      41.942849      41.942849      1.1270252      96.074042      551.05731      3561.5601    
     20900   20900          303.37281      706.48723      25601.332      24839.358      5587.6494      19251.709      2398.3929      6581.5056     -1939.9659      203.58068     -251.03245      43030.466     -30771.238     -530.72734      73953.66       41.974599      41.974599      41.974599      1.1244697      1101.4535      897.91098      120.09722    
     21000   21000          301.53701      281.46213      25104.881      24800.29       5553.8369      19246.453      2379.1832      6571.9836     -1933.692       212.44503     -262.27253      43047.126     -30768.321     -528.94435      74202.946      42.021709      42.021709      42.021709      1.120692       228.2471       536.73195      79.40735     
     21100   21100          297.10545      1220.2714      26071.285      24748.85       5472.2146      19276.636      2422.3131      6592.0191     -1973.3163      206.19399     -225.49328      43026.871     -30771.951     -528.18868      74309.107      42.04174       42.04174       42.04174       1.119091       784.81514      647.83157      2228.1674    
     21200   21200          301.66662      357.31257      25119.375      24731.914      5556.224       19175.69       2422.6497      6458.667      -1883.6316      185.3327      -302.95608      43069.359     -30773.731     -527.87007      74353.959      42.050197      42.050197      42.050197      1.1184159      203.58308      1044.8291     -176.47449    
[...]
    495200   495200         298.95333      122.10517      24926.586      24794.317      5506.2495      19288.068      2463.7103      6565.4542     -1942.6008      218.84718     -269.00511      43031.313     -30779.651     -528.42482      74275.901      42.035477      42.035477      42.035477      1.1195913      541.1         -565.58769      390.80319    
    495300   495300         302.58663      858.03487      25747.316      24819.302      5573.1693      19246.132      2425.3722      6610.0272     -1906.6194      211.07555     -328.6038       43012.098     -30777.217     -529.24577      74160.686      42.013731      42.013731      42.013731      1.1213307      212.59463      1187.3079      1174.202     
    495400   495400         300.84196      1423.5151      26339.608      24802.303      5541.0352      19261.268      2440.6425      6581.4308     -1919.3634      207.52352     -298.98221      43020.704     -30770.688     -530.04062      74049.474      41.992719      41.992719      41.992719      1.1230147      2247.1679      1161.7831      861.59434    
    495500   495500         299.9046      -131.52636      24500.615      24642.531      5523.7704      19118.76       2479.8267      6520.7641     -1938.7372      196.71548     -371.47415      43003.183     -30771.517     -530.50434      73984.746      41.98048       41.98048       41.98048       1.1239972      395.32007     -715.54975     -74.349413    
    495600   495600         294.33172      480.3753       25131.287      24612.887      5421.1269      19191.76       2404.7195      6556.7222     -1953.488       198.24133     -262.28183      43019.819     -30771.972     -530.42387      73995.971      41.982603      41.982603      41.982603      1.1238267      545.40227      976.13834     -80.414721    
    495700   495700         300.82429      290.19367      25016.089      24702.052      5540.7097      19161.343      2449.8398      6582.3457     -1965.9021      210.92493     -362.87865      43022.315     -30775.302     -528.9502       74202.126      42.021555      42.021555      42.021555      1.1207044      1263.6807     -483.54116      90.441469    
    495800   495800         300.90224      943.90448      25797.393      24774.485      5542.1455      19232.34       2428.8047      6571.5501     -1939.6992      188.1689      -289.82608      43040.861     -30767.52      -528.20031      74307.471      42.041431      42.041431      42.041431      1.1191156      1411.0315      358.62783      1062.0541    
    495900   495900         302.97596     -653.38216      24107.848      24815.634      5580.3402      19235.294      2451.4539      6474.2012     -1898.1939      202.4385      -264.46704      43036.546     -30766.686     -528.41173      74277.74       42.035824      42.035824      42.035824      1.1195636     -894.52774     -974.94211     -90.676628    
    496000   496000         300.37361      667.33288      25526.842      24804.532      5532.4088      19272.124      2463.9192      6599.986      -1956.409       211.23677     -318.08807      43037.914     -30766.435     -528.84209      74217.295      42.024418      42.024418      42.024418      1.1204754      339.67832      1622.7295      39.590813    
    496100   496100         300.38282      804.83258      25642.287      24771.996      5532.5785      19239.417      2526.2647      6569.0846     -1965.7092      193.76916     -353.43899      43041.262     -30771.815     -529.35645      74145.18       42.010802      42.010802      42.010802      1.1215652      1041.9207      1080.7037      291.8734     
    496200   496200         296.77658      673.60125      25379.532      24650.863      5466.1573      19184.706      2429.9285      6557.16       -1945.683       196.27308     -334.9251       43052.834     -30770.881     -529.15138      74173.915      42.016229      42.016229      42.016229      1.1211307      961.65398     -208.57511      1267.7249    
    496300   496300         299.46951      806.94437      25443.238      24570.083      5515.7568      19054.326      2377.0694      6449.6932     -1909.4815      197.77959     -308.94337      43024.513     -30776.304     -529.00429      74194.538      42.020122      42.020122      42.020122      1.120819       458.55228     -376.18018      2338.461     
    496400   496400         297.65666      632.50978      25358.893      24674.772      5482.367       19192.404      2489.1195      6536.1356     -1952.4183      206.54123     -315.46054      43008.316     -30779.829     -529.2259       74163.47       42.014256      42.014256      42.014256      1.1212886      201.1788      -475.57624      2171.9268    
    496500   496500         301.80587     -150.89799      24583.667      24746.741      5558.7888      19187.952      2429.7261      6590.8771     -1948.511       190.5528      -309.1865       43010.661     -30776.168     -529.67219      74100.982      42.002453      42.002453      42.002453      1.1222341      493.28215      383.88565     -1329.8618    
    496600   496600         296.36799      241.44978      25033.501      24772.641      5458.6317      19314.009      2433.307       6668.8849     -1911.0653      214.40058     -326.45909      43010.373     -30775.432     -529.81689      74080.743      41.998629      41.998629      41.998629      1.1225407      732.84705     -927.74929      919.25157    
    496700   496700         303.8469       881.45532      25756.212      24804.038      5596.3815      19207.656      2438.771       6541.5749     -1925.1416      199.98466     -313.25621      43038.059     -30772.335     -529.89632      74069.639      41.99653       41.99653       41.99653       1.122709       1749.2574     -454.51863      1349.6272    
    496800   496800         296.88924      840.13883      25631.196      24723.117      5468.2323      19254.885      2499.9602      6570.3438     -1940.1304      205.67243     -327.16764      43020.993     -30774.786     -529.58381      74113.348      42.004789      42.004789      42.004789      1.1220469      965.78223      1353.9262      200.70804    
    496900   496900         298.13272      19.937901      24633.603      24612.056      5491.1353      19120.92       2423.3235      6530.56       -1925.5835      182.93931     -340.96939      43021.219     -30770.569     -529.66352      74102.195      42.002682      42.002682      42.002682      1.1222158     -640.89627      765.86861     -65.158634    
    497000   497000         299.26845      869.2085       25618.459      24680.085      5512.0536      19168.031      2436.0351      6493.2107     -1958.45        211.39515     -268.48309      43027.218     -30772.895     -530.21838      74024.648      41.988025      41.988025      41.988025      1.1233914      796.89881      786.46368      1024.263     
    497100   497100         296.04734      530.36718      25345.062      24772.608      5452.7259      19319.882      2421.8795      6634.4228     -1903.9154      213.04016     -295.98105      43027.189     -30776.752     -530.3263       74009.585      41.985177      41.985177      41.985177      1.12362        1141.6596      221.09142      228.3505     
    497200   497200         305.51939      555.91958      25381.513      24782.764      5627.186       19155.578      2447.6124      6505.683      -1887.0789      196.59304     -379.05729      43043.474     -30771.648     -531.46448      73851.086      41.955184      41.955184      41.955184      1.1260315      1082.8065      385.57341      199.37887    
    497300   497300         300.25723     -157.54787      24597.081      24766.619      5530.2653      19236.354      2372.9394      6611.4082     -1921.7614      211.78983     -318.35944      43048.626     -30768.289     -531.92596      73787.016      41.943047      41.943047      41.943047      1.1270093     -153.88763      474.55049     -793.30647    
    497400   497400         302.35858      282.88298      25015.458      24710.613      5568.9688      19141.644      2402.8236      6511.256      -1917.2315      203.36738     -323.06816      43039.129     -30774.632     -531.17135      73891.841      41.9629        41.9629        41.9629        1.1254105      200.57568     -785.61546      1433.6887    
    497500   497500         294.68597      390.74189      25036.012      24613.808      5427.6514      19186.157      2527.8908      6496.5899     -1919.6749      207.42518     -361.86163      43015.119     -30779.331     -529.7555       74089.328      42.000251      42.000251      42.000251      1.1224106      1246.6023     -213.12862      138.75196    
    497600   497600         297.01075      1485.7617      26225.49       24621.199      5470.4703      19150.729      2393.4524      6459.3352     -1904.2078      203.67373     -241.94359      43018.973     -30778.554     -530.11856      74038.587      41.990661      41.990661      41.990661      1.1231799      2668.9189      449.81603      1338.5502    
    497700   497700         302.47739      582.13548      25401.58       24773.289      5571.1572      19202.132      2421.3119      6632.6922     -1995.2935      194.54305     -291.17738      43013.775     -30773.72      -530.35989      74004.898      41.984291      41.984291      41.984291      1.1236912     -532.54189      1225.6132      1053.3351    
    497800   497800         301.23621      1665.0767      26626.852      24828.814      5548.2966      19280.517      2396.4071      6601.7724     -1908.1523      189.56222     -275.183        43051.365     -30775.254     -530.08126      74043.797      41.991646      41.991646      41.991646      1.1231008      1603.0603      603.50015      2788.6695    
    497900   497900         304.7441      -279.09983      24526.671      24828.663      5612.9064      19215.757      2512.051       6513.5231     -1900.2043      200.59585     -357.29888      43024.582     -30777.492     -529.01852      74192.542      42.019745      42.019745      42.019745      1.1208492      7.8305348     -1604.7937      759.66365    
    498000   498000         304.8682       651.20784      25499.411      24795.204      5615.1922      19180.012      2426.0705      6550.9801     -1936.2525      207.62505     -326.14934      43035.785     -30778.046     -529.33031      74148.841      42.011494      42.011494      42.011494      1.1215098      145.93292      1264.4441      543.2465     
    498100   498100         295.87783      1106.215       25843.802      24648.29       5449.6037      19198.686      2384.3594      6542.3659     -1937.5136      195.06387     -262.49529      43052.5       -30775.594     -529.65424      74103.493      42.002927      42.002927      42.002927      1.1221961      1838.1498     -707.48476      2187.9798    
    498200   498200         291.13729     -1008.6293      23548.326      24639.335      5362.2904      19277.044      2503.7097      6599.635      -1910.1026      203.20253     -374.60825      43025.29      -30770.083     -529.18845      74168.719      42.015247      42.015247      42.015247      1.1212092     -2189.8542     -1568.5241      732.49029    
    498300   498300         300.45629      2159.6952      27064.048      24733.63       5533.9317      19199.699      2365.849       6544.3883     -1929.2042      211.15599     -258.8645       43039.677     -30773.303     -530.47593      73988.709      41.981229      41.981229      41.981229      1.123937       2592.6741      2462.3513      1424.0603    
    498400   498400         300.32555      356.64263      25164.475      24779.773      5531.5237      19248.25       2455.6004      6609.5411     -1932.9424      211.43294     -343.72628      43020.043     -30771.699     -530.66007      73963.034      41.976373      41.976373      41.976373      1.1243272      637.62331     -28.54364       460.84822    
    498500   498500         301.69558     -648.92614      24079.711      24779.766      5556.7576      19223.009      2469.6214      6651.8295     -1903.8266      204.22236     -428.19743      43004.895     -30775.536     -530.60369      73970.894      41.97786       41.97786       41.97786       1.1242077     -375.94968     -1322.4031     -248.42567    
    498600   498600         299.34703      35.761402      24796.494      24757.867      5513.5008      19244.366      2430.7348      6555.3167     -1877.3164      187.46686     -302.70392      43022.259     -30771.391     -529.94152      74063.321      41.995336      41.995336      41.995336      1.1228048      906.10317     -437.00328     -361.81568    
    498700   498700         297.39031      439.08811      25197.286      24721.672      5477.4613      19244.211      2498.3456      6561.2025     -1900.3386      215.61548     -361.84232      43011.264     -30780.036     -528.45088      74272.238      42.034786      42.034786      42.034786      1.1196465     -723.72508      792.48896      1248.5004    
    498800   498800         300.63708      63.339598      24762.785      24694.219      5537.2617      19156.957      2428.598       6514.0718     -1896.9095      196.03949     -323.01253      43016.474     -30778.305     -528.77324      74226.959      42.026242      42.026242      42.026242      1.1203295      296.91435     -115.48929      8.5937286    
    498900   498900         302.56945      836.7508       25673.628      24769.811      5572.8529      19196.958      2382.6952      6574.9769     -1960.61        212.70091     -261.18856      43027.526     -30779.142     -529.93533      74064.187      41.9955        41.9955        41.9955        1.1227917      1875.2241      187.30586      447.72239    
    499000   499000         301.8611       215.35413      25084.346      24851.7        5559.8061      19291.894      2476.3119      6572.7951     -1898.0937      205.70287     -326.16475      43037.846     -30776.503     -529.8652       74073.99       41.997352      41.997352      41.997352      1.1226431      131.9863       1140.1566     -626.08053    
    499100   499100         304.34488     -349.78476      24470.582      24849.084      5605.5534      19243.531      2439.7067      6589.5667     -1904.3587      220.36187     -375.21423      43046.208     -30772.74      -528.98008      74197.934      42.020763      42.020763      42.020763      1.1207677     -757.5366      -469.8423       178.02462    
    499200   499200         298.0469       119.89249      24831.902      24701.915      5489.5546      19212.361      2380.924       6624.1219     -1932.1361      198.68348     -304.97445      43019.626     -30773.885     -527.95897      74341.438      42.047836      42.047836      42.047836      1.1186043     -532.30481      443.55186      448.43041    
    499300   499300         297.2572       561.71736      25253.726      24644.352      5475.0096      19169.343      2358.1334      6537.6495     -1920.8412      202.39603     -268.61175      43033.181     -30772.564     -527.64376      74385.85       42.056208      42.056208      42.056208      1.1179364     -25.950308      734.32471      976.77769    
    499400   499400         298.46554      280.34015      25036.747      24732.678      5497.2652      19235.412      2514.0535      6520.8228     -1956.4903      205.25649     -308.11344      43029.295     -30769.412     -527.73949      74372.357      42.053665      42.053665      42.053665      1.1181392     -46.735014     -237.92206      1125.6775    
    499500   499500         300.78069      1573.029       26496.368      24791.046      5539.9066      19251.14       2420.8941      6527.7864     -1931.6481      205.54579     -226.99533      43027.145     -30771.588     -528.00424      74335.065      42.046635      42.046635      42.046635      1.1187002      2317.8446      1274.3004      1126.942     
    499600   499600         301.67953      615.3424       25465.63       24798.445      5556.4619      19241.983      2449.9457      6571.9669     -1922.9812      202.14458     -301.34096      43019.214     -30776.966     -527.93168      74345.281      42.048561      42.048561      42.048561      1.1185465      311.41843      485.93822      1048.6705    
    499700   499700         303.97679      302.54519      25115.151      24787.505      5598.7738      19188.731      2486.3355      6493.0884     -1896.6019      196.77702     -344.95129      43024.064     -30769.981     -528.55757      74257.245      42.031957      42.031957      42.031957      1.1198726     -489.93695     -278.97807      1676.5506    
    499800   499800         300.81836      739.51532      25474.997      24676.211      5540.6005      19135.61       2391.4128      6494.9275     -1927.7795      194.80573     -273.39081      43026.475     -30770.841     -529.93633      74064.047      41.995473      41.995473      41.995473      1.1227938      353.28059      527.77102      1337.4943    
    499900   499900         297.08269     -78.905408      24530.87       24615.903      5471.7954      19144.107      2450.9928      6550.4058     -1955.5609      200.385       -333.44956      43006.138     -30774.804     -531.16094      73893.29       41.963174      41.963174      41.963174      1.1253884     -1113.3774     -561.43935      1438.1005    
    500000   500000         295.10424      20.221173      24727.933      24706.18       5435.3554      19270.824      2388.9472      6669.1155     -1910.7452      190.41853     -313.98465      43022.908     -30775.835     -532.10426      73762.291      41.938362      41.938362      41.938362      1.127387      -232.38883      598.70305     -305.6507     
Loop time of 1324.51 on 1 procs for 500000 steps with 7520 atoms

Performance: 32.616 ns/day, 0.736 hours/ns, 377.497 timesteps/s, 2.839 Matom-step/s
100.0% CPU use with 1 MPI tasks x 1 OpenMP threads

MPI task timing breakdown:
Section |  min time  |  avg time  |  max time  |%varavg| %total
---------------------------------------------------------------
Pair    | 149.27     | 149.27     | 149.27     |   0.0 | 11.27
Bond    | 136.7      | 136.7      | 136.7      |   0.0 | 10.32
Kspace  | 559.22     | 559.22     | 559.22     |   0.0 | 42.22
Neigh   | 123.31     | 123.31     | 123.31     |   0.0 |  9.31
Comm    | 15.161     | 15.161     | 15.161     |   0.0 |  1.14
Output  | 5.6803     | 5.6803     | 5.6803     |   0.0 |  0.43
Modify  | 296.5      | 296.5      | 296.5      |   0.0 | 22.39
Other   |            | 38.66      |            |       |  2.92

Nlocal:           7520 ave        7520 max        7520 min
Histogram: 1 0 0 0 0 0 0 0 0 0
Nghost:          20620 ave       20620 max       20620 min
Histogram: 1 0 0 0 0 0 0 0 0 0
Neighs:              0 ave           0 max           0 min
Histogram: 1 0 0 0 0 0 0 0 0 0
FullNghs:  4.88258e+06 ave 4.88258e+06 max 4.88258e+06 min
Histogram: 1 0 0 0 0 0 0 0 0 0

Total # of neighbors = 4882576
Ave neighs/atom = 649.27872
Ave special neighs/atom = 5.7207447
Neighbor list builds = 17678
Dangerous builds = 0

# --- Cleanup ---
unfix npt_fix
unfix shake_fix
undump dump_npt

# --- Write Output ---
write_dump all custom /home/alexzhao/PolyJarvis/data/PMMA4/lammps/mechanical/bm_series/bm_P500/bm_P500_last.dump id type mol x y z xu yu zu vx vy vz modify sort id
write_data /home/alexzhao/PolyJarvis/data/PMMA4/lammps/mechanical/bm_series/bm_P500/bm_P500_out.data
System init for write_data ...
PPPM Kokkos initialization ...
  using 12-bit tables for long-range coulomb
  G vector (1/distance) = 0.33309304
  grid = 45 45 45
  stencil order = 5
  estimated absolute RMS force accuracy = 0.00028811717
  estimated relative force accuracy = 8.6765629e-07
  using double precision cuFFT
  3d grid and FFT values/proc = 140608 91125
Generated 15 of 15 mixed pair_coeff terms from sixthpower/sixthpower mixing rule

print "STAGE COMPLETE: NPT T=300.0->300.0K P=500.0->500.0atm steps=500000"
STAGE COMPLETE: NPT T=300.0->300.0K P=500.0->500.0atm steps=500000
quit
