LAMMPS (22 Jul 2025 - Update 3)
KOKKOS mode with Kokkos version 4.6.2 is enabled
  will use up to 1 GPU(s) per node
  using 1 OpenMP thread(s) per MPI task
Reading data file ...
  orthogonal box = (4.1698476 4.1698476 4.1698476) to (45.151285 45.151285 45.151285)
  1 by 1 by 1 MPI processor grid
  reading atoms ...
  7020 atoms
  reading velocities ...
  7020 velocities
  scanning bonds ...
  4 = max bonds/atom
  scanning angles ...
  10 = max angles/atom
  scanning dihedrals ...
  16 = max dihedrals/atom
  scanning impropers ...
  7 = max impropers/atom
  orthogonal box = (4.1698476 4.1698476 4.1698476) to (45.151285 45.151285 45.151285)
  1 by 1 by 1 MPI processor grid
  reading bonds ...
  7010 bonds
  reading angles ...
  13000 angles
  reading dihedrals ...
  14970 dihedrals
  reading impropers ...
  8000 impropers
Finding 1-2 1-3 1-4 neighbors ...
  special bond factors lj:    0        0        1       
  special bond factors coul:  0        0        1       
     4 = max # of 1-2 neighbors
     6 = max # of 1-3 neighbors
     8 = max # of special neighbors
  special bonds CPU = 0.003 seconds
  read_data CPU = 0.186 seconds
Finding SHAKE clusters ...
      10 = # of size 2 clusters
    1990 = # of size 3 clusters
      10 = # of size 4 clusters
       0 = # of frozen angles
  find clusters CPU = 0.002 seconds
PPPM Kokkos initialization ...
  using 12-bit tables for long-range coulomb
  G vector (1/distance) = 0.30317895
  grid = 30 30 30
  stencil order = 5
  estimated absolute RMS force accuracy = 0.00030405438
  estimated relative force accuracy = 9.1565074e-07
  using double precision cuFFT
  3d grid and FFT values/proc = 50653 27000
Generated 10 of 10 mixed pair_coeff terms from sixthpower/sixthpower mixing rule
Neighbor list info ...
  update: every = 1 steps, delay = 0 steps, check = yes
  max neighbors/atom: 4000, page size: 100000
  master list distance cutoff = 11.5
  ghost atom cutoff = 11.5
  binsize = 11.5, bins = 4 4 4
  1 neighbor lists, perpetual/occasional/extra = 1 0 0
  (1) pair lj/class2/coul/long/kk, perpetual
      attributes: full, newton off, kokkos_device
      pair build: full/bin/kk/device
      stencil: full/bin/3d
      bin: kk/device
Setting up Verlet run ...
  Unit style    : real
  Current step  : 0
  Time step     : 1
Per MPI rank memory allocation (min/avg/max) = 34.18 | 34.18 | 34.18 Mbytes
   Step          Time           Temp          Press         Enthalpy        TotEng         KinEng         PotEng         E_bond        E_angle        E_dihed        E_impro         E_vdwl         E_coul         E_long         E_tail         Volume           Lx             Ly             Lz          Density          Pxx            Pyy            Pzz      
         0   0              377.5456       2028.1358      4908.1704      2872.3734      6391.0996     -3518.7262      1031.7248      4946.4439     -8521.5255     -53.124684     -2952.5529      6925.9428     -4895.6347     -466.42323      68827.433      40.981438      40.981438      40.981438      1.0633283     -6.1687805      3665.1765      2425.3995    
       100   100            300.69747     -489.22722      1187.8256      1679.8671      5090.2129     -3410.3458      1067.1345      4955.8585     -8465.6491     -53.09363      -2954.1863      6936.9269     -4897.3367     -465.50728      68962.861      41.008299      41.008299      41.008299      1.0612402      116.67833     -1525.6769     -58.683092    
       200   200            296.00502      794.58504      2387.7515      1587.3996      5010.7789     -3423.3793      1074.9689      4949.597      -8500.1036     -51.117467     -2936.6668      6937.0402     -4897.0975     -464.81172      69066.059      41.028744      41.028744      41.028744      1.0596545      637.60449      2563.3481     -817.19749    
       300   300            299.42766     -297.14915      1260.8474      1560.0034      5068.7176     -3508.7142      1033.5895      4975.5789     -8484.3688     -53.025517     -3026.6004      6938.7902     -4892.6781     -465.04446      69031.494      41.021899      41.021899      41.021899      1.0601851      417.64679      341.37383     -1650.4681    
       400   400            299.24953      856.66367      2405.4719      1545.961       5065.7021     -3519.7411      995.73792      5002.9395     -8510.7211     -52.504622     -2988.7551      6928.5575     -4894.9953     -466.63419      68796.317      40.975261      40.975261      40.975261      1.0638093     -728.30174      2095.7932      1202.4995    
       500   500            299.83956     -526.49574      1035.03        1562.7747      5075.6901     -3512.9154      1004.2705      5003.5279     -8438.256      -54.301734     -3058.9276      6927.1362     -4896.3646     -467.07715      68731.072      40.962304      40.962304      40.962304      1.0648191     -1.4171912     -1619.0244      40.954374    
       600   600            302.55359      708.94643      2287.7872      1578.478       5121.6333     -3543.1553      994.85048      4929.4748     -8452.9448     -52.992468     -3008.8538      6940.0624     -4892.7518     -467.94569      68603.503      40.936945      40.936945      40.936945      1.0667992      386.17548      886.90191      853.76191    
       700   700            295.53402      857.99659      2432.4222      1575.3297      5002.8058     -3427.4761      1029.3449      4946.3363     -8447.8441     -52.308639     -2948.5256      6937.1453     -4891.6243     -468.679        68496.163      40.915583      40.915583      40.915583      1.0684709     -271.13912      1014.6897      1830.4392    
       800   800            296.71143     -942.42374      578.70036      1521.2415      5022.7371     -3501.4955      1048.7232      4932.808      -8435.5351     -53.655704     -3047.657       6947.1819     -4893.3608     -468.12682      68576.958      40.931665      40.931665      40.931665      1.0672121     -472.75959     -1112.2543     -1242.2573    
       900   900            294.83785     -615.98153      856.45549      1473.0637      4991.021      -3517.9574      1000.6264      4955.9521     -8460.1596     -52.111782     -3011.7652      6944.9338     -4895.4332     -467.70935      68638.169      40.943839      40.943839      40.943839      1.0662604     -258.16411      98.746785     -1688.5273    
      1000   1000           300.9072       282.18747      1823.3202      1540.9001      5093.7632     -3552.8631      985.23856      4952.9634     -8474.8906     -51.844556     -3024.23        6952.0204     -4892.1202     -467.79953      68624.938      40.941208      40.941208      40.941208      1.066466       524.23435      642.76314     -320.43508    
      1100   1100           303.86809      443.0092       2098.8766      1655.1239      5143.8851     -3488.7613      1002.195       5015.9724     -8490.7286     -54.379191     -3005.0931      6937.4856     -4894.2134     -467.40064      68683.504      40.952852      40.952852      40.952852      1.0655566      453.22895     -90.414444      966.21311    
      1200   1200           302.01956      221.19119      1856.1519      1634.1145      5112.5932     -3478.4787      983.18765      5042.6779     -8522.9926     -52.981444     -2975.7914      6939.3864     -4891.9653     -466.40099      68830.715      40.982089      40.982089      40.982089      1.0632776      255.52212      486.86586     -78.814396    
      1300   1300           300.43482      54.060707      1603.7207      1549.3635      5085.7668     -3536.4033      981.12205      4946.5013     -8446.5464     -52.755479     -3013.795       6946.6301     -4897.5599     -465.63081      68944.565      41.004672      41.004672      41.004672      1.0615218     -1343.9314     -318.28779      1824.4013    
      1400   1400           300.78187      325.19103      1869.298       1542.0755      5091.6416     -3549.5661      1025.5765      4863.7634     -8421.9213     -47.627634     -3031.72        6955.5155     -4893.1526     -465.27853      68996.765      41.015018      41.015018      41.015018      1.0607187      375.44582      543.03718      57.09009     
      1500   1500           303.18017      118.65187      1701.6201      1582.3951      5132.24       -3549.8449      1023.482       4903.9746     -8491.0655     -50.71778      -2982.5323      6943.7002     -4896.6862     -465.93468      68899.602      40.995756      40.995756      40.995756      1.0622146      149.47801      88.371281      118.10633    
      1600   1600           302.79313     -116.89108      1496.0193      1613.4928      5125.6883     -3512.1955      1048.5871      5007.3516     -8545.1771     -48.962273     -3024.404       6943.7437     -4893.3344     -465.86388      68910.072      40.997833      40.997833      40.997833      1.0620532     -1396.9332      1567.7804     -521.52044    
      1700   1700           295.57545     -122.7174       1453.8506      1577.4885      5003.5072     -3426.0186      1033.4865      4952.9707     -8456.6218     -51.344554     -2965.2474      6953.9245     -4893.1866     -464.69937      69082.756      41.03205       41.03205       41.03205       1.0593984      524.3669      -3008.6564      2116.1373    
      1800   1800           296.4663       895.47816      2399.4186      1496.0371      5018.5875     -3522.5504      1027.7653      4961.5826     -8482.611      -54.950668     -3022.8026      6944.6808     -4896.2148     -464.08919      69173.587      41.050026      41.050026      41.050026      1.0580073      1032.4103      984.19485      669.82929    
      1900   1900           299.22288     -913.53794      577.09082      1497.859       5065.251      -3567.392       995.73689      5019.984      -8544.3553     -52.264961     -3030.9911      6937.325      -4892.8267     -464.50879      69111.1        41.037661      41.037661      41.037661      1.0589639     -1297.7443     -1061.8959     -380.97366    
      2000   2000           302.3396      -84.064792      1532.8149      1617.4362      5118.0108     -3500.5746      1022.9133      4891.8861     -8416.1687     -49.154708     -2993.9845      6937.4151     -4893.4813     -465.10623      69022.325      41.020082      41.020082      41.020082      1.0603259      938.71013     -926.33439     -264.57011    
      2100   2100           302.21557      382.32245      2078.3632      1693.7146      5115.9113     -3422.1967      1018.6712      5011.6696     -8425.8745     -52.846907     -3014.3829      6934.7656     -4894.1988     -465.35383      68985.601      41.012806      41.012806      41.012806      1.0608904      493.72182     -215.49684      868.74237    
      2200   2200           300.39903      213.8463       1884.7834      1670.2817      5085.1609     -3414.8791      1089.7065      4953.9492     -8467.4185     -53.27362      -2986.3884      6942.1384     -4893.5927     -466.75475      68778.547      40.971733      40.971733      40.971733      1.0640841     -485.411        640.21099      486.73893    
      2300   2300           300.93734      544.84501      2115.4996      1570.1895      5094.2734     -3524.0838      1008.2421      4917.0057     -8413.0457     -51.866333     -3033.5556      6945.2822     -4896.1461     -467.78587      68626.942      40.941607      40.941607      40.941607      1.0664348      642.37909      46.527472      945.62847    
      2400   2400           298.97906     -385.87078      1134.2719      1519.8841      5061.1236     -3541.2395      1038.3374      4863.1558     -8426.4733     -49.933276     -3013.432       6944.4597     -4897.3539     -468.49915      68522.459      40.920819      40.920819      40.920819      1.0680609     -442.33129      886.04083     -1601.3219    
      2500   2500           298.23352      375.99955      1895.8559      1519.72        5048.5031     -3528.783       1016.9253      4931.702      -8506.2731     -53.446435     -2980.7147      6954.679      -4891.6551     -468.01547      68593.275      40.934911      40.934911      40.934911      1.0669582     -557.51221      1394.7215      290.78935    
      2600   2600           300.82483     -482.80682      1065.6014      1551.0595      5092.3688     -3541.3093      1021.9457      4971.3684     -8488.6902     -51.275487     -3038.0925      6940.0098     -4896.575      -465.62824      68944.946      41.004748      41.004748      41.004748      1.0615159     -630.46187     -724.67307     -93.285511    
      2700   2700           302.29694     -182.33539      1427.5386      1611.7067      5117.2887     -3505.582       988.61461      4953.8755     -8493.7952     -55.084491     -2956.8078      6948.3569     -4890.7415     -463.52616      69257.609      41.066639      41.066639      41.066639      1.0567237     -782.50336      1336.5528     -1101.0556    
      2800   2800           301.2013      -652.29182      1099.377       1760.2062      5098.7417     -3338.5355      1098.9817      4926.0041     -8430.555      -53.109519     -2935.3817      6946.6247     -4891.0997     -462.13659      69465.855      41.107758      41.107758      41.107758      1.0535559     -1418.2843     -746.65925      208.06813    
      2900   2900           306.01074      323.61979      2133.3686      1805.0579      5180.156      -3375.0982      1018.6581      4989.7134     -8446.5994     -52.938223     -2939.0004      6948.6821     -4893.6138     -461.49561      69562.338      41.126782      41.126782      41.126782      1.0520946     -149.15352      624.71385      495.29905    
      3000   3000           302.8065      -906.10925      813.10233      1732.2833      5125.9145     -3393.6312      1041.5269      4944.3771     -8436.5324     -52.547984     -2945.285       6950.537      -4895.7069     -461.52705      69557.599      41.125848      41.125848      41.125848      1.0521663     -1175.0929     -536.81466     -1006.4202    
      3100   3100           298.26709     -450.68929      1193.0387      1649.1658      5049.0713     -3399.9055      1062.2851      4934.7084     -8464.9287     -52.234115     -2938.6581      6955.7264     -4896.8045     -462.60358      69395.731      41.093921      41.093921      41.093921      1.0546205      576.5543      -1327.855      -600.76716    
      3200   3200           302.83776     -222.40426      1357.1682      1581.3654      5126.4437     -3545.0783      1025.7157      4885.9285     -8475.2254     -50.159147     -2979.9321      6945.7859     -4897.1917     -464.4409       69121.203      41.039661      41.039661      41.039661      1.0588091      272.09453     -1178.0398      238.73253    
      3300   3300           298.11795      62.529025      1577.246       1514.4526      5046.5467     -3532.0941      1062.3653      4907.0182     -8499.8684     -50.720943     -3001.3438      6945.9084     -4895.4528     -466.21445      68858.255      40.987554      40.987554      40.987554      1.0628524      885.66732      1384.8498     -2082.93      
      3400   3400           297.00608      247.13514      1741.2745      1494.187       5027.725      -3533.538       991.10688      4924.5341     -8418.584      -53.907996     -3024.1665      6941.9586     -4894.4791     -468.27544      68555.194      40.927334      40.927334      40.927334      1.0675509      842.44461     -794.88803      693.84883    
      3500   3500           299.62915      819.94371      2429.8889      1613.3815      5072.1284     -3458.7468      1034.2381      4989.7443     -8461.8734     -54.269513     -3004.5846      6933.8419     -4895.8436     -470.15556      68281.046      40.872706      40.872706      40.872706      1.0718371      248.92507      1508.5902      702.31585    
      3600   3600           302.40146      288.85641      1994.4525      1706.7941      5119.0581     -3412.2641      1041.245       4991.261      -8445.5752     -52.992921     -2989.0176      6937.0099     -4894.1943     -470.1349       68284.047      40.873305      40.873305      40.873305      1.07179        1989.5779     -1355.1863      232.17764    
      3700   3700           302.25847      111.72851      1739.4354      1627.9239      5116.6375     -3488.7136      1040.7906      4992.8531     -8477.7057     -49.865867     -3041.1667      6942.1805     -4895.7995     -469.09644      68435.21       40.903443      40.903443      40.903443      1.0694226      1444.469      -398.93092     -710.35252    
      3800   3800           297.84151      367.69914      1885.7934      1517.8685      5041.8671     -3523.9987      1024.2745      4914.1814     -8461.6791     -53.265908     -2993.8435      6940.6657     -4894.3318     -467.89784      68610.519      40.938341      40.938341      40.938341      1.0666901      854.46711      537.21106     -288.58076    
      3900   3900           299.16238      221.84187      1717.5375      1494.4622      5064.2268     -3569.7645      977.35473      4912.2107     -8461.4461     -52.390592     -2996.3637      6947.6034     -4896.733      -465.59656      68949.637      41.005678      41.005678      41.005678      1.0614437      1270.9829     -1220.2628      614.8055     
      4000   4000           300.29799     -1908.4737     -392.21368      1534.3727      5083.4505     -3549.0779      1046.8291      4892.9943     -8451.0395     -54.251795     -3027.859       6938.9429     -4894.6939     -463.78356      69219.172      41.059041      41.059041      41.059041      1.0573105     -2596.9847     -281.04967     -2847.3869    
      4100   4100           301.78799     -296.34004      1355.7515      1654.7045      5108.6732     -3453.9688      1016.7207      4931.6491     -8423.5929     -54.965006     -2967.0969      6938.5282     -4895.2119     -464.09316      69172.995      41.049908      41.049908      41.049908      1.0580164      377.05093     -463.42407     -802.64697    
      4200   4200           299.76313      483.44476      2209.9051      1722.5903      5074.3964     -3351.8061      1039.014       5082.0371     -8478.9727     -53.210043     -2986.6673      6941.2474     -4895.2545     -464.46701      69117.317      41.038892      41.038892      41.038892      1.0588686     -455.55917      670.51381      1235.3796    
      4300   4300           301.07568     -235.46872      1425.674       1662.7358      5096.6153     -3433.8794      1054.9883      4965.57       -8478.0826     -52.122676     -2967.1876      6937.8763     -4894.9211     -465.03893      69032.314      41.022061      41.022061      41.022061      1.0601725     -663.93724     -265.04334      222.57443    
      4400   4400           296.84034     -497.21952      992.13272      1492.4385      5024.9194     -3532.4809      1034.9494      4922.9784     -8435.1574     -50.360079     -3040.9976      6929.8989     -4893.7926     -465.29705      68994.02       41.014474      41.014474      41.014474      1.0607609     -612.47189     -510.01694     -369.16973    
      4500   4500           296.52276      678.64167      2186.4098      1505.7129      5019.5433     -3513.8304      1014.5268      4885.1208     -8446.3372     -53.442807     -2955.0767      6937.6948     -4896.316      -466.77155      68776.072      40.971241      40.971241      40.971241      1.0641224     -69.96785       1066.4726      1039.4203    
      4600   4600           305.56935     -579.21126      1015.5793      1594.7503      5172.6841     -3577.9338      994.1467       4853.9966     -8400.4129     -50.25384      -3027.7678      6944.7805     -4892.423      -468.21768      68563.651      40.929017      40.929017      40.929017      1.0674192     -889.77284     -997.86275      150.00181    
      4700   4700           304.14525      2088.9142      3732.8485      1649.8356      5148.577      -3498.7414      1029.1948      5008.5773     -8514.2351     -50.8996       -3016.8076      6939.6864     -4894.2575     -469.51154      68374.706      40.891385      40.891385      40.891385      1.0703689      2013.7052      2535.4523      1717.5851    
      4800   4800           300.9825      -177.4925       1445.8786      1623.1206      5095.0379     -3471.9173      1054.5295      4976.152      -8459.1011     -51.603055     -3032.5836      6937.7508     -4897.0617     -468.84663      68471.674      40.910707      40.910707      40.910707      1.0688531     -244.18885      305.67613     -593.96478    
      4900   4900           296.55577      186.29353      1661.6008      1475.4621      5020.1021     -3544.6401      1016.2049      4913.5516     -8459.7154     -51.814631     -3017.8374      6946.1512     -4891.1804     -468.57441      68511.453      40.918628      40.918628      40.918628      1.0682325     -479.94649      640.41674      398.41036    
      5000   5000           298.76967     -32.405544      1431.476       1463.9271      5057.5791     -3593.652       1023.2506      4886.3906     -8435.5385     -48.881885     -3064.8785      6939.4773     -4893.4716     -467.52701      68664.939      40.949161      40.949161      40.949161      1.0658447      44.828924      285.56769     -427.61325    
      5100   5100           299.86429     -392.73883      1139.0037      1532.7645      5076.1088     -3543.3443      1064.3711      4919.7121     -8526.3153     -51.18129      -3002.2379      6943.0554     -4890.7484     -466.97001      68746.842      40.965436      40.965436      40.965436      1.0645749      480.3784      -274.77072     -1383.8242    
      5200   5200           299.42029     -242.50554      1335.9084      1579.5564      5068.5927     -3489.0363      1040.7453      4917.5424     -8451.4701     -49.015319     -2996.1286      6942.9662     -4893.6762     -465.98995      68891.429      40.994135      40.994135      40.994135      1.0623406     -1104.8476     -251.04107      628.37209    
      5300   5300           304.11225     -1007.6289      591.60801      1605.045       5148.0184     -3542.9734      1028.6443      4958.1402     -8446.455      -50.542176     -3070.9374      6935.7875     -4897.6108     -465.50194      68963.651      41.008456      41.008456      41.008456      1.061228      -1204.4725     -635.89841     -1182.5159    
      5400   5400           304.23311      136.33507      1817.4377      1680.5004      5150.0642     -3469.5639      1079.084       4909.6375     -8466.8435     -49.73509      -2978.0707      6931.9019     -4895.5379     -466.12605      68871.314      40.990145      40.990145      40.990145      1.0626508      1091.5386     -323.8708      -358.66263    
      5500   5500           302.37059     -434.4688       1317.1968      1753.4461      5118.5354     -3365.0894      1091.9049      4935.0939     -8422.1145     -54.180631     -2957.4922      6936.6728     -4894.9735     -466.2744       68849.403      40.985798      40.985798      40.985798      1.062989      -577.15838      24.297596     -750.54561    
      5600   5600           302.85843     -389.74888      1274.7603      1666.0361      5126.7936     -3460.7575      1077.049       4963.4953     -8479.5401     -51.476802     -3013.468       6937.9428     -4894.7597     -466.35805      68837.053      40.983347      40.983347      40.983347      1.0631797     -135.95263      352.09707     -1385.3911    
      5700   5700           299.28688     -229.08899      1326.5452      1556.3222      5066.3344     -3510.0122      1019.5964      4942.3775     -8474.0985     -50.986509     -3009.4324      6952.1093     -4889.578      -466.78324      68774.349      40.970899      40.970899      40.970899      1.0641491     -807.94528      322.30495     -201.62666    
      5800   5800           298.96567     -745.9335       766.37069      1513.3655      5060.897      -3547.5315      1013.9589      4974.4539     -8494.7326     -52.962084     -3033.9131      6936.4348     -4890.7712     -467.51994      68665.978      40.949368      40.949368      40.949368      1.0658286     -828.50679     -416.79836     -992.49533    
      5900   5900           298.82336      886.65247      2398.8966      1512.7984      5058.488      -3545.6896      1056.8989      4857.8001     -8453.7776     -48.400642     -3016.6291      6949.084      -4890.6653     -468.47804      68525.547      40.921433      40.921433      40.921433      1.0680128     -53.01801       1466.7396      1246.2359    
      6000   6000           301.30922      38.235601      1572.7808      1534.5652      5100.5685     -3566.0033      1008.0476      4903.855      -8475.9253     -52.42606      -2990.7337      6934.0865     -4892.9074     -468.42985      68532.596      40.922836      40.922836      40.922836      1.0679029      136.9963      -400.32564      378.03614    
      6100   6100           305.25106     -1303.2832      334.43884      1640.3606      5167.2961     -3526.9355      999.36477      4906.8988     -8432.0384     -50.432362     -2994.1513      6935.1704     -4891.7474     -467.23922      68707.233      40.957567      40.957567      40.957567      1.0651886     -2648.3545     -995.53867     -265.95651    
      6200   6200           305.57209      458.70518      2164.1189      1703.8299      5172.7305     -3468.9006      1047.7327      4909.5638     -8438.0853     -52.807069     -2988.1679      6946.9135     -4894.0503     -466.57415      68805.17       40.977019      40.977019      40.977019      1.0636724      2068.9198     -235.71163     -457.09265    
      6300   6300           305.79099     -535.1008       1065.3419      1603.6688      5176.436      -3572.7672      989.35977      4957.6862     -8507.9584     -49.476963     -3013.4122      6944.3081     -4893.2738     -465.37936      68981.817      41.012056      41.012056      41.012056      1.0609486     -1198.2693      27.512223     -434.54531    
      6400   6400           301.82157      546.72252      2081.6138      1529.9313      5109.2417     -3579.3104      992.393        4934.9463     -8515.5571     -53.826851     -2979.4366      6933.5265     -4891.3556     -463.97591      69190.476      41.053366      41.053366      41.053366      1.057749       1027.7322      1078.7737     -466.33835    
      6500   6500           300.78401     -211.07356      1327.3138      1540.7976      5091.6779     -3550.8803      1080.6288      4832.7081     -8500.0638     -51.296363     -2965.78        6944.2011     -4891.2781     -462.89938      69351.386      41.085166      41.085166      41.085166      1.0552948     -149.03726      56.659756     -540.84319    
      6600   6600           298.83194      13.038165      1606.9897      1593.7985      5058.6331     -3464.8346      1032.3866      4993.323      -8483.2998     -49.678842     -3004.6214      6942.5735     -4895.5176     -462.7503       69373.728      41.089578      41.089578      41.089578      1.054955      -1086.273       703.11728      422.27026    
      6700   6700           304.49668     -4.9599448      1681.0178      1686.0211      5154.5259     -3468.5049      1033.2554      4892.8833     -8450.9931     -52.795619     -2952.0568      6953.3415     -4892.1396     -464.13253      69167.127      41.048748      41.048748      41.048748      1.0581061     -255.68429      469.49785     -228.69339    
      6800   6800           308.86567      652.31753      2429.8945      1773.1684      5228.4844     -3455.316       1031.5269      4967.3286     -8494.2603     -54.974415     -2958.6308      6945.8471     -4892.1531     -465.04228      69031.817      41.021963      41.021963      41.021963      1.0601801     -1172.1808      992.84183      2136.2915    
      6900   6900           305.38898      227.05047      1942.394       1713.9759      5169.6308     -3455.6548      1018.4872      4916.3631     -8432.0668     -49.926861     -2968.7092      6948.3427     -4888.1449     -465.38202      68981.422      41.011978      41.011978      41.011978      1.0609546      847.60071      1223.0738     -1389.5231    
      7000   7000           302.53042      699.67488      2280.003       1577.1912      5121.2411     -3544.05        1041.3745      4941.513      -8496.7401     -51.247721     -3038.1007      6950.2788     -4891.1278     -466.09545      68875.836      40.991042      40.991042      40.991042      1.0625811      708.03837      357.07329      1033.913     
      7100   7100           303.30225     -1066.4753      438.27024      1508.7009      5134.3067     -3625.6057      1029.9524      4844.259      -8476.2789     -50.45351      -3012.2253      6930.4844     -4891.3437     -466.45516      68822.722      40.980503      40.980503      40.980503      1.0634011     -1765.2206     -417.49659     -1016.7089    
      7200   7200           296.60161      761.52806      2241.5716      1477.2133      5020.878      -3543.6647      1027.0953      4959.9232     -8512.0416     -53.114205     -3006.6059      6933.9612     -4892.8826     -466.45157      68823.252      40.980608      40.980608      40.980608      1.0633929      1857.9008      540.07189     -113.38848    
      7300   7300           298.98684     -1705.0989     -143.38848      1569.1845      5061.2553     -3492.0709      1042.5567      4901.1552     -8405.684      -48.819368     -3029.0679      6943.7937     -4896.0051     -466.14188      68868.976      40.989681      40.989681      40.989681      1.0626869     -1389.1509     -802.96777     -2923.1779    
      7400   7400           302.88375     -559.55748      1085.0105      1645.7131      5127.2223     -3481.5091      1055.4565      4985.7677     -8465.502      -52.847962     -3040.3097      6927.6785     -4891.7521     -467.22892      68708.748      40.957868      40.957868      40.957868      1.0651651     -98.753425     -939.00049     -640.91851    
      7500   7500           298.22178      387.78328      1989.0801      1601.5712      5048.3043     -3446.7331      1030.2097      5019.9383     -8506.6211     -52.212894     -2983.6502      6938.56       -4892.9569     -468.5166       68519.906      40.92031       40.92031       40.92031       1.0681007      584.48014      1964.0439     -1385.1742    
      7600   7600           303.18583      889.42741      2464.269       1574.8182      5132.3359     -3557.5177      1023.5373      4824.4982     -8449.9474     -48.814278     -2957.8434      6944.2563     -4893.2045     -468.17282      68570.22       40.930324      40.930324      40.930324      1.067317       750.57098      1044.281       873.43024    
      7700   7700           299.28937     -326.27597      1241.6144      1569.3589      5066.3765     -3497.0176      1012.523       4941.1084     -8442.8339     -53.068714     -2989.7586      6929.5547     -4894.5425     -466.08744      68877.019      40.991277      40.991277      40.991277      1.0625628      128.9         -16.719157     -1091.0087    
      7800   7800           308.82734      120.07458      1684.8582      1563.6928      5227.8354     -3664.1427      1007.302       4820.9994     -8457.1799     -50.323908     -3035.9914      6944.4649     -4893.4137     -463.97019      69191.328      41.053535      41.053535      41.053535      1.057736       1677.0835     -144.14548     -1172.7142    
      7900   7900           295.32302     -587.83504      891.36912      1485.4469      4999.2341     -3513.7873      1010.4885      4928.5886     -8463.4178     -51.817616     -2999.0139      6953.7703     -4892.3855     -463.26535      69296.599      41.074344      41.074344      41.074344      1.0561292     -413.2809      -993.11198     -357.11225    
      8000   8000           299.55438     -796.03782      607.88979      1411.4911      5070.8626     -3659.3715      992.09686      4901.1482     -8515.1332     -50.276823     -3030.6718      6937.6512     -4894.1858     -463.77861      69219.911      41.059187      41.059187      41.059187      1.0572993     -235.13695     -834.47195     -1318.5046    
      8100   8100           296.58653      992.7804       2376.5117      1377.2229      5020.6229     -3643.4         1005.8928      4846.2121     -8502.8702     -51.971562     -2990.7881      6942.7185     -4892.5935     -465.13587      69017.928      41.019211      41.019211      41.019211      1.0603935      1367.081       452.01364      1159.2466    
      8200   8200           298.32979     -464.05648      1041.6477      1507.2521      5050.1327     -3542.8807      1024.5157      4954.844      -8474.5618     -50.708532     -3046.3791      6941.779      -4892.3699     -466.62873      68797.122      40.975421      40.975421      40.975421      1.0637968     -1026.3729      313.41589     -679.21242    
      8300   8300           302.98961      534.93353      2128.9176      1594.0267      5129.0142     -3534.9875      1020.6132      4775.598      -8392.9627     -49.051196     -2948.938       6952.4374     -4892.6843     -468.22242      68562.957      40.928879      40.928879      40.928879      1.06743        1658.8469      37.038208     -91.084481    
      8400   8400           305.50355      969.14166      2578.1448      1608.8122      5171.5702     -3562.7581      1006.5409      4909.0895     -8479.8773     -53.85641      -3003.6521      6948.2315     -4889.2341     -468.09291      68581.927      40.932653      40.932653      40.932653      1.0671348      682.65284      1546.3388      678.43333    
      8500   8500           301.09723      490.47726      2079.53        1588.0646      5096.98       -3508.9153      1040.8802      4913.4114     -8454.3208     -50.826578     -3016.2213      6945.616      -4887.4543     -467.24386      68706.551      40.957432      40.957432      40.957432      1.0651992      755.6097       676.42946      39.392627    
      8600   8600           296.37791      973.85077      2489.1172      1509.5125      5017.0913     -3507.5788      1050.0109      4868.02       -8453.539      -51.953572     -2981.4745      6951.1099     -4889.7524     -465.43517      68973.545      41.010417      41.010417      41.010417      1.0610758      1624.6727      1181.8158      115.06385    
      8700   8700           294.3108      -385.22158      1046.4431      1435.3882      4982.0991     -3546.7109      1014.3791      4893.7933     -8392.735      -51.787611     -3063.104       6944.5192     -4891.776      -463.70296      69231.203      41.061419      41.061419      41.061419      1.0571268      967.80303     -1184.8851     -938.58265    
      8800   8800           297.55341     -563.69749      944.93995      1513.5643      5036.9902     -3523.4259      1015.3644      4937.5818     -8466.5171     -50.481603     -2995.8723      6930.5541     -4894.0552     -464.12851      69167.726      41.048866      41.048866      41.048866      1.058097      -1208.3083     -1538.5212      1055.737     
      8900   8900           301.66164     -780.72431      841.60715      1627.8593      5106.5344     -3478.6751      1025.7726      5012.4983     -8531.5522     -54.334472     -2990.2127      6948.5615     -4889.4081     -464.89351      69053.908      41.026338      41.026338      41.026338      1.059841      -1016.1025      290.22626     -1616.2967    
      9000   9000           300.34016      1516.8034      3152.7652      1626.3797      5084.1643     -3457.7846      1019.4306      4926.2554     -8445.4066     -54.460783     -2955.0391      6944.0987     -4892.6628     -465.24606      69001.581      41.015973      41.015973      41.015973      1.0606447      2013.4664     -108.10403      2645.0478    
      9100   9100           299.11475     -552.32072      1020.6621      1577.2009      5063.4205     -3486.2196      1017.4568      4955.2492     -8502.1674     -53.405678     -2962.5142      6946.5007     -4887.339      -464.63673      69092.07       41.033894      41.033894      41.033894      1.0592556     -413.08005     -675.49229     -568.38981    
      9200   9200           297.35813     -1284.0967      174.41767      1469.4733      5033.6844     -3564.2111      1027.3463      4905.268      -8449.2661     -52.233924     -3044.9348      6939.3424     -4889.733      -464.22332      69153.599      41.046071      41.046071      41.046071      1.0583131     -1167.3052     -1466.3667     -1218.6183    
      9300   9300           297.35271      319.3502       1762.5483      1441.4301      5033.5926     -3592.1626      995.37681      4861.4707     -8457.6341     -50.58868      -3001.6699      6948.7251     -4887.8423     -465.60747      68948.021      41.005357      41.005357      41.005357      1.0614686     -346.21961      907.04556      397.22465    
      9400   9400           299.71532     -415.76521      1182.9352      1600.261       5073.587      -3473.326       1042.1876      4887.7595     -8393.0814     -51.759015     -3024.7262      6955.6824     -4889.3889     -466.43442      68825.782      40.98111       40.98111       40.98111       1.0633538     -214.47762      671.15893     -1703.9769    
      9500   9500           301.09063     -622.03303      1012.0431      1635.5004      5096.8682     -3461.3678      1032.3228      5026.4751     -8478.1426     -52.870824     -3052.8674      6954.0825     -4890.3674     -467.11562      68725.413      40.961179      40.961179      40.961179      1.0649068     -181.3553       68.920042     -1753.6638    
      9600   9600           297.6403      -657.2813       917.35031      1574.0891      5038.4611     -3464.372       1089.6696      4922.4701     -8469.8505     -51.493588     -3006.6865      6944.197      -4892.6781     -468.57192      68511.817      40.9187        40.9187        40.9187        1.0682268     -1315.4748     -1076.2457      419.87661    
      9700   9700           300.79292      394.57199      1880.9743      1487.7741      5091.8287     -3604.0545      1011.3957      4877.058      -8469.8146     -53.63904      -3023.0325      6945.4374     -4891.4595     -469.81853      68330.029      40.882477      40.882477      40.882477      1.0710688      636.15273      289.56308      258.00014    
      9800   9800           298.1672      -4.5215683      1428.2955      1432.8028      5047.3805     -3614.5777      990.39413      4849.0293     -8442.8742     -48.516815     -3007.4481      6939.5984     -4894.7604     -469.66499      68352.367      40.886932      40.886932      40.886932      1.0707187      540.73293     -697.25532      142.95768    
      9900   9900           298.07699     -150.53027      1330.8563      1481.4752      5045.8533     -3564.3781      1001.3199      4955.8604     -8479.8593     -50.175847     -3044.9007      6942.4109     -4889.0335     -467.90965      68608.788      40.937996      40.937996      40.937996      1.066717      -369.93066     -977.5937       895.93356    
     10000   10000          301.29754      246.71803      1888.8062      1641.1075      5100.3709     -3459.2633      1028.5157      4993.3806     -8480.1703     -55.274532     -2998.9082      6944.9561     -4891.7627     -466.3317       68840.942      40.984119      40.984119      40.984119      1.0631197      159.59228      839.40659     -258.84477    
     10100   10100          303.42977     -300.58798      1362.8632      1665.3944      5136.4652     -3471.0709      1028.7975      5020.4695     -8490.1815     -52.703675     -3014.3654      6931.3251     -4894.4124     -465.17793      69011.688      41.017975      41.017975      41.017975      1.0604894     -773.17579      65.285665     -193.87382    
     10200   10200          300.34452      305.03458      1894.0206      1586.3073      5084.2381     -3497.9309      1030.3341      4953.4442     -8506.1482     -50.677578     -2983.9074      6946.7128     -4887.6888     -464.10938      69170.576      41.04943       41.04943       41.04943       1.0580533      333.77351      601.43733     -20.107089    
     10300   10300          299.61158     -681.06995      833.4117       1520.2831      5071.8309     -3551.5478      1040.4328      4794.6531     -8407.1986     -51.940382     -2972.8061      6938.9534     -4893.642      -464.2308       69152.486      41.045851      41.045851      41.045851      1.0583301     -2226.0283     -421.89995      604.71839    
     10400   10400          298.42828      243.41229      1761.7847      1516.6888      5051.7999     -3535.1112      1053.2872      4894.2945     -8459.3094     -51.928441     -3021.5658      6943.7512     -4893.6405     -464.96906      69042.688      41.024116      41.024116      41.024116      1.0600132      1791.9933      232.59223     -1294.3487    
     10500   10500          301.73329     -306.75228      1248.7757      1556.5571      5107.7473     -3551.1902      998.85959      4934.8006     -8465.4231     -51.780676     -3026.8281      6948.6873     -4889.5059     -466.61974      68798.448      40.975684      40.975684      40.975684      1.0637763     -505.31791     -325.48496     -89.453975    
     10600   10600          308.56896      739.94983      2457.5972      1718.0355      5223.4616     -3505.4262      1037.7978      4965.2405     -8493.973      -54.624026     -3008.2721      6939.9614     -4891.5568     -468.43083      68532.452      40.922808      40.922808      40.922808      1.0679052      1379.5108      1254.1571     -413.8184     
     10700   10700          302.36465      919.66265      2592.1257      1674.579       5118.4349     -3443.8559      1091.3459      4933.9484     -8447.3404     -51.447719     -3023.0636      6944.0811     -4891.3794     -469.26487      68410.648      40.898549      40.898549      40.898549      1.0698066      1489.0393      536.39582      733.55283    
     10800   10800          299.71        -208.3652       1352.7715      1560.7189      5073.497      -3512.7781      1015.9811      4998.5581     -8477.6435     -50.889131     -3032.7719      6929.0334     -4895.0462     -469.12579      68430.928      40.90259       40.90259       40.90259       1.0694895     -42.740949      90.885642     -673.24028    
     10900   10900          300.3689       20.182622      1526.3314      1506.1257      5084.6508     -3578.5251      1033.7569      4824.3119     -8431.0887     -49.406841     -3002.5726      6939.0764     -4892.6022     -467.65065      68646.785      40.945552      40.945552      40.945552      1.0661265      466.77657      101.93482     -508.16352    
     11000   11000          301.53815     -451.60735      1090.0751      1543.5985      5104.4439     -3560.8454      1016.6982      4886.8913     -8415.5826     -49.751487     -3043.4595      6937.0664     -4892.7076     -466.20714      68859.335      40.987768      40.987768      40.987768      1.0628357      103.63413     -951.91824     -506.53795    
     11100   11100          301.19229     -134.78012      1495.0979      1630.562       5098.5892     -3468.0273      1026.0752      4978.7587     -8461.8391     -54.986435     -3013.6786      6945.7871     -4888.1441     -465.82136      68916.362      40.99908       40.99908       40.99908       1.0619562     -769.16162     -436.62882      801.45008    
     11200   11200          299.984       -387.97726      1327.9934      1717.7495      5078.1352     -3360.3857      1040.6065      5075.176      -8457.4122     -54.253163     -3020.854       6945.6756     -4889.3245     -466.04842      68882.786      40.992421      40.992421      40.992421      1.0624739      1157.7275     -344.22576     -1977.4336    
     11300   11300          297.93146     -59.13397       1622.4648      1681.8421      5043.3899     -3361.5477      1036.7039      5034.8653     -8451.1701     -49.81614      -2998.9088      6958.053      -4891.2748     -466.2661       68850.628      40.986041      40.986041      40.986041      1.0629701     -659.46732      168.35974      313.70567    
     11400   11400          298.08421     -623.78752      902.06129      1528.6564      5045.9756     -3517.3192      998.58311      4970.6292     -8469.8706     -52.613806     -3023.0886      6952.796      -4893.7546     -466.08734      68877.034      40.99128       40.99128       40.99128       1.0625626      633.39978     -1601.2217     -903.54065    
     11500   11500          295.48662      76.295062      1539.3846      1462.7451      5002.0035     -3539.2584      1007.1166      4961.516      -8537.6996     -52.404438     -2970.8097      6944.9341     -4891.9113     -466.08108      68877.959      40.991463      40.991463      40.991463      1.0625483     -375.9086      -96.943253      701.73703    
     11600   11600          298.85301      912.42573      2404.411       1486.2018      5058.9899     -3572.7881      1004.1367      4896.5521     -8459.5423     -51.531554     -3024.718       6953.4164     -4891.1015     -465.23624      69003.037      41.016261      41.016261      41.016261      1.0606223     -428.99621      2473.5058      692.76758    
     11700   11700          305.20708     -686.69842      890.02012      1580.7391      5166.5517     -3585.8125      1021.7346      4815.5447     -8419.8178     -51.476196     -3012.2529      6952.7566     -4892.3015     -465.4599       68969.88       41.00969       41.00969       41.00969       1.0611322     -574.44563     -1225.7031     -259.94654    
     11800   11800          302.07717     -314.37701      1319.9712      1635.802       5113.5685     -3477.7665      1006.6121      4972.3609     -8482.8833     -51.222942     -3000.1956      6967.6496     -4890.0872     -466.03002      68885.506      40.992961      40.992961      40.992961      1.0624319     -313.76384     -476.50549     -152.8617     
     11900   11900          300.99929      503.45522      2130.1433      1623.9377      5095.322      -3471.3844      1025.647       4969.6293     -8549.9662     -53.091793     -2940.5569      6966.1637     -4889.2095     -465.64131      68943.01       41.004364      41.004364      41.004364      1.0615458      98.178433      1299.6889      112.49831    
     12000   12000          299.26218     -424.23667      1041.8863      1470.2132      5065.9162     -3595.703       1026.9621      4903.3834     -8524.2021     -51.909815     -2999.3364      6941.238      -4891.8382     -463.71436      69229.501      41.061083      41.061083      41.061083      1.0571528     -375.18435     -229.61798     -667.90769    
     12100   12100          293.95664     -180.30257      1264.1815      1446.6093      4976.1039     -3529.4946      1012.8519      4979.9927     -8554.5619     -49.495819     -2982.8886      6955.7172     -4891.11       -462.7308       69376.652      41.090155      41.090155      41.090155      1.0549105      374.0886       705.04844     -1620.0447    
     12200   12200          301.42163     -1198.1386      328.93557      1542.233       5102.4715     -3560.2385      1008.9454      4895.4831     -8469.8411     -55.234226     -2973.6395      6929.9437     -4895.8959     -462.33569      69435.941      41.101857      41.101857      41.101857      1.0540098     -1764.8122     -1613.3613     -216.2423     
     12300   12300          302.78699     -88.709303      1516.6891      1606.3131      5125.5843     -3519.2712      1027.1455      4898.0574     -8480.0815     -51.041677     -2970.3269      6947.5998     -4890.6239     -463.40716      69275.394      41.070154      41.070154      41.070154      1.0564524      1069.7937      61.528215     -1397.4499    
     12400   12400          299.558        20.123552      1626.2722      1606.0047      5070.9238     -3464.9191      1040.8109      4912.8719     -8426.3804     -49.432889     -2996.9575      6947.5042     -4893.3354     -464.85952      69058.957      41.027338      41.027338      41.027338      1.0597635      94.761085     -920.59415      886.20372    
     12500   12500          301.33569     -235.52083      1354.7585      1591.1754      5101.0166     -3509.8413      1013.5917      4961.7229     -8477.73       -51.713269     -3002.5653      6938.9284     -4892.0757     -466.41074      68829.276      40.981804      40.981804      40.981804      1.0632999     -100.72614     -875.32738      269.49102    
     12600   12600          297.73125      393.61637      1945.6254      1550.9321      5040.0007     -3489.0686      980.45893      5048.2462     -8486.8703     -51.146276     -3016.0719      6932.3885     -4896.0736     -466.90779      68756.003      40.967256      40.967256      40.967256      1.064433       1020.1954     -558.87062      719.52429    
     12700   12700          294.88592     -826.59348      581.60731      1410.5201      4991.8349     -3581.3148      991.96499      4874.6109     -8452.371      -53.045738     -2993.0111      6943.5752     -4893.038      -466.87517      68760.807      40.96821       40.96821       40.96821       1.0643587     -709.1877      -1769.1602     -1.4325309    
     12800   12800          298.4591       593.99988      1975.5731      1379.6609      5052.3218     -3672.6609      947.55605      4913.8801     -8499.0235     -53.732415     -3015.0414      6929.8364     -4896.1361     -466.68268      68789.168      40.973842      40.973842      40.973842      1.0639198      891.94811     -11.760965      901.81248    
     12900   12900          299.03468      551.93287      2032.1867      1478.9603      5062.0652     -3583.1049      1019.1803      4952.904      -8515.0791     -56.587536     -3023.4851      6935.5711     -4895.6086     -467.09044      68729.118      40.961915      40.961915      40.961915      1.0648494     -257.80736      487.51306      1426.0929    
     13000   13000          300.09584     -170.24365      1392.2963      1563.1245      5080.0284     -3516.9039      1009.2699      4915.7678     -8456.8994     -51.629904     -2985.6899      6947.5485     -4895.2709     -466.58317      68803.84       40.976755      40.976755      40.976755      1.063693       1138.2004      568.15151     -2217.0829    
     13100   13100          302.65045      1906.3872      3497.3813      1582.8834      5123.2729     -3540.3895      1002.9385      4942.3068     -8491.3808     -52.725015     -2985.792       6940.722      -4896.459      -466.20169      68860.139      40.987928      40.987928      40.987928      1.0628233     -601.36794      2425.2406      3895.2888    
     13200   13200          300.37088     -1524.7975     -2.0179871      1531.7095      5084.6843     -3552.9748      1048.0501      4883.115      -8469.4277     -51.555919     -3014.3173      6945.4264     -4894.2655     -465.45919      68969.986      41.009711      41.009711      41.009711      1.0611306     -746.30906     -1048.1744     -2779.9091    
     13300   13300          296.24111      1249.0475      2665.3622      1409.3574      5014.7755     -3605.4181      988.31744      4904.2365     -8498.1947     -54.799662     -2998.7678      6944.2421     -4890.4519     -465.59179      68950.343      41.005818      41.005818      41.005818      1.0614329      946.50381      1077.9934      1722.6453    
     13400   13400          300.40751     -127.43819      1214.3442      1342.6404      5085.3044     -3742.664       947.00962      4803.1055     -8511.8078     -51.294964     -2984.8603      6946.7347     -4891.5507     -465.05419      69030.049      41.021612      41.021612      41.021612      1.0602073     -1277.4837      801.86179      93.307376    
     13500   13500          297.37466     -256.90491      1165.4576      1424.3546      5033.9643     -3609.6097      980.99566      4933.2488     -8502.0338     -54.845993     -3011.5403      6940.7524     -4896.1865     -464.58261      69100.119      41.035488      41.035488      41.035488      1.0591322     -865.61354     -262.20188      357.10068    
     13600   13600          299.26161     -167.26649      1316.1917      1484.5544      5065.9067     -3581.3523      1042.0701      4899.421      -8537.9607     -48.843267     -2988.8189      6947.2178     -4894.4384     -465.13662      69017.816      41.019189      41.019189      41.019189      1.0603952     -792.19906      516.43142     -226.03185    
     13700   13700          297.87009     -676.16727      865.41735      1545.0205      5042.3508     -3497.3303      1023.2899      4948.6925     -8479.2079     -51.650855     -2992.3747      6946.9026     -4892.9818     -465.81811      68916.843      40.999176      40.999176      40.999176      1.0619488     -1243.0164     -1441.3804      655.89501    
     13800   13800          301.73542      682.61593      2275.8682      1590.4087      5107.7833     -3517.3746      1035.1827      4840.5754     -8415.3432     -53.495944     -2967.5282      6938.5474     -4895.3128     -466.24288      68854.057      40.986721      40.986721      40.986721      1.0629172      1380.9388      530.97972      135.92924    
     13900   13900          300.81801      555.31034      2103.8863      1545.8977      5092.2534     -3546.3558      1000.2581      4869.2668     -8455.0075     -51.387422     -2957.938       6941.8996     -4893.4473     -465.93791      68899.124      40.995662      40.995662      40.995662      1.0622219      505.96692      274.49657      885.46754    
     14000   14000          295.91804     -592.91222      814.78214      1411.7286      5009.3066     -3597.578       988.66151      5002.726      -8548.4021     -51.947786     -3040.1773      6947.118      -4895.5564     -465.02109      69034.963      41.022586      41.022586      41.022586      1.0601318     -338.43562     -500.40028     -939.90076    
     14100   14100          293.9745       40.898377      1487.4264      1446.1413      4976.4063     -3530.2649      1011.0065      4953.4055     -8501.2569     -52.724478     -2983.6462      6937.8136     -4894.863      -463.8004       69216.657      41.058544      41.058544      41.058544      1.0573489      861.15158     -166.69597     -571.76048    
     14200   14200          298.56942     -730.56475      796.27144      1534.5736      5054.1891     -3519.6156      1043.0638      4870.7578     -8452.6671     -54.1454       -2992.2543      6957.6945     -4892.0648     -463.27858      69294.621      41.073954      41.073954      41.073954      1.0561593     -1186.4007     -1043.5125      38.218921    
     14300   14300          294.97337      737.91172      2314.313       1568.9159      4993.3153     -3424.3994      1013.2474      5092.9133     -8525.7656     -52.098421     -3011.4465      6954.9108     -4896.1604     -463.48359      69263.971      41.067897      41.067897      41.067897      1.0566267      1522.041      -382.83964      1074.5338    
     14400   14400          299.65926     -1373.6702      218.83624      1606.0122      5072.638      -3466.6258      980.69035      5056.1455     -8507.9886     -52.72239      -3001.9082      6953.4708     -4894.3133     -463.62682      69242.573      41.063667      41.063667      41.063667      1.0569532     -1640.0313     -869.88466     -1611.0946    
     14500   14500          304.53936      244.32029      1911.3426      1665.1429      5155.2484     -3490.1055      1000.8521      5035.6708     -8488.898      -55.074195     -3029.1606      6940.1267     -4893.6224     -464.61115      69095.874      41.034647      41.034647      41.034647      1.0591972     -112.52689     -676.53975      1522.0275    
     14600   14600          305.43799     -196.54         1517.2016      1714.6142      5170.4606     -3455.8463      1037.1069      4925.0901     -8430.3062     -51.020855     -2977.2546      6935.0592     -4894.5207     -466.11564      68872.853      40.99045       40.99045       40.99045       1.0626271      1083.2929      114.96737     -1787.8803    
     14700   14700          305.11635      430.36776      2066.0056      1634.5906      5165.0158     -3530.4252      1009.7293      4886.6989     -8432.0337     -51.712847     -2991.5649      6945.7662     -4897.3082     -467.04867      68735.263      40.963136      40.963136      40.963136      1.0647542     -370.01555      824.58046      836.53838    
     14800   14800          297.55248      372.9724       1882.1542      1508.6392      5036.9744     -3528.3352      1037.1882      4972.0134     -8508.5656     -55.948201     -3012.7873      6938.2889     -4898.5247     -467.50501      68668.171      40.949804      40.949804      40.949804      1.0657945      1658.0296     -726.28047      187.16807    
     14900   14900          296.75979     -173.63418      1275.3797      1449.5538      5023.5557     -3574.0019      1015.8391      4952.152      -8500.4415     -54.176641     -3018.9649      6932.001      -4900.4109     -466.73384      68781.629      40.972345      40.972345      40.972345      1.0640364      43.743752      139.21027     -703.85655    
     15000   15000          296.64484      440.46346      1904.585       1462.5202      5021.6098     -3559.0896      1000.5189      4897.8514     -8469.1167     -50.184109     -2975.8628      6933.6279     -4895.9241     -466.48911      68817.712      40.979508      40.979508      40.979508      1.0634785     -1324.2083      2400.9447      244.65393    
     15100   15100          299.13869      12.668173      1603.4522      1590.7275      5063.8258     -3473.0982      1017.1419      4975.5103     -8452.9054     -52.552324     -3006.31        6942.0645     -4896.0473     -466.10731      68874.083      40.990694      40.990694      40.990694      1.0626081      770.14435     -497.72623     -234.41361    
     15200   15200          304.86605     -1084.9196      539.31215      1626.6968      5160.7787     -3534.0819      1031.2456      4941.539      -8476.0941     -52.895837     -3022.4839      6940.3148     -4895.7074     -467.12378      68724.212      40.960941      40.960941      40.960941      1.0649254     -1844.9428     -395.49769     -1014.3182    
     15300   15300          305.92908      1343.6032      2921.7067      1579.3074      5178.7736     -3599.4662      936.79168      4975.4786     -8512.1009     -52.757451     -2998.9611      6947.0949     -4895.0119     -468.60503      68506.976      40.917736      40.917736      40.917736      1.0683023      591.88157      1937.2637      1501.6643    
     15400   15400          297.28999     -391.02512      1128.193       1519.0037      5032.531      -3513.5273      1049.3544      4934.4489     -8496.3373     -50.9352       -3002.6957      6945.3894     -4892.7518     -468.44202      68530.815      40.922482      40.922482      40.922482      1.0679307     -186.98171     -276.75739     -709.33626    
     15500   15500          299.18631     -346.99449      1155.3073      1502.8035      5064.6319     -3561.8284      1024.054       4975.1908     -8484.462      -53.584183     -3075.8418      6945.2295     -4892.4147     -467.50909      68667.572      40.949685      40.949685      40.949685      1.0658038     -414.50835      583.25789     -1209.733     
     15600   15600          297.28559     -287.60313      1248.2294      1536.766       5032.4564     -3495.6904      1041.0069      4957.3987     -8450.1706     -52.44874      -3037.6618      6939.6624     -4893.4772     -466.67049      68790.966      40.974199      40.974199      40.974199      1.063892      -793.88904      281.33082     -350.25117    
     15700   15700          304.74996      111.51864      1831.6064      1719.6624      5158.8135     -3439.1511      1052.3909      4920.6663     -8425.1216     -52.355689     -2994.2054      6951.3515     -4891.8771     -466.40624      68829.94       40.981935      40.981935      40.981935      1.0632896      1112.0609     -567.54843     -209.95654    
     15800   15800          302.94329      467.31732      2170.866       1701.4598      5128.2301     -3426.7704      1057.7064      5004.2608     -8496.9234     -52.168922     -2990.1201      6943.6208     -4893.146      -466.10165      68874.92       40.99086       40.99086       40.99086       1.0625952      636.11508      428.60592      337.23097    
     15900   15900          305.08061     -20.688573      1554.2146      1575.0316      5164.4108     -3589.3791      1033.1506      4899.0577     -8499.3211     -48.830649     -3024.1315      6942.7573     -4892.0615     -465.29659      68994.087      41.014488      41.014488      41.014488      1.0607599     -136.21558      149.56555     -75.415688    
     16000   16000          300.21027     -465.66473      1041.5448      1510.6109      5081.9656     -3571.3547      1012.0457      4855.1697     -8439.0761     -50.756512     -3005.987       6949.5        -4892.2505     -464.79014      69069.266      41.029379      41.029379      41.029379      1.0596053      1223.3229     -1266.6434     -1353.6737    
     16100   16100          298.61682     -503.57941      1025.3484      1533.0483      5054.9915     -3521.9433      1058.7608      4836.8218     -8445.2305     -53.212206     -2964.6153      6939.1733     -4893.6412     -464.38535      69129.471      41.041297      41.041297      41.041297      1.0586825     -338.2643       241.05598     -1413.5299    
     16200   16200          299.66828     -107.41343      1513.6607      1621.8873      5072.7907     -3450.9034      1055.3223      4939.1558     -8443.0408     -52.076874     -2993.8048      6938.2693     -4894.7283     -464.66743      69087.505      41.032991      41.032991      41.032991      1.0593256      907.44891     -1184.96       -44.729171    
     16300   16300          302.30445     -73.136539      1623.4345      1696.8957      5117.4159     -3420.5202      1054.1365      5044.1293     -8486.0761     -52.127363     -3030.3168      6944.8042     -4895.07       -466.11635      68872.747      40.99043       40.99043       40.99043       1.0626287      98.85098      -865.6003       547.33971    
     16400   16400          303.21594     -283.28891      1331.7645      1615.4026      5132.8455     -3517.4429      1054.232       4847.9332     -8396.8138     -49.962866     -3027.8592      6948.0678     -4893.04       -467.60884      68652.923      40.946773      40.946773      40.946773      1.0660312     -456.90749     -852.80503      459.8458     
     16500   16500          299.5515       888.17891      2360.7748      1472.6587      5070.8138     -3598.1552      1020.8065      4896.6306     -8523.2921     -52.774284     -2983.8169      6940.333      -4896.0418     -468.21824      68563.569      40.929001      40.929001      40.929001      1.0674205      2123.9309      271.59262      269.01321    
     16600   16600          298.79584     -743.8876       727.55832      1472.1845      5058.022      -3585.8375      1008.341       4969.6685     -8468.2716     -50.633526     -3089.083       6940.221      -4896.08       -467.72076      68636.495      40.943506      40.943506      40.943506      1.0662864      969.40487     -1613.0654     -1588.0023    
     16700   16700          302.88731      906.94204      2463.6885      1556.499       5127.2825     -3570.7835      1015.3977      4891.8414     -8405.6897     -51.501243     -3062.9735      6938.3377     -4896.1958     -468.05748      68587.118      40.933686      40.933686      40.933686      1.067054       1552.6342      555.4227       612.76922    
     16800   16800          301.99371      302.51691      1915.1126      1612.6417      5112.1557     -3499.5141      1027.9356      4924.5714     -8446.7573     -55.771628     -2987.3999      6933.1921     -4895.2843     -468.25633      68557.992      40.927891      40.927891      40.927891      1.0675073      1055.1925     -993.37191      845.73008    
     16900   16900          302.05703     -1221.4491      391.96852      1614.6996      5113.2276     -3498.5279      1058.616       5005.0253     -8496.2068     -54.566102     -3040.82        6927.5766     -4898.1529     -467.69427      68640.383      40.944279      40.944279      40.944279      1.066226      -1178.1364     -1483.6949     -1002.5161    
     17000   17000          296.8568       152.41881      1613.7902      1461.2978      5025.198      -3563.9002      1012.4539      4916.6598     -8468.6923     -53.507966     -3015.297       6940.5804     -4896.0969     -467.95938      68601.497      40.936546      40.936546      40.936546      1.0668304      954.74671     -1293.8275      796.33718    
     17100   17100          297.04607     -1138.5933      267.36934      1406.2695      5028.4019     -3622.1324      1032.6895      4761.2986     -8388.0353     -49.736075     -3021.5336      6939.2966     -4896.1121     -468.05899      68586.896      40.933642      40.933642      40.933642      1.0670575     -2091.8535      294.15243     -1618.0788    
     17200   17200          299.79481      985.95193      2461.4967      1476.9879      5074.9326     -3597.9448      1011.9203      4907.0634     -8494.8159     -51.591581     -3005.6153      6935.1983     -4900.1041     -468.87142      68468.054      40.909986      40.909986      40.909986      1.0689096      2002.9064     -1459.229       2414.1784    
     17300   17300          300.95049      446.98524      2011.0517      1564.3188      5094.496      -3530.1772      1014.7311      4900.2681     -8409.7453     -51.516503     -3018.6058      6932.6578     -4897.9667     -468.44957      68529.712      40.922262      40.922262      40.922262      1.0679479     -383.32392      450.01963      1274.26      
     17400   17400          300.81565      135.95719      1715.7502      1579.5182      5092.2135     -3512.6953      1037.7554      4925.5103     -8465.3333     -51.590808     -2994.7563      6932.7579     -4897.0386     -467.24086      68706.991      40.957519      40.957519      40.957519      1.0651923      1026.4249      770.08103     -1388.6343    
     17500   17500          296.13592     -3.9158398      1562.6981      1566.6368      5012.9949     -3446.3581      1089.8613      4871.6188     -8429.2182     -50.327403     -2973.4525      6942.4405     -4897.2807     -465.47566      68967.546      41.009228      41.009228      41.009228      1.0611681     -80.205134     -1254.6781      1323.1357    
     17600   17600          304.66381      328.43909      1887.913       1556.5404      5157.3552     -3600.8148      1049.2267      4908.4049     -8539.3363     -54.43124      -3008.8576      6939.0041     -4894.8253     -464.04043      69180.854      41.051463      41.051463      41.051463      1.0578962     -413.5248       1418.8016     -19.95951     
     17700   17700          302.38879     -1265.581       254.92615      1533.8604      5118.8435     -3584.9831      1057.2293      4850.2092     -8479.4046     -48.344658     -3003.672       6934.2477     -4895.248      -463.29687      69291.886      41.073413      41.073413      41.073413      1.056201      -534.01088     -1970.929      -1291.8032    
     17800   17800          299.29311      1597.3669      3150.9669      1539.9904      5066.4398     -3526.4494      1023.4326      4909.8188     -8472.423      -53.26037      -2968.9876      6931.7232     -4896.7531     -464.2299       69152.619      41.045878      41.045878      41.045878      1.0583281      1631.8083      1548.0912      1612.2013    
     17900   17900          301.322       -309.80822      1240.8215      1552.7578      5100.7848     -3548.0271      1034.2334      4936.3209     -8481.9983     -51.476836     -3026.6199      6935.3288     -4893.8151     -464.99107      69039.419      41.023468      41.023468      41.023468      1.0600634     -1299.9523      318.64865      51.87895     
     18000   18000          297.91397     -747.83638      784.01506      1536.3032      5043.0937     -3506.7905      1019.6133      5034.5255     -8518.3152     -52.465115     -3028.5419      6933.0907     -4894.6978     -465.41459      68976.594      41.011021      41.011021      41.011021      1.0610289     -504.39711     -429.07281     -1310.0392    
     18100   18100          296.9775       420.54766      1949.8107      1527.5154      5027.2412     -3499.7258      1018.093       5041.2708     -8515.9926     -54.286375     -3025.3419      6931.3354     -4894.8041     -466.24761      68853.358      40.986583      40.986583      40.986583      1.062928      -652.12997      1193.8685      719.90443    
     18200   18200          296.35121     -189.06092      1324.6022      1513.9687      5016.6392     -3502.6706      1024.5574      4968.1994     -8484.3725     -52.075961     -2989.3505      6925.6623     -4895.2907     -467.4296       68679.248      40.952006      40.952006      40.952006      1.0656226      354.04039      584.25055     -1505.4737    
     18300   18300          300.42709      650.22356      2109.5512      1459.4625      5085.6359     -3626.1734      985.63268      4891.9656     -8508.7397     -53.196614     -2973.8868      6927.1978     -4895.1462     -468.2823       68554.19       40.927134      40.927134      40.927134      1.0675666      500.12841      1759.0793     -308.53705    
     18400   18400          296.42349      647.73302      2059.2767      1412.0287      5017.8629     -3605.8342      986.3571       4908.0519     -8471.4517     -50.044367     -3029.0771      6942.6178     -4892.2878     -468.53601      68517.068      40.919745      40.919745      40.919745      1.0681449      1580.8821     -111.7526       474.06954    
     18500   18500          300.51281     -1234.6781      259.26082      1494.4727      5087.087      -3592.6143      1018.7232      4898.2475     -8448.9031     -54.251778     -3048.2622      6936.8785     -4895.0463     -467.98281      68598.061      40.935863      40.935863      40.935863      1.0668838     -2713.0217     -1178.8485      187.83603    
     18600   18600          305.00949      519.44958      2127.9616      1607.1428      5163.2069     -3556.064       990.51711      5030.2858     -8481.4934     -54.414374     -3076.1732      6929.3865     -4894.1724     -466.95436      68749.146      40.965894      40.965894      40.965894      1.0645392      537.53492      21.110524      999.7033     
     18700   18700          300.81472      423.74534      2018.5681      1593.1026      5092.1977     -3499.0951      1027.6212      4930.3926     -8436.5533     -49.837429     -3018.8716      6941.9339     -4893.7805     -466.29231      68846.758      40.985273      40.985273      40.985273      1.0630299      910.84573      857.90253     -497.51223    
     18800   18800          298.48223     -1429.0027      99.267326      1536.1162      5052.7133     -3516.597       1050.2479      4947.1846     -8419.5043     -54.467699     -3070.7953      6926.0784     -4895.3407     -465.62853      68944.902      41.004739      41.004739      41.004739      1.0615166     -2859.9756     -1001.7973     -425.23515    
     18900   18900          295.1774       403.80024      1879.3269      1475.0519      4996.7691     -3521.7172      1070.1876      4923.1376     -8474.2719     -54.726042     -3031.4778      6940.1764     -4894.7431     -467.63532      68649.035      40.946         40.946         40.946         1.0660916      1013.7609      143.76736      53.872452    
     19000   19000          294.36298     -102.68232      1263.8481      1366.2409      4982.9825     -3616.7416      1043.2604      4853.2468     -8436.6515     -51.322991     -3062.8371      6934.128      -4896.5651     -469.50884      68375.099      40.891464      40.891464      40.891464      1.0703628     -1509.0204     -15.617264      1216.5907    
     19100   19100          293.45844      229.24827      1566.4711      1338.2091      4967.6704     -3629.4613      1021.7911      4839.9769     -8470.8535     -50.421972     -3017.1947      6942.8811     -4895.6402     -470.2081       68273.417      40.871183      40.871183      40.871183      1.0719569      70.407938      240.8799       376.45698    
     19200   19200          305.10025      289.97463      1764.3343      1475.1789      5164.7432     -3689.5643      1002.9444      4892.5186     -8472.2497     -51.488926     -3107.7993      6942.801      -4896.2903     -469.51155      68374.705      40.891385      40.891385      40.891385      1.0703689     -488.65059      303.62336      1054.9511    
     19300   19300          301.2558      -817.05279      702.76467      1518.9082      5099.6643     -3580.7561      1034.368       4909.2453     -8466.9875     -48.57553      -3056.8355      6941.8684     -4893.8391     -468.70672      68492.113      40.914777      40.914777      40.914777      1.0685341     -1560.628       132.05818     -1022.5885    
     19400   19400          299.90782      813.13547      2303.2331      1489.0545      5076.8456     -3587.7911      993.39523      4976.6952     -8492.6052     -55.513558     -3047.1846      6932.1247     -4894.7029     -467.58529      68656.381      40.94746       40.94746       40.94746       1.0659775      277.87901      697.51532      1464.0121    
     19500   19500          303.0152      -1028.7672      390.99623      1423.2557      5129.4474     -3706.1918      1015.4555      4789.2471     -8491.2294     -48.836982     -3004.6672      6929.6664     -4895.8272     -466.60125      68801.174      40.976225      40.976225      40.976225      1.0637342     -1306.2597      345.10977     -2125.1517    
     19600   19600          294.92877      362.60733      1714.3027      1349.8961      4992.5603     -3642.6642      992.30662      4923.6759     -8504.537      -50.455491     -3053.4042      6943.5723     -4893.8223     -465.87347      68908.654      40.997552      40.997552      40.997552      1.062075       1250.3291     -76.479385     -86.027683    
     19700   19700          296.01494     -733.94344      696.08322      1434.8654      5010.947      -3576.0816      1018.6341      4844.5145     -8455.9749     -51.036965     -2978.3684      6938.8152     -4892.6651     -465.11874      69020.468      41.019715      41.019715      41.019715      1.0603544     -2447.4858     -683.36118      929.01668    
     19800   19800          302.2307      -499.03606      1070.5138      1573.0266      5116.1674     -3543.1408      1027.2038      4960.2846     -8468.5639     -51.840636     -3062.2494      6943.4865     -4891.4617     -464.94591      69046.126      41.024797      41.024797      41.024797      1.0599604      953.65088     -1763.6884     -687.07068    
     19900   19900          299.95198      1312.5164      2930.9455      1611.3821      5077.5932     -3466.2111      1063.4278      4952.5721     -8467.1566     -52.928424     -3022.4091      6952.6833     -4892.4001     -465.68486      68936.562      41.003086      41.003086      41.003086      1.061645       806.9656       909.79167      2220.792     
     20000   20000          302.41199     -760.7694       824.76918      1590.0172      5119.2364     -3529.2192      1008.1497      4946.6655     -8434.7283     -51.299211     -3045.0794      6942.6127     -4895.5402     -465.4451       68972.073      41.010125      41.010125      41.010125      1.0610984     -1866.297      -986.13234      570.12112    
     20100   20100          295.79264     -265.58822      1219.4172      1485.983       5007.1838     -3521.2007      1035.6626      4954.6906     -8459.4181     -53.47616      -3049.6862      6944.5359     -4893.5094     -466.46808      68820.816      40.980124      40.980124      40.980124      1.0634306      439.21982     -1515.6253      279.64079    
     20200   20200          294.88957      402.40179      1816.8141      1414.4268      4991.8966     -3577.4698      1012.8553      4852.2219     -8421.7228     -51.055451     -3010.5004      6935.9501     -4895.2185     -468.20202      68565.944      40.929473      40.929473      40.929473      1.0673835     -57.419619      952.175        312.45       
     20300   20300          297.80687      192.21194      1657.8548      1466.015       5041.2807     -3575.2657      1049.5482      4879.8        -8399.1711     -52.306179     -3089.5505      6934.2824     -4897.8686     -469.09328      68435.672      40.903535      40.903535      40.903535      1.0694154      529.79237      236.67786     -189.83442    
     20400   20400          300.41703      7.0683924      1513.4422      1506.4102      5085.4657     -3579.0554      1042.5269      4914.2528     -8468.8926     -49.381781     -3053.1268      6930.4677     -4894.9016     -470.61101      68214.965      40.859516      40.859516      40.859516      1.0728754     -1816.3418      1666.1653      171.38168    
     20500   20500          299.42588      973.23615      2488.0086      1520.7795      5068.6873     -3547.9078      1026.2727      4934.1624     -8438.1183     -53.324101     -3062.4149      6940.6315     -4895.1171     -471.09284      68145.195      40.845581      40.845581      40.845581      1.0739739      893.4111       1087.8813      938.41607    
     20600   20600          299.84651     -623.88299      918.53825      1539.0687      5075.8078     -3536.7391      1059.8434      4854.9964     -8388.3402     -54.530927     -3061.8846      6945.3337     -4892.157      -470.71465      68199.945      40.856517      40.856517      40.856517      1.0731117     -468.1451      -1529.3883      125.8844     
     20700   20700          298.06693      562.46367      2098.9092      1539.2038      5045.6831     -3506.4793      1037.5858      5020.9121     -8503.3283     -51.335804     -3057.4028      6939.8638     -4892.7741     -470.49236      68232.168      40.862951      40.862951      40.862951      1.0726049     -31.556772      289.96671      1428.9811    
     20800   20800          300.16547      738.3858       2206.5089      1470.3705      5081.2071     -3610.8367      1012.1291      4930.1288     -8434.694      -52.823082     -3095.5346      6926.0433     -4896.0862     -469.61446      68359.721      40.888398      40.888398      40.888398      1.0706035      1645.7711      574.07197     -4.6856579    
     20900   20900          293.9586      -852.78504      589.50014      1441.0601      4976.1371     -3535.077       1060.9575      4925.0788     -8454.9005     -51.55101      -3060.5965      6937.3167     -4891.382      -468.85871      68469.91       40.910355      40.910355      40.910355      1.0688806     -425.28172     -1455.311      -677.76235    
     21000   21000          302.15852      768.46257      2303.474       1534.8083      5114.9455     -3580.1372      1015.226       4919.1266     -8454.3598     -54.251462     -3050.5741      6937.6678     -4892.9723     -468.06139      68586.545      40.933572      40.933572      40.933572      1.0670629      92.856484      9.3798901      2203.1513    
     21100   21100          304.11658     -946.41493      666.60869      1615.0843      5148.0917     -3533.0074      1063.3165      4962.2577     -8479.716      -54.864921     -3074.5134      6945.0288     -4894.5161     -467.16797      68717.711      40.959649      40.959649      40.959649      1.0650262      670.6342      -2857.7412     -652.13784    
     21200   21200          302.80691     -31.282327      1587.5636      1618.8959      5125.9216     -3507.0257      1045.6474      4884.1514     -8413.78       -54.501713     -3022.973       6946.58       -4892.1497     -467.43813      68677.996      40.951757      40.951757      40.951757      1.065642      -476.39923     -109.56228      492.11452    
     21300   21300          299.83978      791.96386      2326.585       1534.4149      5075.6939     -3541.2791      1023.3424      4964.0419     -8534.2159     -51.046028     -2988.2643      6938.5602     -4893.6972     -468.06327      68586.269      40.933517      40.933517      40.933517      1.0670672      1194.2076      67.826897      1113.8571    
     21400   21400          294.76746     -500.72741      912.94103      1414.6946      4989.8296     -3575.135       1048.1029      4826.3549     -8480.4202     -51.732378     -2974.2951      6948.3645     -4891.5095     -467.22761      68708.94       40.957906      40.957906      40.957906      1.0651621     -263.84867     -422.38823     -815.94534    
     21500   21500          294.7772      -931.4578       510.32265      1447.0761      4989.9944     -3542.9183      1012.0935      4925.3599     -8437.7354     -51.189763     -3048.9114      6953.0411     -4895.5763     -465.53839      68958.252      41.007386      41.007386      41.007386      1.0613111     -1399.1356      556.17504     -1951.4128    
[...]
    495100   495100         299.96897      334.04602      1858.0656      1524.4018      5077.8808     -3553.479       994.88517      4848.8874     -8362.605      -50.376516     -3053.4848      6959.207      -4889.9922     -468.72151      68489.952      40.914347      40.914347      40.914347      1.0685678     -410.93392      1575.8279     -162.75587    
    495200   495200         296.85369     -261.38617      1311.82        1573.2102      5025.1453     -3451.9351      1046.7362      4925.383      -8419.5687     -52.153418     -3008.3909      6945.2169     -4889.1582     -468.17784      68569.486      40.930178      40.930178      40.930178      1.0673284     -523.03248      221.20292     -482.32896    
    495300   495300         301.30521     -821.37627      778.0378       1600.718       5100.5008     -3499.7828      1044.735       4912.9726     -8425.3367     -51.276505     -3037.5564      6947.0074     -4890.3282     -467.44308      68677.267      40.951612      40.951612      40.951612      1.0656533     -1470.5004     -511.13093     -482.49744    
    495400   495400         294.71833     -418.97994      1195.5669      1615.3865      4988.9979     -3373.6115      1077.0797      4993.8927     -8434.5792     -54.228775     -3017.5684      6954.7154     -4892.9228     -467.24878      68705.827      40.957288      40.957288      40.957288      1.0652104     -615.89684      448.15132     -1089.1943    
    495500   495500         306.18597      603.18057      2315.5759      1711.8675      5183.1223     -3471.2548      1023.1425      4977.9235     -8471.9818     -53.288927     -3000.6578      6947.5023     -4893.8945     -467.77579      68628.42       40.941901      40.941901      40.941901      1.0664118      1335.2355     -1715.4949      2189.8011    
    495600   495600         302.65447     -262.2307       1433.1374      1695.5462      5123.3411     -3427.7949      1060.6819      5035.7733     -8477.353      -51.988345     -3046.6886      6944.5944     -4892.8145     -467.86749      68614.969      40.939226      40.939226      40.939226      1.0666209      213.34381      566.14608     -1566.182     
    495700   495700         304.18803      1313.2678      2886.9378      1572.3969      5149.3011     -3576.9042      987.55137      4916.9354     -8479.3291     -53.269707     -3007.6971      6951.5903     -4892.6854     -467.73171      68634.888      40.943187      40.943187      40.943187      1.0663113      1774.8095      883.04834      1281.9454    
    495800   495800         297.06411     -85.638867      1442.8336      1528.7935      5028.7073     -3499.9138      1026.3001      4918.6893     -8428.7077     -52.427562     -3020.1853      6948.8518     -4892.4344     -466.43672      68825.442      40.981043      40.981043      40.981043      1.0633591      272.46115     -672.81791      143.44015    
    495900   495900         297.62731      140.96851      1704.0462      1562.3108      5038.2412     -3475.9304      1060.4896      4882.6859     -8420.2447     -50.989869     -3007.3049      6950.1541     -4890.7206     -465.65191      68941.44       41.004053      41.004053      41.004053      1.0615699      0.88567091     243.54016      178.47971    
    496000   496000         301.26309      202.75252      1859.5521      1655.669       5099.7877     -3444.1187      1037.7404      4923.161      -8405.8261     -52.848093     -3001.6132      6947.8968     -4892.6296     -465.58878      68950.789      41.005906      41.005906      41.005906      1.061426      -92.504208      236.6636       464.09816    
    496100   496100         304.95781     -584.61441      1106.4749      1693.7062      5162.332      -3468.6257      1056.0732      4974.9641     -8462.5668     -52.063743     -3037.3213      6941.1117     -4888.8229     -466.0987       68875.355      40.990947      40.990947      40.990947      1.0625885     -135.05709     -1434.5935     -184.19264    
    496200   496200         304.37491      577.64423      2233.8915      1655.5569      5152.4646     -3496.9077      1021.4216      4978.2499     -8520.8548     -51.592266     -2960.2243      6931.2874     -4895.1953     -467.62622      68650.371      40.946265      40.946265      40.946265      1.0660709      907.28291      466.86888      358.78091    
    496300   496300         299.80244     -504.14832      1096.2739      1600.331       5075.0618     -3474.7308      1044.479       4943.9565     -8417.3643     -52.722488     -3028.423       6932.13       -4896.7865     -468.26989      68556.007      40.927496      40.927496      40.927496      1.0675383     -1801.486       211.31031      77.730755    
    496400   496400         300.21236      813.77575      2329.4524      1517.7715      5082.001      -3564.2294      1043.6679      4871.5148     -8428.491      -48.504723     -3052.9385      6944.454      -4893.932      -469.39351      68391.9        40.894813      40.894813      40.894813      1.0700998      884.31055     -180.5047       1737.5214    
    496500   496500         300.47392     -201.57506      1257.9867      1458.8684      5086.4286     -3627.5602      1010.973       4926.0995     -8490.6002     -54.284802     -3058.2792      6933.3727     -4894.8412     -469.80122      68332.546      40.882979      40.882979      40.882979      1.0710293     -792.10571      821.74199     -634.36146    
    496600   496600         300.33124      621.02936      2099.6123      1480.7192      5084.0133     -3603.2941      988.33784      4962.7999     -8471.434      -55.514326     -3060.3491      6928.5122     -4895.6467     -469.80117      68332.553      40.88298       40.88298       40.88298       1.0710292      742.83921      812.37906      307.8698     
    496700   496700         301.5851      -566.07         1078.434       1642.4062      5105.2387     -3462.8325      1027.2866      4931.4544     -8341.0341     -55.934987     -3082.8931      6951.692      -4893.4033     -469.92663      68314.31       40.879342      40.879342      40.879342      1.0713152      173.06675     -1279.9419     -591.33487    
    496800   496800         304.67983     -406.38988      1265.3794      1669.7779      5157.6263     -3487.8484      1047.8182      5033.7399     -8448.9976     -56.309623     -3104.7036      6937.158      -4896.5538     -470.49059      68232.424      40.863002      40.863002      40.863002      1.0726009     -724.10722      670.83108     -1165.8935    
    496900   496900         301.18762     -72.857071      1529.5447      1602.0074      5098.5101     -3496.5027      1058.7503      4958.8195     -8454.1432     -49.841545     -3042.0847      6928.3072     -4896.3101     -470.73293      68197.297      40.855988      40.855988      40.855988      1.0731534     -1857.4514      287.91078      1350.9694    
    497000   497000         297.64924      271.87183      1798.4537      1527.3736      5038.6123     -3511.2387      1044.5605      4969.7438     -8447.7521     -51.720563     -3068.5052      6936.3561     -4893.9213     -469.55263      68368.723      40.890193      40.890193      40.890193      1.0704626      554.80271      920.75542     -659.94264    
    497100   497100         301.01156     -778.897        739.59778      1518.1304      5095.5298     -3577.3994      1082.5599      4902.8439     -8434.5066     -51.796627     -3119.5181      6935.4267     -4892.4087     -468.40428      68536.337      40.923581      40.923581      40.923581      1.0678446     -2030.0058     -227.96637     -78.71887     
    497200   497200         299.9545       251.57166      1784.5252      1533.3468      5077.6359     -3544.2891      1030.6927      4934.8688     -8503.2978     -49.491956     -2994.9263      6932.0064     -4894.1409     -468.91821      68461.222      40.908625      40.908625      40.908625      1.0690163      624.91692     -438.60003      568.39809    
    497300   497300         298.79546      152.48571      1710.5839      1558.1467      5058.0157     -3499.869       1051.2891      4936.8133     -8432.5824     -50.475521     -3040.1113      6931.5712     -4896.3734     -468.3342       68546.593      40.925622      40.925622      40.925622      1.0676849     -87.527054      764.6446      -219.6604     
    497400   497400         295.76587      476.29388      2049.2901      1573.105       5006.7306     -3433.6257      1043.6022      4939.9639     -8427.9545     -52.325687     -2987.9802      6940.6255     -4889.5569     -468.29207      68552.759      40.926849      40.926849      40.926849      1.0675888      431.14793      441.17779      556.55591    
    497500   497500         298.69866      697.33897      2277.9421      1579.6365      5056.377      -3476.7406      1044.9126      5007.0305     -8471.2317     -53.38544      -3053.9547      6943.6376     -4893.7495     -467.537        68663.471      40.94887       40.94887       40.94887       1.0658675      662.85446      423.72656      1005.4359    
    497600   497600         299.13707     -743.36967      845.79944      1591.4141      5063.7984     -3472.3843      1020.5391      4949.8599     -8409.809      -53.570876     -3028.7656      6940.2759     -4890.9137     -466.77547      68775.494      40.971127      40.971127      40.971127      1.0641314     -1131.8999      514.16834     -1612.3774    
    497700   497700         305.9941       726.18677      2333.8473      1605.8416      5179.8743     -3574.0327      1036.6609      4911.0638     -8468.4167     -50.69551      -3050.5261      6940.6745     -4892.7935     -467.01543      68740.156      40.964108      40.964108      40.964108      1.0646784      28.690305      229.1379       1920.7321    
    497800   497800         298.02355     -727.13617      872.5566       1601.2663      5044.9487     -3443.6824      1019.8088      4976.669      -8406.0459     -52.52392      -3034.3365      6942.0449     -4889.2988     -467.17417      68716.8        40.959468      40.959468      40.959468      1.0650403     -823.08246     -1664.4223      306.09628    
    497900   497900         297.39701      754.22523      2289.2805      1534.277       5034.3426     -3500.0656      1012.7639      5075.481      -8486.5681     -54.182951     -3089.1156      6933.7338     -4892.1776     -467.70253      68639.171      40.944038      40.944038      40.944038      1.0662448      1366.5063      1411.1098     -514.94035    
    498000   498000         297.14688      80.546481      1576.9525      1496.4834      5030.1084     -3533.625       1009.4264      4977.2361     -8485.6938     -52.81607      -3028.4341      6936.0337     -4889.3772     -468.63547      68502.526      40.91685       40.91685       40.91685       1.0683717      1135.4744     -739.51551     -154.31945    
    498100   498100         302.71485     -922.7196       601.6938       1522.89        5124.3632     -3601.4732      1051.7565      4877.7054     -8424.8642     -54.229637     -3099.3199      6940.954      -4893.4753     -468.95939      68455.21       40.907427      40.907427      40.907427      1.0691101     -1922.1516     -787.25918     -58.747966    
    498200   498200         295.88237      1100.4364      2663.632       1566.3998      5008.7028     -3442.303       1051.5488      5028.5857     -8447.3148     -55.557609     -3057.2882      6929.479      -4891.756      -469.55238      68368.759      40.8902        40.8902        40.8902        1.070462       1082.1756      444.76001      1774.3737    
    498300   498300         301.44218     -250.58821      1384.6659      1634.3231      5102.8193     -3468.4962      1051.8271      4984.9374     -8435.841      -54.756243     -3054.9024      6932.9607     -4892.7218     -469.93105      68313.668      40.879214      40.879214      40.879214      1.0713253      596.26775     -906.98102     -441.05135    
    498400   498400         307.03798      175.34888      1880.1176      1705.536       5197.5451     -3492.0091      1003.3837      5040.9352     -8454.0623     -51.930969     -3075.8052      6940.2797     -4894.8091     -470.24287      68268.368      40.870176      40.870176      40.870176      1.0720362      832.90011      718.57028     -1025.4238    
    498500   498500         301.52099      1726.4701      3389.5888      1667.464       5104.1534     -3436.6894      1059.4206      4977.8769     -8445.8866     -52.550662     -3018.5036      6936.1203     -4893.1662     -469.36649      68395.837      40.895597      40.895597      40.895597      1.0700382      1247.4825      1077.2157      2854.7119    
    498600   498600         296.59937     -1644.4392     -122.78249      1524.204       5020.8401     -3496.6361      1056.7953      4953.3885     -8422.1875     -49.948733     -3088.7222      6941.8095     -4887.7709     -467.46104      68674.629      40.951088      40.951088      40.951088      1.0656943     -2060.871      -1809.4429     -1063.0037    
    498700   498700         292.7756      -341.60532      1163.0921      1505.2003      4956.1113     -3450.911       1023.3697      4995.099      -8431.8427     -51.443686     -3038.4662      6939.7752     -4887.4024     -467.49693      68669.357      40.95004       40.95004       40.95004       1.0657761     -435.03114     -394.50548     -195.27934    
    498800   498800         296.21319      306.48411      1858.2585      1551.917       5014.3029     -3462.3859      1015.3762      4971.7415     -8425.2243     -52.832719     -3018.6185      6939.9015     -4892.7295     -468.40323      68536.49       40.923612      40.923612      40.923612      1.0678422      208.39345     -221.88273      932.94163    
    498900   498900         300.3642      -209.88471      1441.7187      1651.3818      5084.5713     -3433.1895      1054.522       5017.98       -8465.9967     -53.182222     -3022.7038      6930.811      -4894.6198     -468.68012      68496.001      40.915551      40.915551      40.915551      1.0684735      305.96181      333.57646     -1269.1924    
    499000   499000         304.34809      221.37911      1949.2434      1727.8926      5152.0106     -3424.118       1043.0286      4986.4648     -8428.1097     -54.653826     -3023.6328      6941.4684     -4888.6836     -468.24496      68559.656      40.928222      40.928222      40.928222      1.0674814      550.76434     -218.13483      331.50781    
    499100   499100         302.94034     -584.89929      1178.7309      1764.0784      5128.1803     -3364.1019      1110.9987      5150.6708     -8524.8872     -56.454194     -3086.5758      6929.8875     -4887.7417     -467.82665      68620.959      40.940417      40.940417      40.940417      1.0665278      420.31452     -328.30021     -1846.7122    
    499200   499200         300.28797      821.93548      2448.4187      1624.838       5083.2809     -3458.4429      1032.2593      4951.6514     -8406.5573     -50.508584     -3027.2001      6934.1043     -4892.1919     -467.24989      68705.663      40.957255      40.957255      40.957255      1.0652129      199.72572      1593.6813      672.39946    
    499300   499300         301.24563     -1556.954      -10.705283      1549.8996      5099.4921     -3549.5925      1023.9948      4880.7931     -8396.6432     -54.898859     -3047.6869      6934.3673     -4889.5187     -467.08989      68729.199      40.961932      40.961932      40.961932      1.0648481     -1957.772      -1789.6294     -923.46071    
    499400   499400         301.10271      1465.7069      3013.0551      1547.6711      5097.0727     -3549.4016      1009.7427      5015.0783     -8508.97       -52.085243     -3059.8317      6939.2766     -4892.6124     -468.2883       68553.311      40.926959      40.926959      40.926959      1.0675802      1221.7641      2022.9216      1152.4351    
    499500   499500         300.69144     -1563.2506      24.617098      1585.4956      5090.1108     -3504.6153      1070.0836      4975.6633     -8398.1062     -52.735734     -3132.402       6928.1929     -4895.311      -468.89667      68464.367      40.909251      40.909251      40.909251      1.0689672     -1088.0758     -859.26929     -2742.4066    
    499600   499600         304.63662      763.46867      2449.3392      1691.3603      5156.8949     -3465.5346      1053.0074      4956.1542     -8437.0266     -50.524984     -3032.4104      6938.7193     -4893.4535     -471.57607      68075.365      40.831625      40.831625      40.831625      1.0750755      2421.7741     -157.49835      26.13022     
    499700   499700         305.96295      716.73823      2400.7113      1690.7735      5179.3471     -3488.5736      1019.3342      5072.698      -8515.8741     -53.870758     -3043.5607      6924.7422     -4892.0424     -472.66986      67917.834      40.800105      40.800105      40.800105      1.0775691     -32.278547      263.58829      1918.9049    
    499800   499800         296.6719      -582.06113      953.11927      1531.2742      5022.0679     -3490.7936      1023.9608      5038.7171     -8444.6333     -54.711715     -3091.521       6929.2662     -4891.8718     -471.34832      68108.259      40.8382        40.8382        40.8382        1.0745563      590.23872     -1738.856      -597.56616    
    499900   499900         299.14498      386.05778      1881.8627      1497.9481      5063.9323     -3565.9842      1026.0363      4887.432      -8407.3223     -52.817226     -3059.847       6934.0308     -4893.4969     -470.79885      68187.749      40.854082      40.854082      40.854082      1.0733036      604.83271      307.74007      245.60055    
    500000   500000         300.16381      946.25915      2457.3419      1515.4349      5081.179      -3565.7441      1037.6234      5008.9997     -8545.9628     -51.685257     -3048.3214      6926.9153     -4893.3131     -470.34843      68253.047      40.867118      40.867118      40.867118      1.0722768      679.01604      1273.1664      886.59504    
Loop time of 1118.23 on 1 procs for 500000 steps with 7020 atoms

Performance: 38.632 ns/day, 0.621 hours/ns, 447.134 timesteps/s, 3.139 Matom-step/s
99.9% CPU use with 1 MPI tasks x 1 OpenMP threads

MPI task timing breakdown:
Section |  min time  |  avg time  |  max time  |%varavg| %total
---------------------------------------------------------------
Pair    | 127.26     | 127.26     | 127.26     |   0.0 | 11.38
Bond    | 110.87     | 110.87     | 110.87     |   0.0 |  9.91
Kspace  | 474.6      | 474.6      | 474.6      |   0.0 | 42.44
Neigh   | 71.944     | 71.944     | 71.944     |   0.0 |  6.43
Comm    | 12.857     | 12.857     | 12.857     |   0.0 |  1.15
Output  | 5.3077     | 5.3077     | 5.3077     |   0.0 |  0.47
Modify  | 285.64     | 285.64     | 285.64     |   0.0 | 25.54
Other   |            | 29.76      |            |       |  2.66

Nlocal:           7020 ave        7020 max        7020 min
Histogram: 1 0 0 0 0 0 0 0 0 0
Nghost:          19834 ave       19834 max       19834 min
Histogram: 1 0 0 0 0 0 0 0 0 0
Neighs:              0 ave           0 max           0 min
Histogram: 1 0 0 0 0 0 0 0 0 0
FullNghs:  4.59241e+06 ave 4.59241e+06 max 4.59241e+06 min
Histogram: 1 0 0 0 0 0 0 0 0 0

Total # of neighbors = 4592410
Ave neighs/atom = 654.18946
Ave special neighs/atom = 5.7008547
Neighbor list builds = 14674
Dangerous builds = 0
System init for write_data ...
PPPM Kokkos initialization ...
  using 12-bit tables for long-range coulomb
  G vector (1/distance) = 0.30340796
  grid = 30 30 30
  stencil order = 5
  estimated absolute RMS force accuracy = 0.00030151112
  estimated relative force accuracy = 9.0799179e-07
  using double precision cuFFT
  3d grid and FFT values/proc = 50653 27000
Generated 10 of 10 mixed pair_coeff terms from sixthpower/sixthpower mixing rule
STAGE COMPLETE: NPT T=300.0->300.0K P=1.0->1.0atm steps=500000
