LAMMPS output created by EMC v9.4.4, build Jul 31 2025 20:33:44

        7520  atoms
        7510  bonds
       14000  angles
       18910  dihedrals
        8500  impropers

           6  atom types
           9  bond types
          17  angle types
          22  dihedral types
          14  improper types

             0    51.75099813  xlo xhi
             0    51.75099813  ylo yhi
             0    51.75099813  zlo zhi

Masses

       1   12.01115  # c
       2   12.01115  # c1
       3   12.01115  # c_1
       4    1.00797  # hc
       5   15.99940  # o_1
       6   15.99940  # o_2

Atoms

       1       1   1 -0.1590  38.1378213583  40.8268596701  17.2174275800  # c
       2       1   4  0.0530  38.8897241474  41.6389904875  17.1949953537  # hc
       3       1   4  0.0530  37.7198327492  40.7671352123  18.2440955076  # hc
       4       1   1  0.0000  38.7305461490  39.5168492736  16.6725913678  # c
       5       1   1 -0.1590  39.1197670793  39.3354209694  15.1991345683  # c
       6       1   4  0.0530  38.3093251282  39.4413161594  14.4191105999  # hc
       7       1   4  0.0530  39.6046076791  38.3612211545  15.1353716677  # hc
       8       1   4  0.0530  39.8958247500  40.0466954915  14.9052181587  # hc
       9       1   3  0.7020  40.1616678703  39.4207260876  17.3855886809  # c_1
      10       1   5 -0.5310  41.2763919781  39.0794578252  16.9676048774  # o_1
      11       1   6 -0.3960  39.9737386587  39.8221507075  18.6566599587  # o_2
      12       1   1  0.0660  41.0831055923  39.6710324192  19.5729044151  # c
      13       1   4  0.0530  40.7962499534  39.5495013428  20.7177943162  # hc
      14       1   4  0.0530  41.7378310644  40.6172914372  19.6429906636  # hc
      15       1   4  0.0530  41.7156504871  38.7585141183  19.3649457431  # hc
      16       1   1 -0.1060  37.8264424208  38.3890747516  17.1536132457  # c
      17       1   4  0.0530  37.7484650609  38.6959006995  18.1746991659  # hc
      18       1   4  0.0530  38.4617022897  37.5289368279  17.2608503734  # hc
      19       1   1  0.0000  36.4411924852  38.0949935888  16.5168067506  # c
      20       1   1 -0.1590  35.5347697949  39.3438423336  16.2231795693  # c
      21       1   4  0.0530  35.3085778380  39.9722237426  17.1474035490  # hc
      22       1   4  0.0530  34.5283064013  38.9568379872  15.9528966216  # hc
      23       1   4  0.0530  36.0246811955  39.9640666581  15.4765557272  # hc
      24       1   3  0.7020  35.5495833855  37.2759888058  17.5304102205  # c_1
      25       1   5 -0.5310  34.3810287477  37.0416732472  17.2625510912  # o_1
      26       1   6 -0.3960  36.1352030534  36.9803636212  18.7051969426  # o_2
      27       1   1  0.0660  35.5350665312  36.3815196157  19.7371901630  # c
      28       1   4  0.0530  34.8129259830  37.0775394663  20.1210677560  # hc
      29       1   4  0.0530  34.9391524789  35.4897797402  19.3465648424  # hc
      30       1   4  0.0530  36.2896807463  36.0253248168  20.4985838716  # hc
      31       1   1 -0.1060  36.6888276908  37.1331372241  15.3257278031  # c
      32       1   4  0.0530  37.4251692616  36.4051761884  15.7257389839  # hc
      33       1   4  0.0530  37.2115026141  37.8145509654  14.6318756745  # hc
      34       1   1  0.0000  35.6500841346  36.3890690854  14.3859636853  # c
      35       1   1 -0.1590  36.5581377901  35.7904695271  13.2269523989  # c
      36       1   4  0.0530  37.1297904647  34.8866327649  13.7200826963  # hc
      37       1   4  0.0530  37.2048478326  36.5000173759  12.6940282550  # hc
      38       1   4  0.0530  35.8334812269  35.2135178904  12.5188032231  # hc
      39       1   3  0.7020  35.0942494794  35.0165131935  15.0419428580  # c_1
      40       1   5 -0.5310  34.4207646407  34.2702646708  14.4100525895  # o_1
      41       1   6 -0.3960  35.6912441159  34.6387874314  16.1802822459  # o_2
      42       1   1  0.0660  35.2049163619  33.5070918503  16.8318814851  # c
      43       1   4  0.0530  35.6976277639  33.4555693947  17.8256298814  # hc
      44       1   4  0.0530  34.1540267565  33.6405935288  17.0990550843  # hc
      45       1   4  0.0530  35.2818997795  32.5487630124  16.2492020439  # hc
      46       1   1 -0.1060  34.3887981866  37.3132579632  14.0140944899  # c
      47       1   4  0.0530  33.7245912759  37.3201413535  14.9022350114  # hc
      48       1   4  0.0530  34.8406283889  38.3233404637  13.8056883927  # hc
      49       1   1  0.0000  33.4179425095  37.0353872114  12.7565496066  # c
      50       1   1 -0.1590  32.8674251579  35.5781025511  12.6468767771  # c
      51       1   4  0.0530  33.6541101279  34.8334956401  12.5582380848  # hc
      52       1   4  0.0530  32.1732530468  35.4246262267  11.7131674310  # hc
      53       1   4  0.0530  32.2363415574  35.3725536606  13.4709565475  # hc
      54       1   3  0.7020  32.1538503163  37.9652684913  13.1310626579  # c_1
      55       1   5 -0.5310  31.0387911312  37.5299995542  13.2515279021  # o_1
      56       1   6 -0.3960  32.4965418712  39.2704821320  13.3412122743  # o_2
      57       1   1  0.0660  32.0202736579  39.8887141074  14.4922241002  # c
      58       1   4  0.0530  32.2692167928  39.3200914516  15.3644076187  # hc
      59       1   4  0.0530  30.9329183646  39.9705089918  14.4136002554  # hc
      60       1   4  0.0530  32.5586746211  40.7969533190  14.6315777653  # hc
      61       1   1 -0.1060  34.1531635123  37.5457589072  11.4285336159  # c
      62       1   4  0.0530  35.2036241428  37.2543880456  11.6412886266  # hc
      63       1   4  0.0530  34.2212052139  38.6418639214  11.5844683484  # hc
      64       1   1  0.0000  33.7566032277  37.4265235666   9.9223383987  # c
      65       1   1 -0.1590  35.0225240610  37.8254611245   9.1393818511  # c
      66       1   4  0.0530  35.8328101550  37.0806346395   9.2708581981  # hc
      67       1   4  0.0530  34.9047265721  37.7572971749   8.0569753121  # hc
      68       1   4  0.0530  35.4361448374  38.7898791363   9.4746064867  # hc
      69       1   3  0.7020  33.5121359469  36.0713901263   9.2069650592  # c_1
      70       1   5 -0.5310  32.8627444559  35.8254888656   8.2283774231  # o_1
      71       1   6 -0.3960  34.1533802381  35.1090129434   9.8749940346  # o_2
      72       1   1  0.0660  33.6677779543  33.7814925340   9.9345017387  # c
      73       1   4  0.0530  32.8488311321  33.5486830150  10.7133385388  # hc
      74       1   4  0.0530  34.4641952839  33.1035908548  10.2807679991  # hc
      75       1   4  0.0530  33.4004532321  33.4589682663   8.9031112267  # hc
      76       1   1 -0.1060  32.7508319821  38.5211933809   9.6292296736  # c
      77       1   4  0.0530  33.3857280165  39.3013744721   9.1720659972  # hc
      78       1   4  0.0530  32.3921570451  38.9997959694  10.5753678800  # hc
      79       1   1  0.0000  31.4353135773  38.6473082132   8.7985326587  # c
      80       1   1 -0.1590  31.4700272568  38.5105881737   7.2057775776  # c
      81       1   4  0.0530  30.6908945438  39.1512141756   6.8567194581  # hc
      82       1   4  0.0530  31.2747877066  37.5356417924   6.8313947247  # hc
      83       1   4  0.0530  32.4409685051  38.8840886797   6.7794105260  # hc
      84       1   3  0.7020  30.2977325338  37.7328649331   9.2847393288  # c_1
      85       1   5 -0.5310  29.1555065365  37.9993507504   8.9672541770  # o_1
      86       1   6 -0.3960  30.7375467837  36.7091258672  10.0158089177  # o_2
      87       1   1  0.0660  29.8760038738  35.8359542700  10.6915145177  # c
      88       1   4  0.0530  29.7618113070  36.2176585097  11.7827859460  # hc
      89       1   4  0.0530  30.4325598666  34.8748391824  10.8809346673  # hc
      90       1   4  0.0530  28.8123815759  35.7166278320  10.3240114303  # hc
      91       1   1 -0.1060  30.8793157695  40.1869525159   8.9819585048  # c
      92       1   4  0.0530  29.9739085017  40.2616906477   8.3432439872  # hc
      93       1   4  0.0530  31.6817286948  40.7782791697   8.4419831446  # hc
      94       1   1  0.0000  30.4776303770  40.9641796557  10.2859997860  # c
      95       1   1 -0.1590  29.4577653218  40.1863254264  11.1961802217  # c
      96       1   4  0.0530  29.8582938157  39.2412780710  11.5708835487  # hc
      97       1   4  0.0530  29.1479057526  40.7324666992  12.0524009435  # hc
      98       1   4  0.0530  28.5210483281  39.9413866820  10.7393932163  # hc
      99       1   3  0.7020  31.6299787648  41.4158888777  11.1997748597  # c_1
     100       1   5 -0.5310  31.4461455957  41.8557061762  12.3131363523  # o_1
     101       1   6 -0.3960  32.7339279599  41.2160540882  10.5553426819  # o_2
     102       1   1  0.0660  33.9710164358  41.7699700614  11.0151937272  # c
     103       1   4  0.0530  34.6888422968  41.5294559345  10.2254376101  # hc
     104       1   4  0.0530  34.2461446618  41.2866111613  11.9393145827  # hc
     105       1   4  0.0530  33.7521698484  42.8366299196  11.2048984377  # hc
     106       1   1 -0.1060  29.7353624688  42.3103576112   9.8756780232  # c
     107       1   4  0.0530  28.7618988031  41.9339272722   9.5503964148  # hc
     108       1   4  0.0530  29.4881183979  42.7727284680  10.8154898122  # hc
     109       1   1  0.0000  30.0801996112  43.3863410650   8.7412692122  # c
     110       1   1 -0.1590  31.5235839661  43.2288190445   8.2031676694  # c
     111       1   4  0.0530  32.1507436671  44.1642513022   7.9424741297  # hc
     112       1   4  0.0530  31.6043440783  42.4546283353   7.4080519748  # hc
     113       1   4  0.0530  32.1815921300  42.8017703651   8.9421485250  # hc
     114       1   3  0.7020  30.1635064643  44.8742022925   9.4290244116  # c_1
     115       1   5 -0.5310  30.2493172789  45.8995704443   8.8166756265  # o_1
     116       1   6 -0.3960  30.1620751164  44.8440188554  10.8122674601  # o_2
     117       1   1  0.0660  30.0032796370  46.0410906958  11.5624587205  # c
     118       1   4  0.0530  29.1169750606  46.5702992592  11.2032350112  # hc
     119       1   4  0.0530  29.8729592415  45.7642254731  12.6250433257  # hc
     120       1   4  0.0530  30.9664856918  46.6124271775  11.4136123412  # hc
     121       1   1 -0.1060  29.2318349303  43.2062873650   7.3841103113  # c
     122       1   4  0.0530  29.5366014505  42.2015208515   7.0005243902  # hc
     123       1   4  0.0530  29.7002833633  43.8685412718   6.6237804850  # hc
     124       1   1  0.0000  27.7414046965  43.2345288314   7.0218390276  # c
     125       1   1 -0.1590  26.9987405047  41.9298549065   7.5869845147  # c
     126       1   4  0.0530  27.5073610900  41.0191738109   7.3216938991  # hc
     127       1   4  0.0530  25.9443561152  41.8233612886   7.1008982947  # hc
     128       1   4  0.0530  26.9343566718  41.8725696007   8.6663622300  # hc
     129       1   3  0.7020  27.4139522215  43.1288787529   5.4133879118  # c_1
     130       1   5 -0.5310  26.3821426068  43.3053640542   4.7855862185  # o_1
     131       1   6 -0.3960  28.6124275866  42.7771583656   4.9151362987  # o_2
     132       1   1  0.0660  28.7222433665  42.7078601694   3.4684891742  # c
     133       1   4  0.0530  29.5126878000  42.0383760676   3.1133641742  # hc
     134       1   4  0.0530  27.8933538205  42.1964874523   2.9278727791  # hc
     135       1   4  0.0530  28.8853384095  43.7383154414   3.1041267664  # hc
     136       1   1 -0.1060  27.0725708997  44.4978556130   7.6832098233  # c
     137       1   4  0.0530  26.1047734151  44.3002852468   8.1978219864  # hc
     138       1   4  0.0530  27.7176837156  44.4499359544   8.6081929279  # hc
     139       1   1  0.0000  26.8768731989  45.9983076023   7.2584370699  # c
     140       1   1 -0.1590  26.9617711349  46.5886328071   8.6482667830  # c
     141       1   4  0.0530  27.9991969645  46.3850767677   9.1435758560  # hc
     142       1   4  0.0530  26.1373839178  46.2462573776   9.1960454550  # hc
     143       1   4  0.0530  26.8436907909  47.6704995132   8.6014614777  # hc
     144       1   3  0.7020  25.5264410438  46.0648538612   6.4726411327  # c_1
     145       1   5 -0.5310  25.4051423519  46.6825302365   5.4683729851  # o_1
     146       1   6 -0.3960  24.5135079379  45.3703451526   7.0459623763  # o_2
     147       1   1  0.0660  23.1901978708  45.2809812083   6.4620357366  # c
     148       1   4  0.0530  23.2624062861  44.5565214131   5.6795437027  # hc
     149       1   4  0.0530  22.5067213776  44.7994585442   7.2627931718  # hc
     150       1   4  0.0530  22.8389400475  46.3189305711   6.2602326663  # hc
     151       1   1 -0.1060  27.9732483165  46.6020663994   6.3144777052  # c
     152       1   4  0.0530  28.8401277134  46.2090798470   6.8878884848  # hc
     153       1   4  0.0530  27.9500919754  45.9613696584   5.4104467181  # hc
     154       1   1  0.0000  28.2756579436  48.1183454675   5.8517804740  # c
     155       1   1 -0.1590  28.0253196966  48.1319789836   4.3225773537  # c
     156       1   4  0.0530  28.9237128945  47.8068030547   3.8524507140  # hc
     157       1   4  0.0530  27.8731615355  49.1535860866   3.9075945061  # hc
     158       1   4  0.0530  27.3447961915  47.4641196064   3.8974762807  # hc
     159       1   3  0.7020  29.9215340246  48.3741249468   5.8830092433  # c_1
     160       1   5 -0.5310  30.3921315001  49.4734093570   5.8028819870  # o_1
     161       1   6 -0.3960  30.6771642833  47.2092334896   5.8166024880  # o_2
     162       1   1  0.0660  32.1049652740  47.2921576861   5.7116897942  # c
     163       1   4  0.0530  32.4552608917  46.2580156789   5.7347786417  # hc
     164       1   4  0.0530  32.4215894633  47.8191038098   6.6209115225  # hc
     165       1   4  0.0530  32.4188845477  47.7297719244   4.7933684521  # hc
     166       1   1 -0.1060  27.6800737776  49.3383688662   6.6874049784  # c
     167       1   4  0.0530  28.3996433054  50.1189123113   6.4238837791  # hc
     168       1   4  0.0530  27.8685129867  49.0908402859   7.7087261276  # hc
     169       1   1  0.0000  26.3157272449  50.2485198969   6.6437586084  # c
     170       1   1 -0.1590  26.9592854536  51.6328019368   6.5208999443  # c
     171       1   4  0.0530  26.2642223180  52.4221990976   6.6569170391  # hc
     172       1   4  0.0530  27.4615426455  51.7437295200   5.5694693594  # hc
     173       1   4  0.0530  27.6832005320  51.8430379021   7.2431754555  # hc
     174       1   3  0.7020  25.3918096661  50.3429513565   5.4347924562  # c_1
     175       1   5 -0.5310  24.5110337998  51.1678530072   5.4234494440  # o_1
     176       1   6 -0.3960  25.6094319713  49.4348773906   4.4707889767  # o_2
     177       1   1  0.0660  24.8461019228  49.4449937791   3.2649909807  # c
     178       1   4  0.0530  23.8017569574  49.1741984655   3.4828219659  # hc
     179       1   4  0.0530  24.8959286069  50.4236721778   2.8090090956  # hc
     180       1   4  0.0530  25.3650814705  48.7779190648   2.6222719611  # hc
     181       1   1 -0.1060  25.5454833826  50.2858297628   8.0090384839  # c
     182       1   4  0.0530  25.1696791343  51.3427243636   7.9903557748  # hc
     183       1   4  0.0530  26.2740141753  50.1829547847   8.8881814411  # hc
     184       1   1  0.0000  24.2111807627  49.4332547691   8.4024731336  # c
     185       1   1 -0.1590  23.5007950222  48.7930109722   7.1647869961  # c
     186       1   4  0.0530  22.7075647238  48.0730828331   7.3925392716  # hc
     187       1   4  0.0530  23.1563347109  49.5426193105   6.4327217457  # hc
     188       1   4  0.0530  24.1972379465  48.2010034733   6.5913886357  # hc
     189       1   3  0.7020  24.4712745823  48.3123333512   9.4654523995  # c_1
     190       1   5 -0.5310  23.8466403779  47.2452098404   9.5463442295  # o_1
     191       1   6 -0.3960  25.5006817241  48.6020258252  10.3349529075  # o_2
     192       1   1  0.0660  25.8589306898  47.6491079758  11.3166520044  # c
     193       1   4  0.0530  26.1710023929  48.2047092079  12.2067874486  # hc
     194       1   4  0.0530  25.0511981913  46.9363394029  11.5749771380  # hc
     195       1   4  0.0530  26.6970554354  47.1489379601  11.0506963977  # hc
     196       1   1 -0.1060  23.0866365628  50.2129411850   9.1959261045  # c
     197       1   4  0.0530  22.4256153673  49.4201558794   9.6058945509  # hc
     198       1   4  0.0530  22.5598210841  50.7392311621   8.4066826130  # hc
     199       1   1  0.0000  23.1388665841  51.3124855244  10.3467102659  # c
     200       1   1 -0.1590  24.0186546077  51.0347904279  11.5448594386  # c
     201       1   4  0.0530  23.9388097816  49.9969651182  12.0384301748  # hc
     202       1   4  0.0530  23.8178019826  51.8803829959  12.2935848903  # hc
     203       1   4  0.0530  25.0702687704  51.2332277757  11.3662247843  # hc
     204       1   3  0.7020  21.6124329003  51.4534022398  10.9252321307  # c_1
     205       1   5 -0.5310  21.3711675110  51.5831836039  12.1117137308  # o_1
     206       1   6 -0.3960  20.5297637260  51.3333812485  10.0249488590  # o_2
     207       1   1  0.0660  19.2309532114  51.4198083064  10.5531063815  # c
     208       1   4  0.0530  19.0689582420  52.2647674660  11.1906201587  # hc
     209       1   4  0.0530  18.5550554616  51.5172544918   9.7865714097  # hc
     210       1   4  0.0530  18.9345486328  50.4850471251  11.1433140585  # hc
     211       1   1 -0.1060  23.6905477105  52.7037400379   9.8627649051  # c
     212       1   4  0.0530  24.6661106046  52.4320126035   9.5124885381  # hc
     213       1   4  0.0530  23.9971753986  53.3091215207  10.6966498566  # hc
     214       1   1  0.0000  23.1412351286  53.7216337053   8.7439993980  # c
     215       1   1 -0.1590  24.4621246684  54.5690198820   8.2760103010  # c
     216       1   4  0.0530  25.1575809647  54.8681223723   9.0961311468  # hc
     217       1   4  0.0530  25.0604806117  53.8644260504   7.6278461636  # hc
     218       1   4  0.0530  24.3558559003  55.4767969769   7.6068960537  # hc
     219       1   3  0.7020  22.4483752127  55.0460008824   9.3691251998  # c_1
     220       1   5 -0.5310  21.9043648184  55.8567924214   8.6593705854  # o_1
     221       1   6 -0.3960  22.6215926536  55.1840578747  10.7227369878  # o_2
     222       1   1  0.0660  21.9582318000  56.1766947946  11.4851962139  # c
     223       1   4  0.0530  22.6956710955  56.4976327867  12.1838466389  # hc
     224       1   4  0.0530  21.6153737194  57.0547251655  10.8349581822  # hc
     225       1   4  0.0530  21.1864205683  55.6923756353  12.1633970270  # hc
     226       1   1 -0.1060  22.5141900518  53.3844753636   7.3066725037  # c
     227       1   4  0.0530  22.6507959210  54.3149104971   6.7433422886  # hc
     228       1   4  0.0530  23.1978215738  52.6006686066   7.0492800924  # hc
     229       1   1  0.0000  21.1723253587  52.8329163680   6.5261155646  # c
     230       1   1 -0.1590  20.6693517574  51.4181390402   6.7947371973  # c
     231       1   4  0.0530  19.9203111323  51.0117523011   6.0919338839  # hc
     232       1   4  0.0530  20.3574094755  51.1721385518   7.7699044608  # hc
     233       1   4  0.0530  21.5615759161  50.7850151191   6.5447270878  # hc
     234       1   3  0.7020  21.5299286671  52.6727466089   4.9616163198  # c_1
     235       1   5 -0.5310  20.8236128301  52.1151368444   4.2125589755  # o_1
     236       1   6 -0.3960  22.6713769916  53.3288605781   4.6024240397  # o_2
     237       1   1  0.0660  23.2130704153  53.2066461218   3.2665457670  # c
     238       1   4  0.0530  22.4595886825  52.8013729529   2.5651019547  # hc
     239       1   4  0.0530  24.0679491661  52.5533635593   3.3000738962  # hc
     240       1   4  0.0530  23.5387514412  54.2153540596   3.0020895407  # hc
     241       1   1 -0.1060  20.1461656427  53.9290332465   6.2658490667  # c
     242       1   4  0.0530  19.6365355299  53.8341733294   5.2815648273  # hc
     243       1   4  0.0530  20.7215998092  54.8584723125   6.3456123513  # hc
     244       1   1  0.0000  18.8915543543  54.2136743533   7.1684652830  # c
     245       1   1 -0.1590  19.3339661138  54.1857341635   8.6541021377  # c
     246       1   4  0.0530  20.0612138732  53.3656530408   8.6766226166  # hc
     247       1   4  0.0530  18.4770846612  54.0651837919   9.4053938083  # hc
     248       1   4  0.0530  19.7334587164  55.1355975566   9.0613519484  # hc
     249       1   3  0.7020  18.5861718838  55.6079167163   6.6152928467  # c_1
     250       1   5 -0.5310  18.9811812826  56.6380362665   7.0312008033  # o_1
     251       1   6 -0.3960  17.7057204304  55.4875528249   5.5454327902  # o_2
     252       1   1  0.0660  17.4327037450  56.4727662791   4.5757301216  # c
     253       1   4  0.0530  16.3891175004  56.7474338544   4.4889548374  # hc
     254       1   4  0.0530  17.8081226149  56.1300223252   3.5984111909  # hc
     255       1   4  0.0530  17.8974113394  57.4055980728   4.8318048292  # hc
     256       1   1 -0.1060  17.7890053090  53.0508206993   7.1013262225  # c
     257       1   4  0.0530  17.1569567456  53.2831037516   7.9708865628  # hc
     258       1   4  0.0530  18.3745972305  52.1895706453   7.4660510009  # hc
     259       1   1  0.0000  16.8804032877  52.5384877285   5.9479340302  # c
     260       1   1 -0.1590  17.6220574590  52.4442837337   4.5953877587  # c
     261       1   4  0.0530  16.9624210038  51.9949781819   3.7304911717  # hc
     262       1   4  0.0530  18.4341257152  51.7742697054   4.6967839490  # hc
     263       1   4  0.0530  17.9048457041  53.5574505989   4.2735351785  # hc
     264       1   3  0.7020  16.5390812501  50.9481725336   6.1244188559  # c_1
     265       1   5 -0.5310  16.0335873614  50.2308677437   5.2977177103  # o_1
     266       1   6 -0.3960  16.9074843327  50.3876275588   7.3412663679  # o_2
     267       1   1  0.0660  16.8206162244  48.9885223111   7.5876192191  # c
     268       1   4  0.0530  15.9557925936  48.4151063836   7.1781358397  # hc
     269       1   4  0.0530  16.9171666980  48.8386170541   8.7302818980  # hc
     270       1   4  0.0530  17.7170420525  48.4838648810   7.0992767138  # hc
     271       1   1 -0.1060  15.4769712469  53.3406160818   5.7084457712  # c
     272       1   4  0.0530  15.7971987229  54.3076584913   5.3401884804  # hc
     273       1   4  0.0530  15.0110859466  52.8741037920   4.7887679888  # hc
     274       1   1  0.0000  14.1967216364  53.6618290441   6.5437693917  # c
     275       1   1 -0.1590  12.9093682626  53.8620437762   5.5747983410  # c
     276       1   4  0.0530  13.0492775136  54.4425383314   4.6840184885  # hc
     277       1   4  0.0530  12.6347933883  52.8168697888   5.2121338057  # hc
     278       1   4  0.0530  12.0791443918  54.2873403731   6.1457109793  # hc
     279       1   3  0.7020  14.0064977422  52.3934959566   7.4216550247  # c_1
     280       1   5 -0.5310  13.0442514957  51.5909026246   7.2607248042  # o_1
     281       1   6 -0.3960  15.0326892510  52.2535588671   8.3421503526  # o_2
     282       1   1  0.0660  14.9345373122  51.2895429830   9.4146134118  # c
     283       1   4  0.0530  14.1594728180  51.6345656765  10.0912009831  # hc
     284       1   4  0.0530  15.9401496341  51.1214467652   9.9077675397  # hc
     285       1   4  0.0530  14.6097032726  50.3657966057   8.8749405333  # hc
     286       1   1 -0.1060  14.4476558855  55.1361719829   7.0466886348  # c
     287       1   4  0.0530  13.6502055679  55.7712885236   6.5702311176  # hc
     288       1   4  0.0530  15.3973975833  55.6090503037   6.5659637398  # hc
     289       1   1  0.0000  14.5997749150  55.6134077654   8.4758849788  # c
     290       1   1 -0.1590  13.4926105653  54.7874153972   9.2724583683  # c
     291       1   4  0.0530  13.3633219427  55.0406630736  10.2625780953  # hc
     292       1   4  0.0530  13.6480126571  53.7133753613   9.3884590765  # hc
     293       1   4  0.0530  12.5345005667  54.7505693751   8.7389604929  # hc
     294       1   3  0.7020  15.8668488121  55.1711546903   9.2712483466  # c_1
     295       1   5 -0.5310  15.9802612842  54.1955097153  10.0196508743  # o_1
     296       1   6 -0.3960  16.8236171908  56.1060617980   9.1396963655  # o_2
     297       1   1  0.0660  17.5893628137  56.3536955373  10.2993332958  # c
     298       1   4  0.0530  17.8984224787  55.4556287447  10.8637454391  # hc
     299       1   4  0.0530  18.4392863028  56.9410600388  10.0124164844  # hc
     300       1   4  0.0530  16.9741411183  56.9894794179  10.8344228443  # hc
     301       1   1 -0.1060  14.4071919852  57.2367610407   8.4062939266  # c
     302       1   4  0.0530  13.3548012391  57.3253789241   8.1932885773  # hc
     303       1   4  0.0530  14.7003392725  57.5189090740   9.4170335499  # hc
     304       1   1  0.0000  14.9209986544  58.4662443312   7.5369961687  # c
     305       1   1 -0.1590  16.3662926248  58.3264998124   7.0582405138  # c
     306       1   4  0.0530  16.6029926957  57.3912638831   6.5551552886  # hc
     307       1   4  0.0530  16.9986988400  58.4315597989   7.9273493622  # hc
     308       1   4  0.0530  16.7432472274  59.1279518716   6.4317233940  # hc
     309       1   3  0.7020  14.0069619318  58.6038272323   6.1467263872  # c_1
     310       1   5 -0.5310  14.4339697452  58.9075943153   5.0664523198  # o_1
     311       1   6 -0.3960  12.6765345407  58.3930130330   6.2935376128  # o_2
     312       1   1  0.0660  11.6738587940  58.6380231952   5.3665020723  # c
     313       1   4  0.0530  11.1435330526  57.6960332840   5.1005456834  # hc
     314       1   4  0.0530  10.9788029966  59.3912297825   5.7594364191  # hc
     315       1   4  0.0530  12.0820155900  59.1092990988   4.4609593021  # hc
     316       1   1 -0.1060  14.5586875685  59.8399060874   8.3580479361  # c
     317       1   4  0.0530  13.4291273602  59.9637324344   8.3135790073  # hc
     318       1   4  0.0530  14.9251881817  60.5607803932   7.6422709496  # hc
     319       1   1  0.0000  15.1613576130  60.2805738970   9.7799473176  # c
     320       1   1 -0.1590  16.6268838627  59.7914433440  10.0635482957  # c
     321       1   4  0.0530  16.6418357947  58.7007795483  10.1548077119  # hc
     322       1   4  0.0530  17.3293340056  60.0890664973   9.2393647309  # hc
     323       1   4  0.0530  17.1123592200  60.0551454167  11.0004840340  # hc
     324       1   3  0.7020  15.1879847164  61.8760739983   9.6138958674  # c_1
     325       1   5 -0.5310  16.1400399907  62.5841999335   9.7672062496  # o_1
     326       1   6 -0.3960  13.9422457617  62.3330611966   9.2772181601  # o_2
     327       1   1  0.0660  13.6458165751  63.6836712843   9.0714420347  # c
     328       1   4  0.0530  12.6137013814  63.7887474941   8.7228879778  # hc
     329       1   4  0.0530  14.3122405522  64.2604763532   8.3538203366  # hc
     330       1   4  0.0530  13.7650234222  64.2020219801   9.9968090706  # hc
     331       1   1 -0.1060  14.1567130377  60.0254179244  11.0604419735  # c
     332       1   4  0.0530  13.1299145344  59.9885978360  10.6919528264  # hc
     333       1   4  0.0530  14.1618868918  60.9971677968  11.5598292663  # hc
     334       1   1  0.0000  14.2626950671  59.1618026554  12.3966794347  # c
     335       1   1 -0.1590  15.2425385639  59.8532262195  13.4323071883  # c
     336       1   4  0.0530  15.3169561291  59.1700027059  14.2736863608  # hc
     337       1   4  0.0530  16.2474116415  59.8456631301  12.9398741771  # hc
     338       1   4  0.0530  15.0223709891  60.8802470159  13.6477489922  # hc
     339       1   3  0.7020  15.1361254412  57.7992585999  12.4604604711  # c_1
     340       1   5 -0.5310  16.3379889691  57.7740554438  12.5695130047  # o_1
     341       1   6 -0.3960  14.4774259036  56.6590512779  12.6332075524  # o_2
     342       1   1  0.0660  15.0699541211  55.3911864218  12.5305881809  # c
     343       1   4  0.0530  15.8677248128  55.3104014427  11.8310501307  # hc
     344       1   4  0.0530  14.3759411814  54.5871975703  12.2448473062  # hc
     345       1   4  0.0530  15.4009838150  55.1093043200  13.5385786865  # hc
     346       1   1 -0.1060  12.8084522547  59.2561483090  13.2905988609  # c
     347       1   4  0.0530  13.1777948899  59.0277438037  14.3310822546  # hc
     348       1   4  0.0530  12.8766981228  60.3933148106  13.2148759028  # hc
     349       1   1  0.0000  11.0643338081  59.1413817459  13.3003576672  # c
     350       1   1 -0.1590  10.6780115047  60.4793123418  14.0059839489  # c
     351       1   4  0.0530  10.6674678570  61.2299065530  13.2445331459  # hc
     352       1   4  0.0530   9.6171709372  60.5680491863  14.4413913422  # hc
     353       1   4  0.0530  11.4062521803  60.8142071836  14.8017592871  # hc
     354       1   3  0.7020  10.7191279158  57.8850283780  14.2571212821  # c_1
     355       1   5 -0.5310   9.9164248363  57.0143659030  13.9861281913  # o_1
     356       1   6 -0.3960  11.3214991904  57.8880185303  15.4530961726  # o_2
     357       1   1  0.0660  11.3333521772  56.7335006358  16.2290271517  # c
     358       1   4  0.0530  10.7255864982  56.7682669689  17.0759166343  # hc
     359       1   4  0.0530  10.9315565931  55.8547554323  15.6991662244  # hc
     360       1   4  0.0530  12.3248759682  56.5603805672  16.6144618433  # hc
     361       1   1 -0.1060   9.9408844700  59.1764705522  12.2304719865  # c
     362       1   4  0.0530  10.0017503797  60.1932515577  11.8064871256  # hc
     363       1   4  0.0530   9.0512302304  59.2492141406  12.8357651971  # hc
     364       1   1  0.0000   9.4468465145  58.3256838515  10.9652825677  # c
     365       1   1 -0.1590   8.3933434435  59.1118974253  10.2250020834  # c
     366       1   4  0.0530   8.6219030062  60.1284699407   9.8223960292  # hc
     367       1   4  0.0530   8.1983401734  58.6237009632   9.3082045807  # hc