units real
atom_style full
boundary p p p

# --- Force Field Styles ---
pair_style lj/class2/coul/long 9.5 9.5
kspace_style pppm 1e-6
dielectric 1.000000
bond_style class2
angle_style class2
dihedral_style class2
improper_style class2
special_bonds lj/coul 0 0 1
pair_modify mix sixthpower tail yes
neighbor 2.0 bin
neigh_modify delay 0 every 1 check yes
neigh_modify one 4000
# KOKKOS: package loaded via -pk kokkos on the command line

read_data /home/arz2/PolyJarvis/data/PLA2/lammps/equil/npt_prod300/npt_prod300_out.data
Reading data file ...
  orthogonal box = (4.5648927 4.5648927 4.5648927) to (41.068231 41.068231 41.068231)
  1 by 1 by 1 MPI processor grid
  reading atoms ...
  4520 atoms
  reading velocities ...
  4520 velocities
  scanning bonds ...
  4 = max bonds/atom
  scanning angles ...
  12 = max angles/atom
  scanning dihedrals ...
  21 = max dihedrals/atom
  scanning impropers ...
  8 = max impropers/atom
  orthogonal box = (4.5648927 4.5648927 4.5648927) to (41.068231 41.068231 41.068231)
  1 by 1 by 1 MPI processor grid
  reading bonds ...
  4510 bonds
  reading angles ...
  8000 angles
  reading dihedrals ...
  9970 dihedrals
  reading impropers ...
  4500 impropers
Finding 1-2 1-3 1-4 neighbors ...
  special bond factors lj:    0        0        1       
  special bond factors coul:  0        0        1       
     4 = max # of 1-2 neighbors
     6 = max # of 1-3 neighbors
    10 = max # of special neighbors
  special bonds CPU = 0.003 seconds
  read_data CPU = 0.277 seconds
include /home/arz2/PolyJarvis/data/PLA2/lammps/equil/emc_build.params
# LAMMPS parameters created by EMC v9.4.4, build Jul 31 2025 20:33:44

# Variables

variable	seed		index	472913
variable	ntotal		index	4520
variable	fshape		index	1
variable	output		index	emc_build
variable	field		index	pcff/pcff
variable	location1	index	/home/arz2/emc/field/
variable	nav		index	0.6022141179
variable	temperature	index	300
variable	radius		index	5
variable	nrelax		index	100
variable	weight_nonbond	index	0.0001
variable	weight_bond	index	0.0001
variable	weight_focus	index	1
variable	cutoff		index	9.5
variable	charge_cutoff	index	9.5
variable	kappa		index	4
variable	density1	index	0.63
variable	lprevious	index	0
variable	lphase		index	45.6331234262
variable	f_poly		index	10
variable	chem_repeat	index	*C(C)C(=O)O*
variable	chem_cap	index	*[H]
variable	lg_repeat	index	9
variable	lg_cap		index	1
variable	norm_poly	index	100
variable	l_poly		index	452
variable	mg_repeat	index	44.05358
variable	mg_cap		index	0
variable	m_poly		index	2202.679
variable	n_poly		index	10
variable	mtotal		index	36052.2247
variable	nphase1		index	4520
variable	mphase1		index	36052.2247
variable	vphase1		index	95025.5927105
variable	lbox		index	45.6331234262
variable	lphase1		index	45.6331234262
variable	lxx		index	45.6331234262
variable	lyy		index	45.6331234262
variable	lzz		index	45.6331234262
variable	lzy		index	0
variable	lzx		index	0
variable	lyx		index	0
variable	vtotal		index	95025.5927105
variable	nl_poly		index	10

# Types

variable	type_c		index	1
variable	type_c1		index	2
variable	type_c_1	index	3
variable	type_hc		index	4
variable	type_ho2	index	5
variable	type_o_1	index	6
variable	type_o_2	index	7

variable	type_bond_c_c	index	1
variable	type_bond_c_c1	index	2
variable	type_bond_c_c_1	index	3
variable	type_bond_c_hc	index	4
variable	type_bond_c1_c_1 index	5
variable	type_bond_c1_hc	index	6
variable	type_bond_c1_o_2 index	7
variable	type_bond_c_1_o_1 index	8
variable	type_bond_c_1_o_2 index	9
variable	type_bond_ho2_o_2 index	10

variable	type_angle_c_c_c_1 index	1
variable	type_angle_c_c_hc index	2
variable	type_angle_c_c1_c_1 index	3
variable	type_angle_c_c1_hc index	4
variable	type_angle_c_c1_o_2 index	5
variable	type_angle_c_c_1_o_1 index	6
variable	type_angle_c_c_1_o_2 index	7
variable	type_angle_c1_c_hc index	8
variable	type_angle_c1_c_1_o_1 index	9
variable	type_angle_c1_c_1_o_2 index	10
variable	type_angle_c1_o_2_c_1 index	11
variable	type_angle_c_1_c_hc index	12
variable	type_angle_c_1_c1_hc index	13
variable	type_angle_c_1_c1_o_2 index	14
variable	type_angle_c_1_o_2_ho2 index	15
variable	type_angle_hc_c_hc index	16
variable	type_angle_hc_c1_o_2 index	17
variable	type_angle_o_1_c_1_o_2 index	18

# Clusters

variable	n0_poly		index	1
variable	n1_poly		index	10
variable	nl_poly		index	10

# Flags

variable	flag_charged	index	1

# Masses

mass		1    12.01115  # c
mass		2    12.01115  # c1
mass		3    12.01115  # c_1
mass		4     1.00797  # hc
mass		5     1.00800  # ho2
mass		6    15.99940  # o_1
mass		7    15.99940  # o_2

# Potentials

pair_modify	mix sixthpower tail yes
special_bonds	lj/coul 0 0 1

# Pair Coeffs

pair_coeff	 1  1    0.05400    4.01000  # c,c
pair_coeff	 2  2    0.05400    4.01000  # c1,c1
pair_coeff	 3  3    0.12000    3.81000  # c_1,c_1
pair_coeff	 4  4    0.02000    2.99500  # hc,hc
pair_coeff	 5  5    0.01300    1.11000  # ho2,ho2
pair_coeff	 6  6    0.26700    3.30000  # o_1,o_1
pair_coeff	 7  7    0.24000    3.42000  # o_2,o_2

# Bond Coeffs

bond_coeff	 1    1.53000  299.67000 -501.77000  679.81000  # c,c
bond_coeff	 2    1.53000  299.67000 -501.77000  679.81000  # c,c1
bond_coeff	 3    1.52020  253.70670 -423.03700  396.90000  # c,c_1
bond_coeff	 4    1.10100  345.00000 -691.89000  844.60000  # c,hc
bond_coeff	 5    1.52020  253.70670 -423.03700  396.90000  # c1,c_1
bond_coeff	 6    1.10100  345.00000 -691.89000  844.60000  # c1,hc
bond_coeff	 7    1.43000  326.72730 -608.53060  689.03330  # c1,o_2
bond_coeff	 8    1.20200  851.14030 -1918.48820 2160.76590  # c_1,o_1
bond_coeff	 9    1.36830  367.14810 -794.79080 1055.23190  # c_1,o_2
bond_coeff	10    0.95200  534.29940 -1287.19370 1889.13960  # ho2,o_2

# Angle Coeffs

angle_coeff	 1  108.52950   51.97470   -9.48510  -10.99850  # c,c,c_1
angle_coeff	 2  110.77000   41.45300  -10.60400    5.12900  # c,c,hc
angle_coeff	 3  108.52950   51.97470   -9.48510  -10.99850  # c,c1,c_1
angle_coeff	 4  110.77000   41.45300  -10.60400    5.12900  # c,c1,hc
angle_coeff	 5  107.41000   63.39070  -13.45130    1.66500  # c,c1,o_2
angle_coeff	 6  123.14510   55.54310  -17.21230    0.13480  # c,c_1,o_1
angle_coeff	 7  100.31820   38.86310   -3.83230   -7.98020  # c,c_1,o_2
angle_coeff	 8  110.77000   41.45300  -10.60400    5.12900  # c1,c,hc
angle_coeff	 9  123.14510   55.54310  -17.21230    0.13480  # c1,c_1,o_1
angle_coeff	10  100.31820   38.86310   -3.83230   -7.98020  # c1,c_1,o_2
angle_coeff	11  113.28800   61.28680  -28.97860    7.99290  # c1,o_2,c_1
angle_coeff	12  107.73360   40.60990  -28.81210    0.00000  # c_1,c,hc
angle_coeff	13  107.73360   40.60990  -28.81210    0.00000  # c_1,c1,hc
angle_coeff	14  109.50000   60.00000    0.00000    0.00000  # c_1,c1,o_2
angle_coeff	15  112.87400   53.25120  -14.99790    2.46400  # c_1,o_2,ho2
angle_coeff	16  107.66000   39.64100  -12.92100   -2.43180  # hc,c,hc
angle_coeff	17  107.68800   65.48010  -10.34980    5.88660  # hc,c1,o_2
angle_coeff	18  120.79700   95.34460  -32.28690    6.37780  # o_1,c_1,o_2

# BondBond Coeffs

angle_coeff	 1 bb    5.41990    1.53000    1.52020  # c,c,c_1
angle_coeff	 2 bb    3.38720    1.53000    1.10100  # c,c,hc
angle_coeff	 3 bb    5.41990    1.53000    1.52020  # c,c1,c_1
angle_coeff	 4 bb    3.38720    1.53000    1.10100  # c,c1,hc
angle_coeff	 5 bb   23.26470    1.53000    1.43000  # c,c1,o_2
angle_coeff	 6 bb   46.06850    1.52020    1.20200  # c,c_1,o_1
angle_coeff	 7 bb   19.10690    1.52020    1.36830  # c,c_1,o_2
angle_coeff	 8 bb    3.38720    1.53000    1.10100  # c1,c,hc
angle_coeff	 9 bb   46.06850    1.52020    1.20200  # c1,c_1,o_1
angle_coeff	10 bb   19.10690    1.52020    1.36830  # c1,c_1,o_2
angle_coeff	11 bb   45.45030    1.43000    1.36830  # c1,o_2,c_1
angle_coeff	12 bb    0.71150    1.52020    1.10100  # c_1,c,hc
angle_coeff	13 bb    0.71150    1.52020    1.10100  # c_1,c1,hc
angle_coeff	14 bb    0.00000    1.52020    1.43000  # c_1,c1,o_2
angle_coeff	15 bb    9.56710    1.36830    0.95200  # c_1,o_2,ho2
angle_coeff	16 bb    5.33160    1.10100    1.10100  # hc,c,hc
angle_coeff	17 bb    5.64540    1.10100    1.43000  # hc,c1,o_2
angle_coeff	18 bb  121.48800    1.20200    1.36830  # o_1,c_1,o_2

# BondAngle Coeffs

angle_coeff	 1 ba   18.16780   15.87580    1.53000    1.52020  # c,c,c_1
angle_coeff	 2 ba   20.75400   11.42100    1.53000    1.10100  # c,c,hc
angle_coeff	 3 ba   18.16780   15.87580    1.53000    1.52020  # c,c1,c_1
angle_coeff	 4 ba   20.75400   11.42100    1.53000    1.10100  # c,c1,hc
angle_coeff	 5 ba   23.39200   47.94870    1.53000    1.43000  # c,c1,o_2
angle_coeff	 6 ba   34.99820   37.12980    1.52020    1.20200  # c,c_1,o_1
angle_coeff	 7 ba    1.34350    4.69780    1.52020    1.36830  # c,c_1,o_2
angle_coeff	 8 ba   20.75400   11.42100    1.53000    1.10100  # c1,c,hc
angle_coeff	 9 ba   34.99820   37.12980    1.52020    1.20200  # c1,c_1,o_1
angle_coeff	10 ba    1.34350    4.69780    1.52020    1.36830  # c1,c_1,o_2
angle_coeff	11 ba   41.91160   46.46080    1.43000    1.36830  # c1,o_2,c_1
angle_coeff	12 ba   12.46320    9.17650    1.52020    1.10100  # c_1,c,hc
angle_coeff	13 ba   12.46320    9.17650    1.52020    1.10100  # c_1,c1,hc
angle_coeff	14 ba    0.00000    0.00000    1.52020    1.43000  # c_1,c1,o_2
angle_coeff	15 ba   37.91630   21.43640    1.36830    0.95200  # c_1,o_2,ho2
angle_coeff	16 ba   18.10300   18.10300    1.10100    1.10100  # hc,c,hc
angle_coeff	17 ba    8.68640   57.49750    1.10100    1.43000  # hc,c1,o_2
angle_coeff	18 ba   76.26140   71.87610    1.20200    1.36830  # o_1,c_1,o_2

# Dihedral Coeffs

dihedral_coeff	 1    0.04420    0.00000    0.02920    0.00000    0.05620    0.00000  # c,c,c_1,o_1
dihedral_coeff	 2    1.83410    0.00000    2.06030    0.00000   -0.01950    0.00000  # c,c,c_1,o_2
dihedral_coeff	 3    0.04420    0.00000    0.02920    0.00000    0.05620    0.00000  # c,c1,c_1,o_1
dihedral_coeff	 4    1.83410    0.00000    2.06030    0.00000   -0.01950    0.00000  # c,c1,c_1,o_2
dihedral_coeff	 5    0.00000    0.00000    0.00000    0.00000   -0.19320    0.00000  # c,c1,o_2,c_1
dihedral_coeff	 6   -2.55940    0.00000    2.20130    0.00000    0.03250    0.00000  # c,c_1,o_2,c1
dihedral_coeff	 7   -2.55940    0.00000    2.20130    0.00000    0.03250    0.00000  # c1,c_1,o_2,c1
dihedral_coeff	 8   -2.91260    0.00000    1.01990    0.00000   -0.20770    0.00000  # c1,c_1,o_2,ho2
dihedral_coeff	 9    0.00000    0.00000    2.20890    0.00000    0.00000    0.00000  # c1,o_2,c_1,o_1
dihedral_coeff	10   -0.02280    0.00000    0.02800    0.00000   -0.18630    0.00000  # c_1,c,c,hc
dihedral_coeff	11   -0.02280    0.00000    0.02800    0.00000   -0.18630    0.00000  # c_1,c1,c,hc
dihedral_coeff	12    0.00000    0.00000    0.00000    0.00000   -0.19320    0.00000  # c_1,c1,o_2,c_1
dihedral_coeff	13    0.00000    0.00000    0.00000    0.00000   -0.19320    0.00000  # c_1,o_2,c1,hc
dihedral_coeff	14   -0.14320    0.00000    0.06170    0.00000   -0.10830    0.00000  # hc,c,c,hc
dihedral_coeff	15   -0.14320    0.00000    0.06170    0.00000   -0.10830    0.00000  # hc,c,c1,hc
dihedral_coeff	16    0.00000    0.00000    0.00000    0.00000   -0.25000    0.00000  # hc,c,c1,o_2
dihedral_coeff	17   -0.18040    0.00000    0.00120    0.00000    0.03710    0.00000  # hc,c,c_1,o_1
dihedral_coeff	18   -0.63590    0.00000    1.48070    0.00000   -0.04380    0.00000  # hc,c,c_1,o_2
dihedral_coeff	19   -0.18040    0.00000    0.00120    0.00000    0.03710    0.00000  # hc,c1,c_1,o_1
dihedral_coeff	20   -0.63590    0.00000    1.48070    0.00000   -0.04380    0.00000  # hc,c1,c_1,o_2
dihedral_coeff	21    0.00000    0.00000    2.20890    0.00000    0.00000    0.00000  # ho2,o_2,c_1,o_1
dihedral_coeff	22    0.00000  180.00000    0.00000    0.00000    0.00000    0.00000  # o_1,c_1,c1,o_2
dihedral_coeff	23    0.00000  180.00000    0.00000    0.00000    0.00000    0.00000  # o_2,c1,c_1,o_2

# MiddleBondTorsion Coeffs

dihedral_coeff	 1 mbt    0.33880   -0.10960    0.12190    1.52020  # c,c,c_1,o_1
dihedral_coeff	 2 mbt  -17.32800   -5.79000   -3.21140    1.52020  # c,c,c_1,o_2
dihedral_coeff	 3 mbt    0.33880   -0.10960    0.12190    1.52020  # c,c1,c_1,o_1
dihedral_coeff	 4 mbt  -17.32800   -5.79000   -3.21140    1.52020  # c,c1,c_1,o_2
dihedral_coeff	 5 mbt   -5.43500    0.00000    0.00000    1.43000  # c,c1,o_2,c_1
dihedral_coeff	 6 mbt    1.34450    3.55150   -4.92020    1.36830  # c,c_1,o_2,c1
dihedral_coeff	 7 mbt    1.34450    3.55150   -4.92020    1.36830  # c1,c_1,o_2,c1
dihedral_coeff	 8 mbt    2.14520    0.54820   -2.36930    1.36830  # c1,c_1,o_2,ho2
dihedral_coeff	 9 mbt    4.26000    0.00000    0.00000    1.36830  # c1,o_2,c_1,o_1
dihedral_coeff	10 mbt   -3.50390    1.24580   -0.76100    1.53000  # c_1,c,c,hc
dihedral_coeff	11 mbt   -3.50390    1.24580   -0.76100    1.53000  # c_1,c1,c,hc
dihedral_coeff	12 mbt    0.00000    0.00000    0.00000    1.43000  # c_1,c1,o_2,c_1
dihedral_coeff	13 mbt    0.00000    0.00000    0.00000    1.43000  # c_1,o_2,c1,hc
dihedral_coeff	14 mbt  -14.26100   -0.53220   -0.48640    1.53000  # hc,c,c,hc
dihedral_coeff	15 mbt  -14.26100   -0.53220   -0.48640    1.53000  # hc,c,c1,hc
dihedral_coeff	16 mbt    0.00000    0.00000    0.00000    1.53000  # hc,c,c1,o_2
dihedral_coeff	17 mbt    0.23590    0.91390    0.95940    1.52020  # hc,c,c_1,o_1
dihedral_coeff	18 mbt  -13.76860   -2.59590    1.19340    1.52020  # hc,c,c_1,o_2
dihedral_coeff	19 mbt    0.23590    0.91390    0.95940    1.52020  # hc,c1,c_1,o_1
dihedral_coeff	20 mbt  -13.76860   -2.59590    1.19340    1.52020  # hc,c1,c_1,o_2
dihedral_coeff	21 mbt    4.26000    0.00000    0.00000    1.36830  # ho2,o_2,c_1,o_1
dihedral_coeff	22 mbt    0.00000    0.00000    0.00000    1.52020  # o_1,c_1,c1,o_2
dihedral_coeff	23 mbt    0.00000    0.00000    0.00000    1.52020  # o_2,c1,c_1,o_2

# EndBondTorsion Coeffs

dihedral_coeff	 1 ebt    0.26540    0.05030    0.10460   -0.28100    0.08160   -0.15220    1.53000    1.20200  # c,c,c_1,o_1
dihedral_coeff	 2 ebt    0.00000    0.00000    0.00000    0.00000    0.00000    0.00000    1.53000    1.36830  # c,c,c_1,o_2
dihedral_coeff	 3 ebt    0.26540    0.05030    0.10460   -0.28100    0.08160   -0.15220    1.53000    1.20200  # c,c1,c_1,o_1
dihedral_coeff	 4 ebt    0.00000    0.00000    0.00000    0.00000    0.00000    0.00000    1.53000    1.36830  # c,c1,c_1,o_2
dihedral_coeff	 5 ebt    0.00000    0.00000    0.00000    0.00000    0.00000    0.00000    1.53000    1.36830  # c,c1,o_2,c_1
dihedral_coeff	 6 ebt    0.00000    0.00000    0.00000    0.00000    0.00000    0.00000    1.52020    1.43000  # c,c_1,o_2,c1
dihedral_coeff	 7 ebt    0.00000    0.00000    0.00000    0.00000    0.00000    0.00000    1.52020    1.43000  # c1,c_1,o_2,c1
dihedral_coeff	 8 ebt    0.00000    0.00000    0.00000    0.00000    0.00000    0.00000    1.52020    0.95200  # c1,c_1,o_2,ho2
dihedral_coeff	 9 ebt    0.00000    0.00000    0.00000    0.00000    0.00000    0.00000    1.43000    1.20200  # c1,o_2,c_1,o_1
dihedral_coeff	10 ebt   -0.02040    0.36280   -0.44260   -0.00970   -0.03150   -0.07550    1.52020    1.10100  # c_1,c,c,hc
dihedral_coeff	11 ebt   -0.02040    0.36280   -0.44260   -0.00970   -0.03150   -0.07550    1.52020    1.10100  # c_1,c1,c,hc
dihedral_coeff	12 ebt    0.00000    0.00000    0.00000    0.00000    0.00000    0.00000    1.52020    1.36830  # c_1,c1,o_2,c_1
dihedral_coeff	13 ebt    0.00000    0.00000    0.00000    0.00000    0.00000    0.00000    1.36830    1.10100  # c_1,o_2,c1,hc
dihedral_coeff	14 ebt    0.21300    0.31200    0.07770    0.21300    0.31200    0.07770    1.10100    1.10100  # hc,c,c,hc
dihedral_coeff	15 ebt    0.21300    0.31200    0.07770    0.21300    0.31200    0.07770    1.10100    1.10100  # hc,c,c1,hc
dihedral_coeff	16 ebt    0.00000    0.00000    0.00000    0.00000    0.00000    0.00000    1.10100    1.43000  # hc,c,c1,o_2
dihedral_coeff	17 ebt    1.21430    0.28310    0.39160   -0.22980    0.03540    0.38530    1.10100    1.20200  # hc,c,c_1,o_1
dihedral_coeff	18 ebt    0.00000    0.00000    0.00000    0.00000    0.00000    0.00000    1.10100    1.36830  # hc,c,c_1,o_2
dihedral_coeff	19 ebt    1.21430    0.28310    0.39160   -0.22980    0.03540    0.38530    1.10100    1.20200  # hc,c1,c_1,o_1
dihedral_coeff	20 ebt    0.00000    0.00000    0.00000    0.00000    0.00000    0.00000    1.10100    1.36830  # hc,c1,c_1,o_2
dihedral_coeff	21 ebt    0.00000    0.00000    0.00000    0.00000    0.00000    0.00000    0.95200    1.20200  # ho2,o_2,c_1,o_1
dihedral_coeff	22 ebt    0.00000    0.00000    0.00000    0.00000    0.00000    0.00000    1.20200    1.43000  # o_1,c_1,c1,o_2
dihedral_coeff	23 ebt    0.00000    0.00000    0.00000    0.00000    0.00000    0.00000    1.43000    1.36830  # o_2,c1,c_1,o_2

# AngleTorsion Coeffs

dihedral_coeff	 1 at    0.08850   -1.37030   -0.54520    0.67500    0.59650    0.67250  108.52950  123.14510  # c,c,c_1,o_1
dihedral_coeff	 2 at    0.00000    0.00000    0.00000    0.00000    0.00000    0.00000  108.52950  100.31820  # c,c,c_1,o_2
dihedral_coeff	 3 at    0.08850   -1.37030   -0.54520    0.67500    0.59650    0.67250  108.52950  123.14510  # c,c1,c_1,o_1
dihedral_coeff	 4 at    0.00000    0.00000    0.00000    0.00000    0.00000    0.00000  108.52950  100.31820  # c,c1,c_1,o_2
dihedral_coeff	 5 at    0.00000    0.00000    0.00000    0.00000    0.00000    0.00000  107.41000  113.28800  # c,c1,o_2,c_1
dihedral_coeff	 6 at    0.00000    0.00000    0.00000    0.00000    0.00000    0.00000  100.31820  113.28800  # c,c_1,o_2,c1
dihedral_coeff	 7 at    0.00000    0.00000    0.00000    0.00000    0.00000    0.00000  100.31820  113.28800  # c1,c_1,o_2,c1
dihedral_coeff	 8 at    0.00000    0.00000    0.00000    0.00000    0.00000    0.00000  100.31820  112.87400  # c1,c_1,o_2,ho2
dihedral_coeff	 9 at    0.00000    0.00000    0.00000    0.00000    0.00000    0.00000  113.28800  120.79700  # c1,o_2,c_1,o_1
dihedral_coeff	10 at   -0.74660   -0.94480   -0.63210    0.01620    1.42110   -1.40920  108.52950  110.77000  # c_1,c,c,hc
dihedral_coeff	11 at   -0.74660   -0.94480   -0.63210    0.01620    1.42110   -1.40920  108.52950  110.77000  # c_1,c1,c,hc
dihedral_coeff	12 at    0.00000    0.00000    0.00000    0.00000    0.00000    0.00000  109.50000  113.28800  # c_1,c1,o_2,c_1
dihedral_coeff	13 at    0.00000    0.00000    0.00000    0.00000    0.00000    0.00000  113.28800  107.68800  # c_1,o_2,c1,hc
dihedral_coeff	14 at   -0.80850    0.55690   -0.24660   -0.80850    0.55690   -0.24660  110.77000  110.77000  # hc,c,c,hc
dihedral_coeff	15 at   -0.80850    0.55690   -0.24660   -0.80850    0.55690   -0.24660  110.77000  110.77000  # hc,c,c1,hc
dihedral_coeff	16 at    0.00000    0.00000    0.00000    0.00000    0.00000    0.00000  110.77000  107.41000  # hc,c,c1,o_2
dihedral_coeff	17 at    9.12990   -0.48470    0.35820   -1.49460    0.73080   -0.20830  107.73360  123.14510  # hc,c,c_1,o_1
dihedral_coeff	18 at    0.00000    0.00000    0.00000    0.00000    0.00000    0.00000  107.73360  100.31820  # hc,c,c_1,o_2
dihedral_coeff	19 at    9.12990   -0.48470    0.35820   -1.49460    0.73080   -0.20830  107.73360  123.14510  # hc,c1,c_1,o_1
dihedral_coeff	20 at    0.00000    0.00000    0.00000    0.00000    0.00000    0.00000  107.73360  100.31820  # hc,c1,c_1,o_2
dihedral_coeff	21 at    0.00000    0.00000    0.00000    0.00000    0.00000    0.00000  112.87400  120.79700  # ho2,o_2,c_1,o_1
dihedral_coeff	22 at    0.00000    0.00000    0.00000    0.00000    0.00000    0.00000  123.14510  109.50000  # o_1,c_1,c1,o_2
dihedral_coeff	23 at    0.00000    0.00000    0.00000    0.00000    0.00000    0.00000  109.50000  100.31820  # o_2,c1,c_1,o_2

# AngleAngleTorsion Coeffs

dihedral_coeff	 1 aat   -8.01900  108.52950  123.14510  # c,c,c_1,o_1
dihedral_coeff	 2 aat    0.00000  108.52950  100.31820  # c,c,c_1,o_2
dihedral_coeff	 3 aat   -8.01900  108.52950  123.14510  # c,c1,c_1,o_1
dihedral_coeff	 4 aat    0.00000  108.52950  100.31820  # c,c1,c_1,o_2
dihedral_coeff	 5 aat    0.00000  107.41000  113.28800  # c,c1,o_2,c_1
dihedral_coeff	 6 aat    0.00000  100.31820  113.28800  # c,c_1,o_2,c1
dihedral_coeff	 7 aat    0.00000  100.31820  113.28800  # c1,c_1,o_2,c1
dihedral_coeff	 8 aat    0.00000  100.31820  112.87400  # c1,c_1,o_2,ho2
dihedral_coeff	 9 aat    0.00000  113.28800  120.79700  # c1,o_2,c_1,o_1
dihedral_coeff	10 aat   -5.36240  108.52950  110.77000  # c_1,c,c,hc
dihedral_coeff	11 aat   -5.36240  108.52950  110.77000  # c_1,c1,c,hc
dihedral_coeff	12 aat    0.00000  109.50000  113.28800  # c_1,c1,o_2,c_1
dihedral_coeff	13 aat    0.00000  113.28800  107.68800  # c_1,o_2,c1,hc
dihedral_coeff	14 aat  -12.56400  110.77000  110.77000  # hc,c,c,hc
dihedral_coeff	15 aat  -12.56400  110.77000  110.77000  # hc,c,c1,hc
dihedral_coeff	16 aat    0.00000  110.77000  107.41000  # hc,c,c1,o_2
dihedral_coeff	17 aat  -15.34960  107.73360  123.14510  # hc,c,c_1,o_1
dihedral_coeff	18 aat    0.00000  107.73360  100.31820  # hc,c,c_1,o_2
dihedral_coeff	19 aat  -15.34960  107.73360  123.14510  # hc,c1,c_1,o_1
dihedral_coeff	20 aat    0.00000  107.73360  100.31820  # hc,c1,c_1,o_2
dihedral_coeff	21 aat    0.00000  112.87400  120.79700  # ho2,o_2,c_1,o_1
dihedral_coeff	22 aat    0.00000  123.14510  109.50000  # o_1,c_1,c1,o_2
dihedral_coeff	23 aat    0.00000  109.50000  100.31820  # o_2,c1,c_1,o_2

# BondBond13 Coeffs

dihedral_coeff	 1 bb13    0.00000    1.53000    1.20200  # c,c,c_1,o_1
dihedral_coeff	 2 bb13    0.00000    1.53000    1.36830  # c,c,c_1,o_2
dihedral_coeff	 3 bb13    0.00000    1.53000    1.20200  # c,c1,c_1,o_1
dihedral_coeff	 4 bb13    0.00000    1.53000    1.36830  # c,c1,c_1,o_2
dihedral_coeff	 5 bb13    0.00000    1.53000    1.36830  # c,c1,o_2,c_1
dihedral_coeff	 6 bb13    0.00000    1.52020    1.43000  # c,c_1,o_2,c1
dihedral_coeff	 7 bb13    0.00000    1.52020    1.43000  # c1,c_1,o_2,c1
dihedral_coeff	 8 bb13    0.00000    1.52020    0.95200  # c1,c_1,o_2,ho2
dihedral_coeff	 9 bb13    0.00000    1.43000    1.20200  # c1,o_2,c_1,o_1
dihedral_coeff	10 bb13    0.00000    1.52020    1.10100  # c_1,c,c,hc
dihedral_coeff	11 bb13    0.00000    1.52020    1.10100  # c_1,c1,c,hc
dihedral_coeff	12 bb13    0.00000    1.52020    1.36830  # c_1,c1,o_2,c_1
dihedral_coeff	13 bb13    0.00000    1.36830    1.10100  # c_1,o_2,c1,hc
dihedral_coeff	14 bb13    0.00000    1.10100    1.10100  # hc,c,c,hc
dihedral_coeff	15 bb13    0.00000    1.10100    1.10100  # hc,c,c1,hc
dihedral_coeff	16 bb13    0.00000    1.10100    1.43000  # hc,c,c1,o_2
dihedral_coeff	17 bb13    0.00000    1.10100    1.20200  # hc,c,c_1,o_1
dihedral_coeff	18 bb13    0.00000    1.10100    1.36830  # hc,c,c_1,o_2
dihedral_coeff	19 bb13    0.00000    1.10100    1.20200  # hc,c1,c_1,o_1
dihedral_coeff	20 bb13    0.00000    1.10100    1.36830  # hc,c1,c_1,o_2
dihedral_coeff	21 bb13    0.00000    0.95200    1.20200  # ho2,o_2,c_1,o_1
dihedral_coeff	22 bb13    0.00000    1.20200    1.43000  # o_1,c_1,c1,o_2
dihedral_coeff	23 bb13    0.00000    1.43000    1.36830  # o_2,c1,c_1,o_2

# Improper Coeffs

improper_coeff	 1    0.00000    0.00000  # c,c,hc,c_1
improper_coeff	 2    0.00000    0.00000  # c,c,hc,hc
improper_coeff	 3    0.00000    0.00000  # c,c1,hc,hc
improper_coeff	 4    0.00000    0.00000  # c,c_1,hc,hc
improper_coeff	 5    0.00000    0.00000  # c,hc,hc,hc
improper_coeff	 6    0.00000    0.00000  # c1,c,hc,c_1
improper_coeff	 7    0.00000    0.00000  # c1,c,hc,o_2
improper_coeff	 8    0.00000    0.00000  # c1,c,o_2,c_1
improper_coeff	 9    0.00000    0.00000  # c1,c_1,hc,o_2
improper_coeff	10   46.92640    0.00000  # c_1,c,o_2,o_1
improper_coeff	11   46.92640    0.00000  # c_1,c1,o_2,o_1

# AngleAngle Coeffs

improper_coeff	 1 aa    1.08270   -1.82020    2.04030  110.77000  108.52950  107.73360  # c,c,hc,c_1
improper_coeff	 2 aa    0.27380   -0.48250    0.27380  110.77000  110.77000  107.66000  # c,c,hc,hc
improper_coeff	 3 aa    0.27380   -0.48250    0.27380  110.77000  110.77000  107.66000  # c,c1,hc,hc
improper_coeff	 4 aa   -3.38670   -3.49760   -3.38670  107.73360  107.73360  107.66000  # c,c_1,hc,hc
improper_coeff	 5 aa   -0.31570   -0.31570   -0.31570  107.66000  107.66000  107.66000  # c,hc,hc,hc
improper_coeff	 6 aa    1.08270   -1.82020    2.04030  110.77000  108.52950  107.73360  # c1,c,hc,c_1
improper_coeff	 7 aa    0.00000    0.00000    0.00000  110.77000  107.41000  107.68800  # c1,c,hc,o_2
improper_coeff	 8 aa    0.00000    0.00000    0.00000  107.41000  108.52950  109.50000  # c1,c,o_2,c_1
improper_coeff	 9 aa    0.00000    0.00000    0.00000  107.73360  109.50000  107.68800  # c1,c_1,hc,o_2
improper_coeff	10 aa    0.00000    0.00000    0.00000  100.31820  123.14510  120.79700  # c_1,c,o_2,o_1
improper_coeff	11 aa    0.00000    0.00000    0.00000  100.31820  123.14510  120.79700  # c_1,c1,o_2,o_1


# --- Thermo Output ---
thermo_style custom step time temp press enthalpy etotal ke pe ebond eangle edihed eimp evdwl ecoul elong etail vol lx ly lz density pxx pyy pzz
thermo_modify flush yes
thermo 500

# --- Velocity initialization at T_START (once only — Rule A) ---
velocity all create 600.0 627564 mom yes rot yes dist gaussian

# --- Temperature staircase (inherits momenta across steps — Rule A) ---
variable temps index 600 580 560 540 520 500 480 460 440 420 400 380 360 340 320 300 280 260 240 220 200 180 160 140 120 100
label TEMP_LOOP
  timestep 1
  fix npt_tg all npt temp ${temps} ${temps} 100 iso 1.0 1.0 1000.0
  fix npt_tg all npt temp 600 ${temps} 100 iso 1.0 1.0 1000.0
  fix npt_tg all npt temp 600 600 100 iso 1.0 1.0 1000.0
  run 200000
PPPM Kokkos initialization ...
  using 12-bit tables for long-range coulomb
  G vector (1/distance) = 0.34316179
  grid = 45 45 45
  stencil order = 5
  estimated absolute RMS force accuracy = 0.00024931228
  estimated relative force accuracy = 7.5079654e-07
  using double precision cuFFT
  3d grid and FFT values/proc = 140608 91125
Generated 21 of 21 mixed pair_coeff terms from sixthpower/sixthpower mixing rule
Neighbor list info ...
  update: every = 1 steps, delay = 0 steps, check = yes
  max neighbors/atom: 4000, page size: 100000
  master list distance cutoff = 11.5
  ghost atom cutoff = 11.5
  binsize = 11.5, bins = 4 4 4
  1 neighbor lists, perpetual/occasional/extra = 1 0 0
  (1) pair lj/class2/coul/long/kk, perpetual
      attributes: full, newton off, kokkos_device
      pair build: full/bin/kk/device
      stencil: full/bin/3d
      bin: kk/device
Per MPI rank memory allocation (min/avg/max) = 37.36 | 37.36 | 37.36 Mbytes
   Step          Time           Temp          Press         Enthalpy        TotEng         KinEng         PotEng         E_bond        E_angle        E_dihed        E_impro         E_vdwl         E_coul         E_long         E_tail         Volume           Lx             Ly             Lz          Density          Pxx            Pyy            Pzz      
         0   0              600            4363.9814      23523.802      20428.118      8082.1684      12345.95       2245.7125      3723.4434     -4054.5351      145.22679     -2522.832       44824.218     -32015.284     -388.81911      48640.467      36.503338      36.503338      36.503338      1.2307884      2903.6399      3081.8259      7106.4783    
       500   500            589.0184       2002.4083      25853.452      24371.608      7934.2431      16437.365      3641.3682      5420.4082     -3770.9928      301.93919     -2046.4563      44887.156     -31996.058     -372.71042      50742.728      37.021835      37.021835      37.021835      1.1797971      3612.87        350.66845      2043.6864    
      1000   1000           593.24409     -1163.3973      23649.152      24534.582      7991.1644      16543.417      3649.9752      5440.358      -3702.2654      261.30538     -2056.8248      44938.966     -31988.097     -362.40602      52185.511      37.369445      37.369445      37.369445      1.147179      -1439.1814     -634.32328     -1416.6873    
      1500   1500           601.42369     -1566.5561      23766.632      24954.881      8101.3458      16853.535      3809.6816      5512.853      -3697.2985      245.73685     -1948.3331      44910.168     -31979.273     -363.62993      52009.865      37.327472      37.327472      37.327472      1.1510532     -2546.9925     -2732.5207      579.84492    
      2000   2000           605.63541     -322.20934      24790.273      25033.855      8158.0789      16875.776      3904.924       5514.7664     -3701.3598      301.05426     -2004.6006      44848.613     -31987.621     -364.84956      51836.005      37.285832      37.285832      37.285832      1.1549139      3688.5764     -3454.831      -1200.3734    
      2500   2500           606.99737     -1637.7467      23719.92       24969.721      8176.4249      16793.296      3753.1535      5523.4283     -3733.069       290.41649     -1909.9219      44855.734     -31986.445     -361.43257      52326.063      37.402964      37.402964      37.402964      1.1440976     -1781.8746     -541.1772      -2590.1882    
      3000   3000           603.49692     -5.9050409      24969.649      24974.176      8129.2728      16844.903      3762.4856      5355.576      -3677.2059      317.66892     -1873.3955      44944.714     -31984.94      -359.8132       52561.561      37.458992      37.458992      37.458992      1.1389715      1656.3469     -473.37733     -1200.6847    
      3500   3500           601.09661     -241.89872      24664.9        24852.357      8096.94        16755.417      3778.1475      5403.3011     -3746.4772      325.03638     -1930.7394      44910.571     -31984.423     -355.92136      53136.298      37.59503       37.59503       37.59503       1.1266521      126.25476      2333.119      -3185.0699    
      4000   4000           586.09549      182.18861      24936.584      24796.735      7894.8708      16901.864      3670.3949      5581.5054     -3690.3627      298.48262     -1907.7724      44928.044     -31978.428     -359.32005      52633.7        37.476121      37.476121      37.476121      1.1374105      930.49197     -405.81928      21.893152    
      4500   4500           596.84895      339.6778       24979.035      24718.623      8039.7229      16678.9        3640.4758      5345.476      -3713.1767      306.39209     -1872.2937      44946.489     -31974.462     -359.7717       52567.625      37.460432      37.460432      37.460432      1.1388402      101.18248      786.48078      131.37014    
      5000   5000           599.19912      329.96208      25251.241      24996.164      8071.3803      16924.784      3795.3545      5460.7557     -3711.3278      297.76412     -1920.2626      44984.03      -31981.53      -356.79083      53006.809      37.564466      37.564466      37.564466      1.1294044      606.80158     -553.39133      936.47599    
      5500   5500           601.67848      547.43467      25508.867      25082.622      8104.778       16977.844      3729.8295      5540.5993     -3724.5082      280.48013     -1799.4617      44923.535     -31972.63      -354.23767      53388.855      37.654499      37.654499      37.654499      1.1213225     -585.3103       188.23277      2039.3815    
      6000   6000           599.77606      354.53476      25154.137      24881.787      8079.1518      16802.635      3643.1737      5384.4682     -3664.5229      299.02454     -1839.5695      44964.374     -31984.312     -359.04831      52673.534      37.485573      37.485573      37.485573      1.1365503      1320.2114     -250.04934     -6.5577976    
      6500   6500           597.30691      739.77161      25502.956      24933.91       8045.8917      16888.018      3773.814       5477.0152     -3710.3073      281.94822     -1897.2303      44941.216     -31978.437     -358.56813      52744.072      37.502299      37.502299      37.502299      1.1350303      968.4797      -718.12894      1968.9641    
      7000   7000           603.52042     -576.66126      24700.336      25148.69       8129.5895      17019.101      3837.5346      5523.0945     -3673.0422      306.18339     -1929.1129      44924.335     -31969.892     -354.74881      53311.929      37.636405      37.636405      37.636405      1.1229405      578.80532     -4394.6315      2085.8424    
      7500   7500           605.63585     -441.62395      24773.39       25113.474      8158.0849      16955.389      3817.7837      5508.9656     -3728.7297      286.30169     -1855.7703      44900.709     -31973.87      -358.16839      52802.938      37.516245      37.516245      37.516245      1.133765      -640.76253      40.523892     -724.63322    
      8000   8000           604.4013       1885.1545      26496.823      25050.542      8141.4552      16909.087      3774.7798      5398.1624     -3705.3746      324.59586     -1851.6547      44923.731     -31955.153     -359.51378      52605.337      37.469388      37.469388      37.469388      1.1380237      1288.3131      295.02347      4072.1268    
      8500   8500           598.98989     -778.42998      24376.492      24983.656      8068.5619      16915.094      3841.4458      5437.8518     -3776.1834      313.13609     -1793.0755      44860.206     -31968.288     -353.61846      53482.343      37.676464      37.676464      37.676464      1.1193624     -1184.4231      845.9643      -1996.8311    
      9000   9000           601.66269      1258.0018      25931.382      24966.766      8104.5653      16862.2        3778.2673      5463.2123     -3776.1411      303.48288     -1877.9897      44937.596     -31966.227     -359.70633      52577.178      37.462701      37.462701      37.462701      1.1386332      1926.5151     -979.53979      2827.0302    
      9500   9500           590.03205      1750.5028      26351.121      24995.312      7947.8973      17047.414      3821.8161      5416.4058     -3710.1123      261.95384     -1745.7892      44965.837     -31962.697     -356.11108      53107.989      37.588352      37.588352      37.588352      1.1272527      1093.0509     -220.24317      4378.7008    
     10000   10000          611.24639      887.48993      25961.08       25274.351      8233.6603      17040.691      3897.8226      5435.0009     -3692.7327      295.51059     -1840.6104      44918.544     -31972.844     -356.45097      53057.349      37.576401      37.576401      37.576401      1.1283286      116.07819     -619.5219       3165.9135    
     10500   10500          599.3763       1103.3373      25838.253      24990.951      8073.767       16917.184      3727.5018      5519.4741     -3687.5293      267.0714      -1888.775       44942.62      -31963.179     -359.16289      52656.731      37.481586      37.481586      37.481586      1.136913      -955.0613       4158.9446      106.1285     
     11000   11000          596.99804     -144.34672      24834.678      24945.572      8041.7312      16903.841      3730.9065      5334.7888     -3650.4734      297.39311     -1783.421       44940.213     -31965.566     -359.02097      52677.545      37.486524      37.486524      37.486524      1.1364638     -508.99957      156.85358     -80.894177    
     11500   11500          600.48238      2702.0339      27136.269      25029.549      8088.6661      16940.882      3661.9384      5547.9349     -3744.6695      284.61865     -1803.3253      44955.81      -31961.425     -353.75703      53461.393      37.671544      37.671544      37.671544      1.119801       3729.6643      1868.8213      2507.6162    
     12000   12000          598.76508     -1695.455       23867.158      25182.066      8065.5337      17116.532      3809.6045      5579.2291     -3677.3199      315.29476     -1838.6865      44903.451     -31975.04      -355.6414       53178.127      37.604892      37.604892      37.604892      1.1257659     -889.21306     -2174.4435     -2022.7085    
     12500   12500          600.39648      1398.964       26002.862      24934.985      8087.5091      16847.476      3777.8524      5447.7343     -3721.9638      310.1145      -1942.1888      44940.291     -31964.363     -361.33229      52340.585      37.406424      37.406424      37.406424      1.1437802      214.31147      2202.2719      1780.3086    
     13000   13000          596.62756      1887.7415      26622.605      25155.878      8036.7407      17119.138      3933.9714      5436.0521     -3703.455       323.50243     -1827.4418      44918.523     -31962.015     -354.98867      53275.907      37.627926      37.627926      37.627926      1.1236997      3014.9872      1130.1857      1518.0517    
     13500   13500          598.62895      309.76669      25319.847      25077.949      8063.6999      17014.249      3829.2296      5424.9081     -3679.0213      275.86882     -1859.0558      44969.969     -31947.65      -353.20275      53545.29       37.69124       37.69124       37.69124       1.1180465      1549.6707     -807.88517      187.51459    
     14000   14000          591.13539      1163.0258      25706.056      24799.575      7962.7596      16836.815      3676.2425      5402.4852     -3749.3874      283.67069     -1755.3759      44943.121     -31963.941     -353.87665      53443.321      37.667299      37.667299      37.667299      1.1201797     -15.695487      769.25214      2735.5207    
     14500   14500          592.80424      28.896582      25015.615      24993.045      7985.2394      17007.806      3726.6816      5490.0307     -3585.9184      294.22496     -1856.9732      44914.583     -31974.823     -353.13924      53554.92       37.693499      37.693499      37.693499      1.1178454     -278.42095      267.02706      98.083628    
     15000   15000          592.49081      1569.1844      26191.941      24966.228      7981.0174      16985.211      3811.5368      5322.0958     -3705.2446      286.62714     -1679.5177      44919.43      -31969.716     -353.10728      53559.766      37.694636      37.694636      37.694636      1.1177443      599.21344      3314.8915      793.44816    
     15500   15500          605.88643      492.56297      25477.245      25094.098      8161.4603      16932.637      3653.7979      5463.7932     -3613.2482      280.73261     -1848.4744      44963.815     -31967.778     -354.58277      53336.893      37.642279      37.642279      37.642279      1.1224149      2822.0105     -463.67577     -880.64587    
     16000   16000          604.89992      1517.8232      26472.985      25289.036      8148.1717      17140.864      3978.7371      5417.1467     -3761.6231      280.63532     -1711.7056      44918.811     -31981.138     -353.59754      53485.507      37.677207      37.677207      37.677207      1.1192962      650.64914      2074.8078      1828.0127    
     16500   16500          606.78651      370.95061      25492.411      25204.661      8173.5846      17031.076      3838.6347      5370.6755     -3669.7208      272.87762     -1697.0874      44894.679     -31978.982     -355.5674       53189.194      37.607501      37.607501      37.607501      1.1255317     -1255.3847      614.88307      1753.3534    
     17000   17000          602.77658      1033.5574      25934.936      25135.319      8119.5697      17015.75       3702.2118      5526.7372     -3689.0198      302.56216     -1834.1087      44983.719     -31976.353     -356.51202      53048.263      37.574256      37.574256      37.574256      1.1285218      340.97652      1626.9912      1132.7044    
     17500   17500          596.9856       1917.1848      26504.301      25008.119      8041.5636      16966.555      3581.3881      5423.2393     -3660.0863      293.8476      -1736.9612      45013.729     -31948.601     -353.4277       53511.21       37.683242      37.683242      37.683242      1.1187585      5072.7179      610.27234      68.564236    
     18000   18000          604.94245      2045.2353      26496.773      24920.399      8148.7446      16771.655      3675.8257      5314.6214     -3650.4038      276.81753     -1803.0263      44942.583     -31984.763     -357.85365      52849.379      37.52724       37.52724       37.52724       1.1327687      2657.6416      3130.1763      347.88806    
     18500   18500          596.81045      215.37526      24990.427      24823.922      8039.2042      16784.718      3787.5004      5387.3874     -3685.6367      280.15228     -1910.8949      44897.244     -31971.035     -356.77102      53009.752      37.565161      37.565161      37.565161      1.1293417      1804.8271     -272.77106     -885.93022    
     19000   19000          617.31405     -1089.8845      24326.365      25178.268      8315.3935      16862.875      3754.5175      5397.6846     -3690.9435      267.95692     -1805.5539      44907.555     -31968.342     -352.86744      53596.17       37.703175      37.703175      37.703175      1.1169851     -1799.4502      343.27612     -1813.4796    
     19500   19500          586.97396      1269.4692      26081.033      25092.653      7906.704       17185.949      3783.2513      5571.2098     -3595.4717      299.18915     -1846.4641      44950.889     -31976.655     -354.25787      53385.811      37.653783      37.653783      37.653783      1.1213864      579.32189      1106.7785      2122.3073    
     20000   20000          592.41761     -412.80704      24650.042      24969.581      7980.0315      16989.55       3682.4032      5435.5365     -3581.7723      314.2475      -1799.6918      44914.466     -31975.64      -356.32335      53076.352      37.580887      37.580887      37.580887      1.1279246     -851.91771     -1513.3661      1126.8626    
     20500   20500          593.61733      1200.8214      25828.552      24900.712      7996.1921      16904.52       3627.1747      5450.2025     -3693.6483      253.20332     -1734.9127      44966.877     -31964.377     -356.96549      52980.873      37.558338      37.558338      37.558338      1.1299573      634.63514     -29.1875        2997.0167    
     21000   21000          596.60941     -105.14353      24947.543      25030.002      8036.4962      16993.506      3790.8394      5437.517      -3717.1358      271.40233     -1744.8429      44929.556     -31973.83      -351.69417      53774.97       37.745055      37.745055      37.745055      1.1132711     -781.432        1463.6685     -997.66705    
     21500   21500          609.90078     -11.869903      25305.663      25315.017      8215.5347      17099.482      3897.4687      5444.7677     -3693.7976      254.51049     -1763.2267      44938.046     -31978.286     -349.99898      54035.425      37.805895      37.805895      37.805895      1.1079051     -1993.5271      744.50311      1213.4143    
     22000   22000          606.41598      334.05873      25490.234      25230.874      8168.5934      17062.28       3742.7139      5505.8231     -3633.4062      286.96673     -1749.4175      44890.106     -31980.506     -355.25587      53235.836      37.61849       37.61849       37.61849       1.1245455      1238.7364     -3014.6652      2778.1049    
     22500   22500          603.46178      2900.0262      27416.3        25141.631      8128.7996      17012.831      3676.9261      5518.6102     -3665.1231      313.22828     -1799.2044      44947.578     -31979.184     -351.64542      53782.425      37.746799      37.746799      37.746799      1.1131168      2414.4859      4532.4361      1753.1567    
     23000   23000          609.23064     -604.59264      24677.023      25151.438      8206.5077      16944.93       3741.1195      5495.1644     -3718.022       306.80674     -1889.1335      44972.003     -31963.008     -351.50063      53804.58       37.751981      37.751981      37.751981      1.1126585      99.521154     -1086.1735     -827.12559    
     23500   23500          594.52994     -764.05793      24453.592      25051.361      8008.4851      17042.876      3769.0055      5393.7416     -3648.8078      294.08989     -1750.9053      44960.304     -31974.552     -352.54478      53645.223      37.714673      37.714673      37.714673      1.1159637     -1634.135       300.11063     -958.14942    
     24000   24000          600.41283      766.58496      25690.397      25092.538      8087.7293      17004.809      3751.791       5519.4065     -3693.9837      279.4577      -1782.0977      44897.906     -31967.672     -353.65752      53476.435      37.675077      37.675077      37.675077      1.119486       50.078019      1959.5942      290.08264    
     24500   24500          596.14926     -909.44956      24337.884      25055.778      8030.2978      17025.481      3786.7039      5441.9692     -3762.0365      312.22079     -1769.3154      44981.652     -31965.713     -349.41339      54125.983      37.827003      37.827003      37.827003      1.1060514     -2128.8184      2340.8659     -2940.3961    
     25000   25000          584.85789      1131.6326      25678.112      24787.893      7878.1999      16909.693      3819.2917      5383.2024     -3673.277       261.26223     -1873.1198      44948.245     -31955.912     -350.61444      53940.572      37.783761      37.783761      37.783761      1.1098533      2419.6066      975.8895      -0.59830206   
     25500   25500          592.7189      -943.92278      24184.277      24918.311      7984.09        16934.221      3660.9356      5552.8922     -3657.5257      283.15172     -1823.1838      44885.994     -31968.043     -354.68419      53321.642      37.63869       37.63869       37.63869       1.1227359      1124.5982     -981.39319     -2974.9734    
     26000   26000          605.59937      1019.5966      25971.641      25173.263      8157.5934      17015.67       3626.3934      5543.9404     -3644.9705      280.35758     -1798.8431      44975.63      -31966.839     -352.24178      53691.369      37.725484      37.725484      37.725484      1.1150046     -478.55418      2196.8849      1340.459     
     26500   26500          590.07547     -1546.9869      23791.906      25002.338      7948.4822      17053.856      3824.5662      5356.5045     -3590.6248      319.58292     -1818.229       44927.273     -31965.217     -352.50687      53650.992      37.716025      37.716025      37.716025      1.1158437     -2092.4043     -1093.6003     -1454.956     
     27000   27000          586.55967      670.32709      25614.522      25089.917      7901.1233      17188.794      3851.8082      5554.497      -3718.4703      307.69805     -1770.9147      44925.961     -31961.786     -352.432        53662.39       37.718696      37.718696      37.718696      1.1156067      886.90557      2004.04       -879.96432    
     27500   27500          599.29868      135.68647      25316.107      25208.357      8072.7215      17135.636      3718.4276      5531.4759     -3613.7702      306.81773     -1783.1318      44940.498     -31964.682     -347.32946      54450.733      37.902505      37.902505      37.902505      1.0994549     -575.67821     -952.17337      1934.911     
     28000   28000          591.68495      2101.7724      26664.187      25033.025      7970.1623      17062.863      3770.61        5548.5134     -3743.4489      309.43196     -1774.7774      44925.086     -31972.552     -355.39371      53215.189      37.613626      37.613626      37.613626      1.1249819      2553.1111      1901.6531      1850.5529    
     28500   28500          591.77167     -488.55897      24420.338      24800.371      7971.3305      16829.04       3693.3609      5471.7776     -3720.6667      291.53638     -1900.1995      44962.636     -31969.405     -354.58253      53336.93       37.642287      37.642287      37.642287      1.1224141      731.42475     -423.31479     -1773.7869    
     29000   29000          606.33267      1541.2217      26538.08       25332.591      8167.4712      17165.12       3694.3686      5482.8302     -3642.596       319.25413     -1721.7694      44998.978     -31965.946     -352.63303      53631.798      37.711527      37.711527      37.711527      1.1162431      3060.1244      1204.0471      359.49354    
     29500   29500          604.35064     -729.06733      24622.829      25187.709      8140.7728      17046.936      3744.9053      5527.7433     -3680.6327      274.8685      -1791.6436      44937.035     -31965.34      -355.98633      53126.601      37.592743      37.592743      37.592743      1.1268578     -2413.5434     -656.6063       882.94771    
     30000   30000          612.52005      433.42958      25461.627      25126.149      8250.8169      16875.332      3699.637       5498.5501     -3719.2389      300.51193     -1813.6497      44885.437     -31975.915     -356.34864      53072.586      37.579998      37.579998      37.579998      1.1280046     -824.4532       2439.822      -315.0801     
     30500   30500          588.1551       1181.9479      25852.839      24936.684      7922.6143      17014.07       3592.6097      5625.7711     -3732.0783      290.28725     -1726.3866      44938.291     -31974.424     -355.83683      53148.921      37.598006      37.598006      37.598006      1.1263845      1023.4751      347.84373      2174.5249    
     31000   31000          588.23642     -176.03299      24814.795      24953.409      7923.7097      17029.7        3786.0753      5425.0488     -3671.727       288.66298     -1806.1942      44980.648     -31972.814     -350.27218      53993.279      37.796063      37.796063      37.796063      1.1087699     -805.94221      248.33723      29.506015    
     31500   31500          602.88368      1351.1874      26151.679      25097.224      8121.0124      16976.212      3800.1385      5423.8408     -3721.8808      297.1127      -1755.8299      44900.266     -31967.435     -353.43455      53510.171      37.682998      37.682998      37.682998      1.1187802      2218.1127      981.74774      853.70179    
     32000   32000          602.97702      1160.2283      26023.008      25119.715      8122.2697      16997.445      3824.517       5407.7744     -3667.5372      264.33164     -1801.0038      44944.138     -31974.775     -354.27112      53383.813      37.653313      37.653313      37.653313      1.1214284      301.0947       4243.5556     -1063.9655    
     32500   32500          604.9017      -662.43156      24696.877      25220.82       8148.1956      17072.625      3712.0834      5567.0417     -3668.6914      284.35088     -1746.3424      44896.457     -31972.274     -348.72105      54233.444      37.85202       37.85202       37.85202       1.1038599     -1641.1224     -870.53082      524.3586     
     33000   33000          608.15381     -31.549932      25270.7        25295.465      8192.0025      17103.462      3733.1789      5439.2065     -3635.5168      313.53263     -1730.2498      44959.853     -31976.542     -351.39105      53821.359      37.755905      37.755905      37.755905      1.1123116      884.76075      172.18415     -1151.5947    
     33500   33500          596.24213      436.9266       25312.147      24973.8        8031.5488      16942.252      3785.264       5416.7789     -3722.8956      306.10513     -1783.5731      44910.123     -31969.551     -356.17925      53097.824      37.585954      37.585954      37.585954      1.1274685      230.21309      1053.4599      27.106827    
     34000   34000          603.77996     -2935.8916      22847.601      25154.271      8133.0855      17021.186      3771.4611      5574.113      -3636.313       288.21887     -1882.2327      44877.564     -31971.626     -351.05539      53872.818      37.767934      37.767934      37.767934      1.1112491     -1625.0674     -2514.157      -4668.4504    
     34500   34500          607.4961       127.5131       25304.205      25203.781      8183.143       17020.639      3741.7443      5411.9859     -3689.6839      297.2711      -1714.0945      44940.15      -31966.734     -350.21854      54001.548      37.797993      37.797993      37.797993      1.1086001     -624.76141      1472.7606     -465.45985    
     35000   35000          616.26106     -469.72814      24859.213      25227.627      8301.2095      16926.417      3762.2534      5508.5476     -3712.6495      272.67696     -1826.0667      44884.367     -31962.712     -351.66722      53779.091      37.746019      37.746019      37.746019      1.1131858      1648.5073     -1985.2348     -1072.457     
     35500   35500          595.40298     -2031.4073      23439.054      25032.014      8020.2452      17011.768      3772.7608      5437.2751     -3662.5692      300.78498     -1810.5909      44944.963     -31970.856     -351.73326      53768.994      37.743656      37.743656      37.743656      1.1133949     -3464.7667     -2741.1528      111.6977     
     36000   36000          597.19736      2833.4036      27165.795      24964.698      8044.416       16920.282      3737.8205      5338.0565     -3746.5304      324.34595     -1743.3459      44968.385     -31958.45      -355.05086      53266.576      37.625729      37.625729      37.625729      1.1238966      2948.6232      4538.0284      1013.5591    
     36500   36500          593.53602      389.23877      25222.181      24920.397      7995.0967      16925.3        3787.1845      5371.7576     -3676.7939      291.53275     -1809.3743      44926.744     -31965.75      -355.74698      53162.345      37.601172      37.601172      37.601172      1.1261001      1719.8556     -174.06487     -378.07439    
     37000   37000          597.14361     -458.86738      24498.668      24857.587      8043.692       16813.895      3547.0846      5395.2656     -3577.3969      282.52066     -1798.2763      44939.139     -31974.442     -352.62463      53633.075      37.711826      37.711826      37.711826      1.1162165     -1770.52       -250.61406      644.5319     
     37500   37500          595.53615     -958.54647      24025.99       24776.713      8022.0391      16754.674      3679.297       5248.0851     -3676.0985      283.68671     -1755.3329      44938.065     -31963.028     -352.17192      53702.02       37.727979      37.727979      37.727979      1.1147834      389.5858      -399.80535     -2865.4199    
     38000   38000          607.67803     -1064.0901      24253.602      25072.765      8185.5936      16887.172      3811.6822      5355.7138     -3678.9158      294.10118     -1866.4147      44938.091     -31967.086     -358.2854       52785.694      37.512161      37.512161      37.512161      1.1341354     -34.840055     -1600.3322     -1557.0981    
     38500   38500          599.01927     -288.84914      24884.266      25111.134      8068.9576      17042.176      3696.429       5485.1734     -3664.8482      321.54816     -1727.8911      44894.533     -31962.768     -351.17128      53855.04       37.763779      37.763779      37.763779      1.111616       1307.9012     -892.9892      -1281.4594    
     39000   39000          599.49325      1694.2691      26397.353      25059.949      8075.3423      16984.607      3717.433       5585.7265     -3714.515       267.7624      -1797.1299      44889.868     -31964.539     -349.4146       54125.796      37.826959      37.826959      37.826959      1.1060553      2433.4247      1179.9328      1469.4497    
     39500   39500          601.75404     -528.32467      24585.153      25000.292      8105.7957      16894.496      3723.4446      5412.8        -3707.1793      289.33077     -1810.4636      44948.319     -31961.756     -351.01742      53878.646      37.769296      37.769296      37.769296      1.1111289     -1132.6886      795.4325      -1247.7179    
     40000   40000          605.831       -613.08428      24597.725      25077.238      8160.7135      16916.524      3602.8333      5460.7119     -3631.4732      315.83337     -1771.7754      44902.956     -31962.562     -352.6482       53629.491      37.710986      37.710986      37.710986      1.1162911      887.30378     -708.86453     -2017.6921    
     40500   40500          580.53597     -1212.388       23743.389      24700.355      7819.9824      16880.372      3757.1638      5450.7687     -3800.6873      295.49236     -1791.8681      44930.162     -31960.659     -349.43514      54122.614      37.826218      37.826218      37.826218      1.1061203      903.49892     -2103.5174     -2437.1456    
     41000   41000          592.53117      1524.8442      26415.844      25218.646      7981.5611      17237.085      3833.2557      5585.8512     -3720.9842      332.20663     -1768.9296      44943.325     -31967.64      -351.30205      53834.993      37.759093      37.759093      37.759093      1.1120299      1364.2103      773.9574       2436.3649    
     41500   41500          603.87969     -770.04988      24653.103      25260.569      8134.4289      17126.14       3751.4762      5479.0714     -3651.7555      309.84853     -1760.8976      44963.15      -31964.753     -349.63764      54091.268      37.818914      37.818914      37.818914      1.1067613     -643.69592     -2587.7155      921.26182    
     42000   42000          597.00743      180.6752       25415.152      25272.821      8041.8576      17230.963      3902.1712      5498.4836     -3721.9664      303.33232     -1695.2334      44913.167     -31968.992     -350.12181      54016.468      37.801473      37.801473      37.801473      1.1082939     -1595.5307      339.91779      1797.6385    
     42500   42500          586.33246     -1469.8567      23855.175      25003.153      7898.0627      17105.09       3798.017       5397.5578     -3614.6671      311.07602     -1745.0222      44909.976     -31951.848     -353.15286      53552.854      37.693015      37.693015      37.693015      1.1178885     -2103.1282     -183.84114     -2122.6008    
     43000   43000          598.13879      1101.8437      25867.394      25009.334      8057.0974      16952.237      3657.1226      5484.2462     -3623.2654      267.90389     -1806.7757      44940.387     -31967.382     -354.17967      53397.598      37.656554      37.656554      37.656554      1.1211389      1325.1563      486.61364      1493.7612    
     43500   43500          594.34504     -78.87105       25255.128      25318.391      8005.9944      17312.396      3686.9307      5636.181      -3583.0625      335.24248     -1791.5458      44988.507     -31959.857     -343.8687       54998.735      38.029233      38.029233      38.029233      1.0885        -360.49724      1258.7723     -1134.8883    
     44000   44000          610.24997      1091.0866      26046.775      25188.815      8220.2384      16968.576      3706.7942      5390.6314     -3642.4304      267.30219     -1729.3921      44941.75      -31966.079     -350.76249      53917.804      37.778444      37.778444      37.778444      1.110322       1736.1136      1295.8715      241.27462    
     44500   44500          588.52114     -848.81489      24362.63       25029.311      7927.5449      17101.766      3789.7648      5422.203      -3655.7795      309.54221     -1743.8422      44951.302     -31971.424     -351.16899      53855.391      37.763861      37.763861      37.763861      1.1116087     -2116.5158     -1917.013       1487.0842    
     45000   45000          623.14661      2525.4245      27436.134      25434.485      8393.9597      17040.526      3723.6093      5397.2082     -3643.4954      314.77568     -1744.3441      44971.694     -31978.922     -347.99079      54347.253      37.878479      37.878479      37.878479      1.1015483      2808.0101      2135.5446      2632.7187    
     45500   45500          607.36488      113.76749      25470.383      25380.337      8181.3753      17198.962      3735.1677      5538.7745     -3723.9116      293.09799     -1655.5676      44973.749     -31962.348     -348.47996      54270.965      37.860747      37.860747      37.860747      1.1030967     -397.35453      807.7781      -69.12109     
     46000   46000          591.42379      1092.1194      25828.216      24971.558      7966.6444      17004.913      3831.1134      5394.0423     -3734.2888      307.94052     -1750.6391      44917.358     -31960.612     -351.6283       53785.043      37.747411      37.747411      37.747411      1.1130626      2282.2485      1783.5574     -789.44784    
     46500   46500          605.63294      86.592375      25177.784      25109.22       8158.0457      16951.174      3723.2165      5466.2305     -3728.2059      323.77078     -1781.5938      44908.118     -31960.362     -348.34095      54292.622      37.865783      37.865783      37.865783      1.1026567      2502.4047     -2148.8758     -93.751695    
     47000   47000          595.88717      264.6456       25439.529      25229.988      8026.7674      17203.22       3903.126       5495.2599     -3647.3151      283.50131     -1793.4393      44927.083     -31964.996     -348.34968      54291.26       37.865466      37.865466      37.865466      1.1026843      1282.1283     -626.68189      138.49036    
     47500   47500          608.45186     -885.29364      24818.547      25512.774      8196.0173      17316.756      3848.2613      5567.2135     -3648.4551      284.07475     -1796.8326      45010.388     -31947.894     -351.72806      53769.788      37.743842      37.743842      37.743842      1.1133784     -1099.3576     -1550.2451     -6.2782664    
     48000   48000          592.93754     -1390.695       24011.796      25112.323      7987.035       17125.287      3701.3172      5533.1472     -3651.5796      306.42036     -1744.3341      44943.261     -31962.944     -348.53993      54261.627      37.858576      37.858576      37.858576      1.1032865      1028.8096     -1945.3737     -3255.5208    
     48500   48500          593.87699     -1016.6892      24288.729      25091.379      7999.6897      17091.689      3782.1091      5476.0208     -3591.3286      271.1522      -1807.5954      44932.275     -31970.943     -349.36793      54133.026      37.828644      37.828644      37.828644      1.1059075      544.79847     -486.13022     -3108.736     
     49000   49000          592.89749     -2308.361       23325.473      25108.677      7986.4956      17122.182      3795.7245      5515.1484     -3614.5377      271.51926     -1845.8943      44964.072     -31963.851     -357.04576      52968.963      37.555524      37.555524      37.555524      1.1302113     -2664.499      -1574.7897     -2685.7943    
     49500   49500          599.50578      942.56694      25691.486      24960.052      8075.5111      16884.541      3626.9053      5345.7676     -3605.0077      290.13638     -1777.3647      44971.173     -31967.069     -355.43379      53209.188      37.612212      37.612212      37.612212      1.1251087      228.38377      1855.9578      743.35929    
     50000   50000          596.54323      976.69362      25807.92       25042.515      8035.6047      17006.91       3675.4508      5556.4374     -3630.0694      270.94143     -1866.0002      44967.695     -31967.545     -351.95567      53735.016      37.735704      37.735704      37.735704      1.1140989      1287.9991     -61.435861      1703.5176    
     50500   50500          595.77362      391.17272      25461.733      25154.458      8025.2379      17129.221      3691.7224      5589.0974     -3668.8813      295.6512      -1805.7441      44986.889     -31959.513     -351.12671      53861.877      37.765377      37.765377      37.765377      1.1114749      376.66724     -854.06953      1650.9204    
     51000   51000          605.1263       1979.711       26818.225      25262.71       8151.2211      17111.489      3699.0284      5465.8291     -3573.5421      274.57159     -1749.0937      44959.181     -31964.486     -351.03374      53876.142      37.768711      37.768711      37.768711      1.1111806      1534.972       1012.6391      3391.5219    
     51500   51500          602.23703      838.59757      25851.445      25198.889      8112.3018      17086.587      3692.6342      5384.8057     -3570.4033      323.08225     -1777.158       44987.694     -31954.068     -354.45135      53356.669      37.64693       37.64693       37.64693       1.1219989      1042.0924     -402.67787      1876.3781    
     52000   52000          605.34032     -129.41886      25132.028      25235.162      8154.1039      17081.058      3756.8273      5436.642      -3679.3379      290.59129     -1664.5885      44903.681     -31962.757     -346.11307      54642.096      37.946855      37.946855      37.946855      1.0956044      201.884        925.72315     -1515.8637    
     52500   52500          588.86339      2410.7055      26858.948      24945.543      7932.1551      17013.388      3636.6906      5408.924      -3665.8207      274.37624     -1656.6874      44980.668     -31964.763     -347.50307      54423.529      37.896192      37.896192      37.896192      1.1000044      2980.3669      307.46169      3944.2879    
     53000   53000          594.57025      1241.4338      26023.521      25047.862      8009.0281      17038.833      3633.7009      5459.5288     -3638.6701      310.48881     -1739.3717      44980.327     -31967.171     -350.9509       53888.859      37.771682      37.771682      37.771682      1.1109183      2421.2301      651.49677      651.57448    
     53500   53500          612.78433      557.50797      25701.353      25263.239      8254.3769      17008.862      3564.7511      5597.3292     -3662.9477      276.78151     -1751.4958      44943.089     -31958.644     -350.98294      53883.94       37.770533      37.770533      37.770533      1.1110198      1092.3078     -750.03516      1330.2513    
     54000   54000          596.43806      1033.6111      25966.514      25156.52       8034.1881      17122.332      3768.4576      5484.2201     -3664.5728      293.66103     -1740.5753      44949.654     -31968.513     -351.96255      53733.965      37.735458      37.735458      37.735458      1.1141207     -441.57084      2406.1453      1136.2589    
     54500   54500          597.99764     -1400.9256      24097.844      25199.464      8055.1961      17144.268      3725.2029      5587.549      -3644.8685      270.48409     -1777.7261      44954.781     -31971.154     -350.75557      53918.869      37.778693      37.778693      37.778693      1.1103        -2524.9649     -198.45475     -1479.357     
     55000   55000          603.89006     -2095.8515      23566.646      25233.213      8134.5685      17098.644      3698.5477      5496.0055     -3649.2596      287.50104     -1700.8066      44922.873     -31956.217     -346.86377      54523.837      37.919459      37.919459      37.919459      1.0979807     -1047.8371     -3544.9707     -1694.7467    
     55500   55500          606.21143      407.35942      25666.491      25346.269      8165.838       17180.431      3683.8627      5466.8122     -3580.3533      307.18554     -1683.4902      44956.041     -31969.626     -350.87161      53901.037      37.774527      37.774527      37.774527      1.1106674     -1091.8697     -132.95904      2446.907     
     56000   56000          597.30833     -1778.6629      23742.128      25163.993      8045.9108      17118.083      3786.3601      5499.9673     -3648.6546      274.70659     -1749.6621      44919.863     -31964.498     -345.02971      54813.667      37.98653       37.98653       37.98653       1.0921751     -597.20634     -1587.5747     -3151.2077    
     56500   56500          603.57403     -1033.1825      24314.195      25141.783      8130.3116      17011.472      3700.9644      5434.8471     -3638.5845      291.0156      -1764.4675      44927.182     -31939.485     -344.33701      54923.934      38.011985      38.011985      38.011985      1.0899824     -630.31792     -96.839158     -2372.3903    
     57000   57000          614.4577       410.18844      25815.208      25491.053      8276.9177      17214.135      3849.2937      5419.8933     -3624.5701      275.71979     -1686.575       44934.211     -31953.837     -349.02163      54186.737      37.841151      37.841151      37.841151      1.1048113      347.05095      816.64652      66.867849    
     57500   57500          609.46784      661.60083      25884.578      25362.346      8209.7028      17152.643      3719.1742      5461.2884     -3644.0311      323.33525     -1719.6186      44965.062     -31952.567     -349.42454      54124.256      37.826601      37.826601      37.826601      1.1060867      457.64115      1462.683       64.478385    
     58000   58000          603.69374      882.25942      25831.706      25137.519      8131.9241      17005.595      3689.5147      5475.1798     -3656.17        284.47024     -1790.8001      44959.417     -31956.017     -350.54302      53951.562      37.786327      37.786327      37.786327      1.1096272      697.70992      255.72437      1693.344     
     58500   58500          600.11014     -1539.1102      23937.044      25146.164      8083.652       17062.512      3737.5079      5393.1651     -3575.6327      333.99415     -1823.0156      44966.243     -31969.749     -351.0924       53867.14       37.766607      37.766607      37.766607      1.1113663     -432.81813     -2065.7912     -2118.7211    
     59000   59000          617.17047      916.82491      26087.349      25363.693      8313.4594      17050.234      3750.824       5402.9081     -3655.7119      309.65994     -1778.7948      44986.656     -31965.308     -349.44225      54121.513      37.825961      37.825961      37.825961      1.1061428      1573.6085      2163.3705     -986.50426    
     59500   59500          602.5869      -410.86501      24954.075      25276.436      8117.0146      17159.421      3794.8027      5563.6985     -3641.6828      268.45098     -1799.2844      44924.703     -31951.268     -351.5431       53798.079      37.750461      37.750461      37.750461      1.1127929      323.57654     -552.28147     -1003.8901    
     60000   60000          612.55841      795.75894      25836.789      25216.831      8251.3337      16965.497      3763.7584      5354.5336     -3654.8666      298.75564     -1801.8028      44967.62      -31962.501     -354.03009      53420.158      37.661856      37.661856      37.661856      1.1206654      2157.2064      1944.0643     -1713.9939    
     60500   60500          600.60398      636.79049      25643.507      25140.68       8090.3042      17050.375      3823.7051      5398.5032     -3722.5078      295.65197     -1708.9399      44923.58      -31959.617     -349.30055      54143.468      37.831076      37.831076      37.831076      1.1056943      1834.2246      4.141004       72.005869    
     61000   61000          586.97862      2538.9874      26850.2        24859.456      7906.7667      16952.689      3598.6504      5398.4549     -3622.17        284.22296     -1724.771       44985.046     -31966.744     -351.77606      53762.452      37.742126      37.742126      37.742126      1.1135303      1241.5309      3983.3263      2392.1051    
     61500   61500          597.83317     -34.577423      25054.33       25081.442      8052.9806      17028.462      3792.3777      5446.7903     -3694.6757      288.9846      -1813.9452      44967.793     -31958.863     -351.7615       53764.677      37.742646      37.742646      37.742646      1.1134843      1736.0236     -1180.8637     -658.89212    
     62000   62000          605.87957     -1718.8944      23794.461      25152.595      8161.3678      16991.227      3731.0912      5479.2978     -3698.8552      274.73667     -1746.786       44914.142     -31962.4       -349.08222      54177.332      37.838961      37.838961      37.838961      1.1050031     -1830.2026     -1724.5945     -1601.886     
     62500   62500          601.4519      -2137.1141      23562.275      25249.692      8101.7259      17147.966      3660.6719      5542.3106     -3617.0712      304.5329      -1696.3322      44914.459     -31960.605     -349.32254      54140.06       37.830282      37.830282      37.830282      1.1057639     -2591.9221     -2763.4115     -1056.0088    
     63000   63000          604.13715     -3335.6489      22684.707      25300.754      8137.897       17162.857      3797.9903      5524.1983     -3618.2752      310.87841     -1860.8846      44959.393     -31950.442     -351.68669      53776.114      37.745322      37.745322      37.745322      1.1132475     -3532.7982     -3275.6288     -3198.5196    
     63500   63500          600.80048      1531.4581      26398.897      25209.766      8092.9511      17116.815      3653.5237      5503.1212     -3615.4758      300.47797     -1718.398       44956.476     -31962.91      -355.2193       53241.317      37.619781      37.619781      37.619781      1.1244298      3052.9624      2257.527      -716.11503    
     64000   64000          592.37816      866.32369      25832.611      25149.733      7979.5         17170.233      3733.9586      5476.9494     -3661.431       298.22004     -1700.3491      44976.64      -31953.755     -349.91168      54048.906      37.809039      37.809039      37.809039      1.1076287      838.43496      1912.7407     -152.20462    
     64500   64500          602.49091      1182.3214      26150.524      25223.011      8115.7217      17107.29       3716.8809      5533.0737     -3649.0904      303.61551     -1794.0493      44956.284     -31959.425     -351.59036      53790.848      37.748769      37.748769      37.748769      1.1129425      3182.2523      773.98522     -409.2733     
     65000   65000          603.00036     -337.24826      25085.861      25350.913      8122.584       17228.329      3796.2482      5460.535      -3569.4955      291.70786     -1711.5898      44923.667     -31962.744     -350.94602      53889.608      37.771857      37.771857      37.771857      1.1109029     -480.96353      0.66167479    -531.44291    
     65500   65500          598.58734     -901.29514      24473.22       25187.055      8063.1394      17123.916      3662.9223      5453.5914     -3572.5511      323.36936     -1748.5057      44970.221     -31965.131     -348.24953      54306.874      37.869096      37.869096      37.869096      1.1023673      1708.4602     -3116.5383     -1295.8073    
     66000   66000          600.4292      -968.30233      24420.979      25187.744      8087.9498      17099.794      3795.8886      5484.5972     -3639.2267      291.44291     -1772.6527      44888.212     -31948.467     -348.31299      54296.981      37.866796      37.866796      37.866796      1.1025682     -2165.7847     -553.6341      -185.48815    
     66500   66500          590.55105     -37.753541      24940.36       24970.258      7954.8883      17015.369      3562.0453      5422.9544     -3541.3672      287.77163     -1720.9967      44972.12      -31967.158     -348.29601      54299.627      37.867411      37.867411      37.867411      1.1025144     -229.55661     -261.15414      377.45013    
     67000   67000          606.05644      739.9164       25741.205      25155.603      8163.7503      16991.853      3650.7491      5420.7163     -3619.2387      282.38165     -1710.433       44936.539     -31968.862     -348.49906      54267.99       37.860055      37.860055      37.860055      1.1031572      2415.499      -339.80262      144.05284    
     67500   67500          600.83063      399.93894      25614.348      25300.366      8093.3572      17207.008      3697.7092      5478.4929     -3562.8342      295.3677      -1720.9873      44969.366     -31950.106     -351.32529      53831.432      37.758261      37.758261      37.758261      1.1121035     -1074.2824      1551.3904      722.70875    
     68000   68000          604.26715      1692.6765      26507.658      25174.09       8139.6481      17034.441      3650.8218      5426.8295     -3579.1755      245.59445     -1767.362       45007.922     -31950.189     -350.09002      54021.372      37.802617      37.802617      37.802617      1.1081933      1084.8443      1508.3446      2484.8405    
     68500   68500          600.76145     -217.5423       24944.831      25116.71       8092.4253      17024.284      3691.1314      5424.5079     -3618.6011      301.7425      -1805.6922      44969.559     -31938.363     -349.09482      54175.377      37.838506      37.838506      37.838506      1.105043      -1355.3634      460.3286       242.40789    
     69000   69000          598.54016      1147.0927      26020.356      25125.179      8062.5039      17062.675      3788.5522      5413.0478     -3629.7328      279.02776     -1734.615       44897.444     -31951.048     -353.43601      53509.95       37.682946      37.682946      37.682946      1.1187849      1621.3172      818.66452      1001.2964    
     69500   69500          616.67296     -534.91754      24926.828      25344.804      8306.7579      17038.046      3752.7657      5412.6177     -3638.9821      290.53813     -1796.5492      44977.541     -31959.885     -352.9854       53578.26       37.698974      37.698974      37.698974      1.1173585     -393.25914      558.4211      -1769.9146    
     70000   70000          601.47345      1095.82        26099.965      25245.72       8102.0161      17143.704      3786.0903      5303.7768     -3600.8682      316.39446     -1665.3792      44968.906     -31965.217     -353.81613      53452.463      37.669447      37.669447      37.669447      1.1199881      1120.5566     -413.2658       2580.1691    
     70500   70500          598.32656     -1503.0192      23958.275      25156.169      8059.6266      17096.542      3707.3697      5634.0914     -3703.7721      280.73879     -1768.0454      44905.258     -31959.098     -346.07272      54648.467      37.948329      37.948329      37.948329      1.0954767     -1060.9109     -1377.8552     -2070.2914    
     71000   71000          601.31727      1035.9979      25923.294      25103.858      8099.9124      17003.946      3738.4117      5413.8029     -3717.773       283.66873     -1698.7015      44942.847     -31958.31      -348.7103       54235.115      37.852409      37.852409      37.852409      1.1038259      1102.3045     -31.328106      2037.0173    
     71500   71500          617.17193      2810.6091      27531.058      25334.23       8313.4791      17020.75       3691.4744      5401.1564     -3675.6253      284.11069     -1704.9662      44990.886     -31966.286     -352.87873      53594.455      37.702772      37.702772      37.702772      1.1170208      2219.8021      1318.7968      4893.2284    
     72000   72000          605.67556     -3281.3445      22747.814      25315.229      8158.6197      17156.61       3781.9503      5482.01       -3589.7158      284.56479     -1794.1545      44947.244     -31955.289     -352.51439      53649.848      37.715757      37.715757      37.715757      1.1158675     -4574.6162     -1567.5722     -3701.845     
     72500   72500          603.49811     -299.04311      24960.862      25193.713      8129.2889      17064.424      3709.3018      5472.061      -3622.4429      279.18676     -1773.1832      44957.445     -31957.944     -354.22248      53391.145      37.655037      37.655037      37.655037      1.1212744      1884.7143     -588.87219     -2192.9715    
     73000   73000          597.10486     -532.90695      24602.856      25022.779      8043.17        16979.609      3713.4         5519.3696     -3637.9589      257.82594     -1799.6593      44894.32      -31967.689     -350.02863      54030.847      37.804827      37.804827      37.804827      1.107999       1528.061      -2414.4672     -712.31467    
     73500   73500          594.9982       1608.9993      26438.551      25179.897      8014.7927      17165.104      3732.8548      5481.4102     -3657.2365      335.80465     -1755.4451      44992.022     -31964.306     -352.59053      53638.263      37.713042      37.713042      37.713042      1.1161085      1419.0733      900.59274      2507.3319    
     74000   74000          603.42058      771.28992      25891.888      25281.521      8128.2446      17153.276      3774.2466      5539.0869     -3660.605       296.09183     -1819.027       44972.809     -31949.326     -348.53629      54262.194      37.858707      37.858707      37.858707      1.103275       873.20713      931.45322      509.20941    
[...]
   5176000   5176000        103.97561      711.64001      11270.047      10783.389      1400.5806      9382.8081      1048.025       2637.9879     -4188.5685      47.41466      -2897.1869      44078.041     -31342.905     -403.32728      46890.812      36.060293      36.060293      36.060293      1.2767133      88.260062      1133.0713      913.58867    
   5176500   5176500        101.32956      190.75905      10883.573      10753.114      1364.9376      9388.1768      1091.9166      2594.8278     -4192.2579      51.034191     -2892.8129      44076.787     -31341.318     -403.30381      46893.54       36.060992      36.060992      36.060992      1.276639      -69.549407     -91.412046      733.23862    
   5177000   5177000        99.42223      -600.19524      10319.128      10732.007      1339.2453      9392.7617      1097.0378      2611.7603     -4228.7715      46.865507     -2873.3988      44080.352     -31341.083     -400.95044      47168.781      36.131408      36.131408      36.131408      1.2691895     -1352.5113     -271.62976     -176.44471    
   5177500   5177500        99.334547     -501.47058      10362.551      10706.604      1338.0642      9368.5399      1094.2915      2589.3186     -4223.399       49.685398     -2888.0007      44087.868     -31341.224     -402.01424      47043.964      36.09951       36.09951       36.09951       1.2725569     -379.74642     -443.95778     -680.70754    
   5178000   5178000        100.59229     -132.18718      10651.191      10741.843      1355.0064      9386.8364      1120.2727      2605.4574     -4248.8717      50.700969     -2886.8245      44085.027     -31338.925     -402.19353      47022.993      36.094145      36.094145      36.094145      1.2731245     -662.8565       689.72941     -423.43445    
   5178500   5178500        99.906298      246.7122       10934.266      10765.119      1345.7659      9419.3535      1083.9455      2599.1257     -4192.826       52.097079     -2861.5088      44081.256     -31342.736     -402.2981       47010.77       36.091017      36.091017      36.091017      1.2734555      791.46892      411.30995     -462.64227    
   5179000   5179000        99.038808     -1187.898       9926.1165      10739.391      1334.0805      9405.3104      1095.9819      2626.0658     -4217.5859      53.854555     -2918.6684      44103.483     -31337.821     -402.86848      46944.213      36.073977      36.073977      36.073977      1.275261      -2057.9125     -1283.3157     -222.4658     
   5179500   5179500        98.716126     -356.739        10439.892      10684.162      1329.7339      9354.4277      1060.002       2595.9464     -4172.5148      53.549125     -2934.3131      44090.628     -31338.87      -402.81147      46950.856      36.075678      36.075678      36.075678      1.2750805     -109.1137       303.49653     -1264.5998    
   5180000   5180000        99.318965     -189.96233      10593.249      10723.029      1337.8543      9385.1748      1093.7709      2638.7717     -4211.7158      48.793902     -2917.6491      44074.886     -31341.683     -403.72154      46845.019      36.048551      36.048551      36.048551      1.2779613     -1462.4985      387.0656       505.54591    
   5180500   5180500        100.75304      539.25184      11120.774      10751.244      1357.1718      9394.0723      1067.5997      2622.5367     -4216.5252      51.771809     -2871.8204      44082.559     -31342.05      -402.49809      46987.412      36.085039      36.085039      36.085039      1.2740885      598.07296      437.88018      581.80238    
   5181000   5181000        100.20918      1212.0308      11565.89       10736.229      1349.8458      9386.3833      1099.8969      2589.7942     -4205.2937      52.542288     -2882.1604      44073.049     -31341.445     -402.93418      46936.558      36.072016      36.072016      36.072016      1.2754689      906.55359      1205.0783      1524.4606    
   5181500   5181500        100.07999     -286.51382      10539.306      10735.16       1348.1056      9387.0539      1108.9861      2622.4514     -4199.9047      52.31253      -2911.1184      44055.775     -31341.448     -403.49161      46871.714      36.055397      36.055397      36.055397      1.2772335     -147.67138      233.49755     -945.36764    
   5182000   5182000        97.713999     -1128.9303      9910.3025      10685.343      1316.235       9369.108       1077.2841      2629.7255     -4232.1937      54.528872     -2894.3029      44073.051     -31338.985     -401.7575       47074.027      36.107198      36.107198      36.107198      1.2717442     -1196.2069      36.339991     -2226.9238    
   5182500   5182500        99.749479      82.190852      10801.006      10744.604      1343.6535      9400.9501      1113.349       2594.0239     -4218.3804      52.743719     -2872.1123      44073.268     -31341.942     -401.9292       47053.917      36.102055      36.102055      36.102055      1.2722877     -269.4984       891.34476     -375.2738     
   5183000   5183000        99.954817     -189.78102      10611.298      10741.042      1346.4194      9394.6223      1111.5267      2587.0327     -4203.0006      57.732082     -2898.5443      44081.479     -31341.604     -403.44933      46876.626      36.056656      36.056656      36.056656      1.2770996     -846.59743      505.64359     -228.38924    
   5183500   5183500        100.04332      322.46909      10964.965      10744.335      1347.6116      9396.7234      1079.5733      2608.3961     -4198.1272      53.005419     -2911.8901      44103.081     -31337.315     -403.1291       46913.863      36.066201      36.066201      36.066201      1.276086      -583.8788       2122.6013     -571.31527    
   5184000   5184000        99.552118      456.35537      11045.469      10732.667      1340.995       9391.6722      1113.2614      2583.4539     -4211.8268      51.579874     -2882.5626      44079.171     -31341.404     -402.39718      46999.195      36.088055      36.088055      36.088055      1.2737691      1165.2736     -1320.1352      1523.9277    
   5184500   5184500        99.608957      477.39379      11023.271      10697.395      1341.7606      9355.6344      1094.0898      2586.5667     -4221.5853      48.395113     -2877.92        44067.225     -31341.137     -404.05995      46805.785      36.038484      36.038484      36.038484      1.2790325      658.37442      1228.3147     -454.50771    
   5185000   5185000        97.522265      167.63361      10827.49       10713.051      1313.6523      9399.399       1073.6458      2621.5916     -4197.5909      53.093237     -2892.3515      44079.829     -31338.818     -404.02783      46809.506      36.039439      36.039439      36.039439      1.2789309     -304.31913      308.98158      498.23838    
   5185500   5185500        98.627512     -434.41308      10428.68       10725.198      1328.5403      9396.6574      1077.5925      2596.5691     -4193.3382      51.194244     -2900.9193      44106.385     -31340.826     -404.08516      46802.866      36.037735      36.037735      36.037735      1.2791123     -885.04617     -455.06211      36.869041    
   5186000   5186000        100.64757      320.27246      10961.222      10742.202      1355.7509      9386.4506      1077.1918      2633.7445     -4200.5575      47.381347     -2921.9055      44092.166     -31341.57      -403.32568      46890.998      36.060341      36.060341      36.060341      1.2767082      198.08628      377.05463      385.67648    
   5186500   5186500        103.03139     -126.60112      10703.815      10790.37       1387.8617      9402.5081      1084.9798      2590.9245     -4195.8111      52.966141     -2899.9063      44108.697     -31339.341     -403.42957      46878.922      36.057245      36.057245      36.057245      1.2770371     -1441.8808      713.71325      348.36419    
   5187000   5187000        98.962438      892.66673      11328.926      10717.282      1333.0518      9384.23        1099.4777      2577.2532     -4222.9887      54.225554     -2867.2799      44086.548     -31343.006     -402.54227      46982.255      36.083718      36.083718      36.083718      1.2742284      469.08938      1345.5149      863.39589    
   5187500   5187500        100.09657     -240.9976       10546.906      10711.81       1348.3289      9363.4811      1088.8336      2593.3675     -4195.8342      49.306743     -2925.9008      44091.706     -31337.998     -403.08959      46918.461      36.067379      36.067379      36.067379      1.2759609     -536.7071       71.737791     -258.02348    
   5188000   5188000        100.99214     -174.21481      10661.603      10781.642      1360.3925      9421.2491      1119.3671      2618.2552     -4252.3753      52.074952     -2862.7612      44087.876     -31341.188     -400.30011      47245.412      36.150964      36.150964      36.150964      1.2671309     -255.06914      320.60389     -588.17918    
   5188500   5188500        100.35121     -428.66204      10475.086      10768.308      1351.7589      9416.5491      1085.3168      2646.1885     -4222.7606      54.37952      -2921.5687      44109.627     -31334.633     -403.21724      46903.608      36.063573      36.063573      36.063573      1.276365      -98.200148     -215.35407     -972.4319     
   5189000   5189000        101.38122      913.72669      11354.114      10727.244      1365.6335      9361.6102      1082.9798      2592.4189     -4219.7742      47.45669      -2886.8049      44087.635     -31342.301     -402.03128      47041.97       36.098999      36.098999      36.098999      1.2726109      1361.1262      879.67055      500.38327    
   5189500   5189500        98.965351     -1161.6572      9924.897       10722.95       1333.0911      9389.8591      1069.9579      2610.2371     -4205.7949      51.839957     -2886.6964      44090.016     -31339.7       -401.48326      47106.182      36.115417      36.115417      36.115417      1.2708761     -1757.0186     -1578.6297     -149.32324    
   5190000   5190000        98.345626      459.59713      11028.389      10713.748      1324.7432      9389.0052      1075.6827      2617.1521     -4201.0594      55.021328     -2881.4221      44066.41      -31342.78      -402.8871       46942.043      36.073421      36.073421      36.073421      1.2753199      133.38935      1187.7114      57.690675    
   5190500   5190500        99.362712      231.57091      10887.526      10728.649      1338.4436      9390.2055      1094.6699      2606.3359     -4200.333       57.412952     -2885.4771      44060.717     -31343.12      -402.0175       47043.583      36.099412      36.099412      36.099412      1.2725672      482.01601      883.59419     -670.89746    
   5191000   5191000        101.3294       198.80301      10913.3        10777.231      1364.9354      9412.2954      1079.753       2583.5578     -4187.6328      51.393604     -2873.1819      44100.925     -31342.519     -402.98201      46930.987      36.070589      36.070589      36.070589      1.2756204      292.45087     -608.26921      912.22736    
   5191500   5191500        101.96972     -329.39469      10541.998      10768.181      1373.5608      9394.6204      1108.5296      2628.5742     -4241.2976      52.33552      -2889.8858      44075.122     -31338.758     -401.67794      47083.351      36.109582      36.109582      36.109582      1.2714924     -775.45519     -198.08083     -14.648053    
   5192000   5192000        98.135385     -130.33299      10632.28       10721.527      1321.9112      9399.6154      1073.4377      2591.3928     -4205.0844      51.016506     -2863.7712      44093.031     -31340.407     -402.79689      46952.556      36.076114      36.076114      36.076114      1.2750344     -197.07998      629.28614     -823.20512    
   5192500   5192500        99.832195      722.27984      11242.778      10747.642      1344.7677      9402.8744      1099.2385      2599.3128     -4230.6237      53.656623     -2878.1942      44100.754     -31341.27      -402.34837      47004.897      36.089514      36.089514      36.089514      1.2736146      767.17413      1757.3278     -357.66242    
   5193000   5193000        99.074921      854.66704      11317.604      10732.043      1334.567       9397.4757      1103.3092      2619.2914     -4224.0233      52.748038     -2898.4649      44084.805     -31340.19      -402.57427      46978.52       36.082762      36.082762      36.082762      1.2743297      3.3479198      1685.0694      875.58376    
   5193500   5193500        100.48949      11.339652      10746.37       10738.591      1353.6216      9384.9695      1098.8743      2628.3428     -4228.7045      49.37289      -2885.3362      44062.563     -31340.142     -402.07957      47036.321      36.097555      36.097555      36.097555      1.2727637     -437.54357     -216.25942      687.82195    
   5194000   5194000        99.399531     -1017.3746      10039.949      10740.983      1338.9396      9402.043       1114.3205      2618.8791     -4223.1292      51.600393     -2883.577       44065.521     -31341.571     -400.27967      47247.824      36.151579      36.151579      36.151579      1.2670662     -952.61737     -824.57167     -1274.9348    
   5194500   5194500        99.906595     -333.99559      10489.18       10718.822      1345.7699      9373.0522      1124.1665      2593.5947     -4222.8584      52.84275      -2896.5243      44066.362     -31344.531     -401.15342      47144.914      36.125313      36.125313      36.125313      1.269832      -887.26019      274.93595     -389.66253    
   5195000   5195000        98.995757     -707.87916      10238.662      10724.618      1333.5006      9391.1179      1096.9739      2613.0021     -4191.1328      50.10536      -2916.3654      44079.428     -31340.893     -401.77544      47071.926      36.10666       36.10666       36.10666       1.271801      -1537.0275     -687.32378      100.71381    
   5195500   5195500        102.29227      62.595724      10812.403      10769.551      1377.9056      9391.6451      1105.0885      2595.4237     -4202.2798      51.540085     -2919.6274      44103.854     -31342.354     -402.89302      46941.352      36.073244      36.073244      36.073244      1.2753387      870.26256      187.82145     -870.29684    
   5196000   5196000        100.41981     -707.6469       10291.511      10778.531      1352.683       9425.8484      1115.3987      2634.9997     -4210.9144      44.204275     -2874.8725      44059.129     -31342.097     -400.76566      47190.529      36.13696       36.13696       36.13696       1.2686046     -398.32992     -842.21816     -882.39261    
   5196500   5196500        103.17327      691.42407      11234.853      10760.855      1389.7729      9371.0822      1087.5226      2592.9925     -4239.0963      54.491574     -2891.5232      44105.8       -31339.105     -402.33671      47006.259      36.089863      36.089863      36.089863      1.2735777      527.72623      359.68316      1186.8628    
   5197000   5197000        101.87089      248.785        10924.459      10753.489      1372.2294      9381.2598      1061.3755      2600.1942     -4206.22        47.302636     -2883.8836      44101.782     -31339.291     -401.35153      47121.643      36.119368      36.119368      36.119368      1.2704591      328.21061      386.62543      31.518972    
   5197500   5197500        99.262274      243.17536      10912.564      10745.587      1337.0907      9408.4967      1093.887       2583.9917     -4190.4863      54.038396     -2887.7137      44092.478     -31337.699     -401.6847       47082.559      36.109379      36.109379      36.109379      1.2715138      21.141189      221.16501      487.21988    
   5198000   5198000        100.26119     -716.33286      10222.752      10714.556      1350.5463      9364.0101      1085.6599      2601.0123     -4223.2969      43.518738     -2898.1618      44096.252     -31340.974     -401.7386       47076.241      36.107764      36.107764      36.107764      1.2716844     -1241.3065      497.53197     -1405.224     
   5198500   5198500        97.552488      697.56519      11163.717      10685.647      1314.0594      9371.5872      1036.8696      2595.5236     -4216.4336      56.714821     -2874.3672      44113.545     -31340.266     -402.45167      46992.831      36.086426      36.086426      36.086426      1.2739416      1055.5942      1442.8261     -405.72467    
   5199000   5199000        98.334245      422.79145      10993.405      10702.967      1324.5899      9378.3774      1061.5094      2619.8372     -4210.1584      56.813504     -2895.1461      44082.63      -31337.109     -401.50772      47103.312      36.114684      36.114684      36.114684      1.2709536     -1588.1611      2065.8254      790.70999    
   5199500   5199500        99.098889      324.95038      10947.094      10723.867      1334.8898      9388.9775      1088.9778      2625.7469     -4237.7641      49.918156     -2876.8579      44079.758     -31340.802     -401.50669      47103.433      36.114715      36.114715      36.114715      1.2709503     -111.55208      492.988        593.41523    
   5200000   5200000        102.16367     -352.00781      10515.482      10757.401      1376.1734      9381.2272      1080.4839      2601.5003     -4192.4445      49.86916      -2891.1176      44079.793     -31346.858     -401.33312      47123.805      36.11992       36.11992       36.11992       1.2704009     -505.59926      547.50482     -1097.929     
Loop time of 667.006 on 1 procs for 200000 steps with 4520 atoms

Performance: 25.907 ns/day, 0.926 hours/ns, 299.847 timesteps/s, 1.355 Matom-step/s
100.0% CPU use with 1 MPI tasks x 1 OpenMP threads

MPI task timing breakdown:
Section |  min time  |  avg time  |  max time  |%varavg| %total
---------------------------------------------------------------
Pair    | 224.39     | 224.39     | 224.39     |   0.0 | 33.64
Bond    | 122.97     | 122.97     | 122.97     |   0.0 | 18.44
Kspace  | 210.78     | 210.78     | 210.78     |   0.0 | 31.60
Neigh   | 14.303     | 14.303     | 14.303     |   0.0 |  2.14
Comm    | 3.2246     | 3.2246     | 3.2246     |   0.0 |  0.48
Output  | 0.055869   | 0.055869   | 0.055869   |   0.0 |  0.01
Modify  | 57.654     | 57.654     | 57.654     |   0.0 |  8.64
Other   |            | 33.62      |            |       |  5.04

Nlocal:           4520 ave        4520 max        4520 min
Histogram: 1 0 0 0 0 0 0 0 0 0
Nghost:          15212 ave       15212 max       15212 min
Histogram: 1 0 0 0 0 0 0 0 0 0
Neighs:              0 ave           0 max           0 min
Histogram: 1 0 0 0 0 0 0 0 0 0
FullNghs:  2.76118e+06 ave 2.76118e+06 max 2.76118e+06 min
Histogram: 1 0 0 0 0 0 0 0 0 0

Total # of neighbors = 2761178
Ave neighs/atom = 610.88009
Ave special neighs/atom = 5.5353982
Neighbor list builds = 2358
Dangerous builds = 0
  unfix npt_tg
  shell echo '{"stage":"T${temps}","status":"done"}' >> /home/arz2/PolyJarvis/data/PLA2/lammps/thermal/tg_sweep_r100/tg_progress.jsonl
  print "STAGE COMPLETE: Tg step T=${temps}K P=1.0atm steps=200000"
STAGE COMPLETE: Tg step T=100K P=1.0atm steps=200000
  next temps
  jump SELF TEMP_LOOP

write_data tg_step_out.data
System init for write_data ...
PPPM Kokkos initialization ...
  using 12-bit tables for long-range coulomb
  G vector (1/distance) = 0.33535247
  grid = 40 40 40
  stencil order = 5
  estimated absolute RMS force accuracy = 0.00040833739
  estimated relative force accuracy = 1.2296959e-06
  using double precision cuFFT
  3d grid and FFT values/proc = 103823 64000
Generated 21 of 21 mixed pair_coeff terms from sixthpower/sixthpower mixing rule
Total wall time: 6:36:42
