LAMMPS data file via write_data, version 22 Jul 2025, timestep = 300000, units = real

4020 atoms
6 atom types
4010 bonds
7 bond types
7600 angles
12 angle types
9570 dihedrals
14 dihedral types
4800 impropers
11 improper types

5.221773318030602 37.10268592197119 xlo xhi
5.221773318030602 37.10268592197119 ylo yhi
5.221773318030602 37.10268592197119 zlo zhi

Masses

1 12.01115
2 12.01115
3 1.00797
4 1.00797
5 32.064
6 32.064

Pair Coeffs # lj/class2/coul/cut

1 0.054 4.01
2 0.054 4.01
3 0.02 2.995
4 0.02 2.995
5 0.071 4.027
6 0.071 4.027

Bond Coeffs # class2

1 1.53 299.67 -501.77 679.81
2 1.101 345 -691.89 844.6
3 1.823 225.277 -327.706 488.972
4 1.101 345 -691.89 844.6
5 1.823 225.277 -327.706 488.972
6 1.823 225.277 -327.706 488.972
7 1.3261 275.112 -531.318 562.963

Angle Coeffs # class2

1 112.67 39.516 -7.443 -9.5583
2 110.77 41.453 -10.604 5.129
3 112.564 47.0276 -10.679 -10.1687
4 112.564 47.0276 -10.679 -10.1687
5 97.5 57.6938 -5.0559 -11.8206
6 110.77 41.453 -10.604 5.129
7 112.564 47.0276 -10.679 -10.1687
8 96.8479 56.7336 14.2713 0
9 107.66 39.641 -12.921 -2.4318
10 107.852 51.4949 -13.527 7.026
11 107.852 51.4949 -13.527 7.026
12 107.852 51.4949 -13.527 7.026

BondBond Coeffs

1 0 1.53 1.53
2 3.3872 1.53 1.101
3 10.9186 1.53 1.823
4 10.9186 1.53 1.823
5 -22.3144 1.823 1.823
6 3.3872 1.53 1.101
7 10.9186 1.53 1.823
8 -0.57 1.823 1.3261
9 5.3316 1.101 1.101
10 7.0463 1.101 1.823
11 7.0463 1.101 1.823
12 7.0463 1.101 1.823

BondAngle Coeffs

1 8.016 8.016 1.53 1.53
2 20.754 11.421 1.53 1.101
3 -3.5621 22.3865 1.53 1.823
4 -3.5621 22.3865 1.53 1.823
5 -13.0015 -13.0015 1.823 1.823
6 20.754 11.421 1.53 1.101
7 -3.5621 22.3865 1.53 1.823
8 10.7325 5.1221 1.823 1.3261
9 18.103 18.103 1.101 1.101
10 9.3225 44.9874 1.101 1.823
11 9.3225 44.9874 1.101 1.823
12 9.3225 44.9874 1.101 1.823

Dihedral Coeffs # class2

1 0 0 0.0316 0 -0.1681 0
2 -0.7017 0 0.0201 0 0.104 0
3 -0.4871 0 -0.4514 0 -0.1428 0
4 -0.5073 0 0.0155 0 -0.0671 0
5 -0.3338 0 -0.0684 0 -0.1706 0
6 -0.5073 0 0.0155 0 -0.0671 0
7 -0.3338 0 -0.0684 0 -0.1706 0
8 -0.1432 0 0.0617 0 -0.1083 0
9 -0.2078 0 -0.106 0 -0.3595 0
10 -0.2078 0 -0.106 0 -0.3595 0
11 -0.2078 0 -0.106 0 -0.3595 0
12 -0.5374 0 -0.5091 0 -0.1361 0
13 -1.2002 0 -1.2999 0 -0.1626 0
14 -1.2002 0 -1.2999 0 -0.1626 0

AngleAngleTorsion Coeffs

1 -16.164 112.67 110.77
2 -26.71 112.67 112.564
3 -28.1728 112.564 96.8479
4 -32.8949 112.564 97.5
5 -26.49 97.5 107.852
6 -32.8949 112.564 97.5
7 -26.49 97.5 107.852
8 -12.564 110.77 110.77
9 -13.1026 110.77 112.564
10 -13.1026 110.77 112.564
11 -13.1026 110.77 112.564
12 -18.6334 107.852 96.8479
13 -13.9674 112.564 112.564
14 -13.9674 112.564 112.564

EndBondTorsion Coeffs

1 0.2486 0.2422 -0.0925 0.0814 0.0591 0.2219 1.53 1.101
2 -0.1586 -0.7244 -0.2608 -0.7991 -0.959 0.5855 1.53 1.823
3 0.1026 0.0936 -0.0404 -0.3008 0.0606 0.4501 1.53 1.3261
4 -0.2542 -0.7984 -0.6525 -0.3047 -0.0109 -0.3763 1.53 1.823
5 0.2592 -0.0166 0.1306 -0.41 0.0668 0.4187 1.823 1.101
6 -0.2542 -0.7984 -0.6525 -0.3047 -0.0109 -0.3763 1.53 1.823
7 0.2592 -0.0166 0.1306 -0.41 0.0668 0.4187 1.823 1.101
8 0.213 0.312 0.0777 0.213 0.312 0.0777 1.101 1.101
9 -0.1526 -0.371 0.1048 1.0661 0.3298 0.425 1.101 1.823
10 -0.1526 -0.371 0.1048 1.0661 0.3298 0.425 1.101 1.823
11 -0.1526 -0.371 0.1048 1.0661 0.3298 0.425 1.101 1.823
12 0.4376 0.2001 -1.0696 0.2902 0.0695 0.1726 1.101 1.3261
13 -0.3252 0.5008 0.5191 -0.3252 0.5008 0.5191 1.823 1.823
14 -0.3252 0.5008 0.5191 -0.3252 0.5008 0.5191 1.823 1.823

MiddleBondTorsion Coeffs

1 -14.879 -3.6581 -0.3138 1.53
2 -4.2593 -5.6468 -3.3835 1.53
3 0.502 -1.0204 -0.9177 1.823
4 -2.5172 -2.0107 -2.8547 1.823
5 -0.6955 -2.9427 -1.2372 1.823
6 -2.5172 -2.0107 -2.8547 1.823
7 -0.6955 -2.9427 -1.2372 1.823
8 -14.261 -0.5322 -0.4864 1.53
9 -5.7537 -2.0104 0.2813 1.53
10 -5.7537 -2.0104 0.2813 1.53
11 -5.7537 -2.0104 0.2813 1.53
12 -0.3729 0.5373 -0.7035 1.823
13 1.7001 -3.3479 -0.8067 1.53
14 1.7001 -3.3479 -0.8067 1.53

BondBond13 Coeffs

1 0 1.53 1.101
2 0 1.53 1.823
3 0 1.53 1.3261
4 0 1.53 1.823
5 0 1.823 1.101
6 0 1.53 1.823
7 0 1.823 1.101
8 0 1.101 1.101
9 0 1.101 1.823
10 0 1.101 1.823
11 0 1.101 1.823
12 0 1.101 1.3261
13 0 1.823 1.823
14 0 1.823 1.823

AngleTorsion Coeffs

1 -0.2454 0 -0.1136 0.3113 0.4516 -0.1988 112.67 110.77
2 -2.0927 -0.1498 -1.7848 1.1179 0.3638 0.9423 112.67 112.564
3 -0.6045 3.8941 0.8885 1.0193 -0.6016 0.2097 112.564 96.8479
4 5.1289 2.0927 -2.4004 -4.5489 0.0886 0.6237 112.564 97.5
5 -1.0888 -0.2 -0.0909 0.5962 3.3479 0.2265 97.5 107.852
6 5.1289 2.0927 -2.4004 -4.5489 0.0886 0.6237 112.564 97.5
7 -1.0888 -0.2 -0.0909 0.5962 3.3479 0.2265 97.5 107.852
8 -0.8085 0.5569 -0.2466 -0.8085 0.5569 -0.2466 110.77 110.77
9 -2.0382 0.2102 -0.9023 0.3322 -0.0519 -0.3553 110.77 112.564
10 -2.0382 0.2102 -0.9023 0.3322 -0.0519 -0.3553 110.77 112.564
11 -2.0382 0.2102 -0.9023 0.3322 -0.0519 -0.3553 110.77 112.564
12 -2.2533 2.6948 -0.1723 1.434 -0.1915 -0.2611 107.852 96.8479
13 -5.0565 -0.6355 0.6015 -5.0565 -0.6355 0.6015 112.564 112.564
14 -5.0565 -0.6355 0.6015 -5.0565 -0.6355 0.6015 112.564 112.564

Improper Coeffs # class2

1 0 0
2 0 0
3 0 0
4 0 0
5 0 0
6 0 0
7 0 0
8 0 0
9 0 0
10 0 0
11 0 0

AngleAngle Coeffs

1 0.2738 -0.4825 0.2738 110.77 110.77 107.66
2 2.7985 -3.0031 -0.0668 110.77 112.564 107.852
3 -0.3157 -0.3157 -0.3157 107.66 107.66 107.66
4 0.5086 0.5086 -0.064 107.66 107.852 107.852
5 -1.3199 -1.3199 0.1184 112.67 110.77 110.77
6 -0.2564 -0.2564 -0.8766 112.67 112.564 112.564
7 -0.2564 -0.2564 -0.8766 112.67 112.564 112.564
8 2.7985 -3.0031 -0.0668 110.77 112.564 107.852
9 2.7985 -3.0031 -0.0668 110.77 112.564 107.852
10 -0.0668 -3.0031 2.7985 112.564 110.77 107.852
11 -0.0668 -3.0031 2.7985 112.564 110.77 107.852

Atoms # full

3852 10 2 0.012 9.137951875472966 6.123499887113815 6.9497383051004915 1 1 1
1811 5 3 0.053 7.002018069090214 10.264130538257454 10.268315220078819 1 1 0
3850 10 3 0.053 8.178458707399226 7.953805928996843 6.116919092314203 1 1 1
3849 10 1 -0.041 8.894421052219194 7.685129490379271 6.93341560408305 1 1 1
3848 10 6 -0.13 10.408009925615545 8.79781316180908 6.984016612247837 1 1 1
3851 10 3 0.053 8.30157321951611 7.971994596275788 7.840942789115499 1 1 1
3843 10 3 0.053 9.493600299395709 9.659148476977077 8.823486541543826 1 1 1
3818 10 6 -0.13 5.404670718320169 8.587385207157853 5.952326883992701 1 1 1
3840 10 3 0.053 7.513932351790608 10.176848547144083 7.192043919250429 1 1 1
3817 10 3 0.053 6.520071325465712 7.15888908814448 8.07585480815744 1 1 1
3816 10 3 0.053 5.601455416638343 8.50746267160093 8.708935439789927 1 1 1
3842 10 2 0.012 9.643514211326732 10.159949799136717 7.908498819404986 1 1 1
3814 10 1 -0.159 5.4430345136311615 7.542360552369907 8.251802214973603 1 1 1
3839 10 1 -0.041 8.304733701231974 10.932843361373283 7.549608970022777 1 1 1
3857 10 3 0.053 10.950022315504668 6.528343678744113 7.732073527485198 1 1 1
3853 10 3 0.053 8.106934936581434 5.593400362116759 7.127761997502292 1 1 1
3854 10 1 -0.159 10.192435814314518 5.883697115686449 8.0857377771631 1 1 1
3856 10 3 0.053 9.777127711261528 6.253225830591866 9.034491174988524 1 1 1
1813 5 3 0.053 8.74392128910094 9.475503492822835 10.540562587127814 1 1 0
1826 5 3 0.053 10.87408271099737 10.08887679277267 10.406791738285904 1 1 0
1716 5 3 0.053 6.638191355368814 6.150305541261868 10.817589111967628 1 1 0
1717 5 3 0.053 7.692016844989881 5.56746789330385 9.516264985047943 1 1 0
2057 6 3 0.053 5.826775601980772 10.450459727077556 7.642618851628066 1 1 0
1815 5 3 0.053 6.895103150497725 8.07854831993722 10.617688471852034 1 1 0
3811 10 3 0.053 5.2252521854198335 5.86469703285913 5.8838818050212245 1 1 1
1714 5 1 -0.159 7.066276478058143 5.243270292289186 10.432533993398451 1 1 0
3858 10 6 -0.13 9.69396151178247 5.4391914139674515 5.273471372066185 1 1 1
3835 10 3 0.053 9.074259210573722 9.779241256861468 5.356514044867488 1 1 1
1091 3 3 0.053 11.525467833177673 8.387445202972525 9.292036752910914 0 0 0
2815 8 1 -0.159 14.258612495246014 7.230672263101409 6.359361929305449 0 0 1
1092 3 3 0.053 12.945919128998629 8.963183192160432 9.802938887409585 0 0 0
1090 3 1 -0.159 12.5889215426593 8.118907672100889 9.291256147827367 0 0 0
1093 3 3 0.053 12.895133955773847 8.192560760467314 8.205534740802161 0 0 0
1343 4 3 0.053 16.430728519809012 10.533140696974886 9.788323351838503 0 0 0
1342 4 1 -0.159 15.503627761246912 10.021797520049084 9.860547259916125 0 0 0
2826 8 3 0.053 16.12471272756592 6.660896678188333 7.66097755703708 0 0 1
1345 4 3 0.053 15.518732035892171 9.119891084843761 9.111820225454974 0 0 0
2816 8 3 0.053 14.197203383316396 6.776990623231162 7.357662901557081 0 0 1
1372 4 1 -0.159 13.66075392758822 10.610239318358328 6.550539677642902 0 0 0
1374 4 3 0.053 13.314192908549993 9.641943672334474 6.680638251928749 0 0 0
1089 3 3 0.053 12.221968011504265 5.9607197651526596 9.266714360891958 0 0 0
1088 3 2 0.012 12.746455618008788 6.750880462557825 10.032282703444857 0 0 0
1371 4 3 0.053 15.621890605901532 9.884552264232255 7.118503678331307 0 0 0
1094 3 6 -0.13 14.413414352025804 6.03764303602638 10.065134099992179 0 0 0
1370 4 2 0.012 15.252096186102703 10.685544497069 6.46153145250735 0 0 0
3846 10 3 0.053 11.561731347130252 10.561388384968712 8.555574540073245 1 1 1
2818 8 2 0.012 15.083002168567743 6.470457935257569 5.233128226587114 0 0 1
3215 8 3 0.053 14.769461619649704 8.136434746876208 6.643995513178696 0 0 1
2817 8 3 0.053 13.259436940639729 7.373668762246076 5.894359460524207 0 0 1
1344 4 3 0.053 14.68625265722758 10.627393694360991 9.52713025686542 0 0 0
2893 8 3 0.053 12.363293683162773 5.284834533833276 6.658342578402378 0 0 1
2833 8 3 0.053 16.67661835599462 5.808258708005281 9.943097653345802 0 0 1
2819 8 3 0.053 14.719657187364993 5.385058016131902 5.27410338563368 0 0 1
2824 8 6 -0.13 16.910974443395773 6.224936618353869 5.575661868254415 0 0 1
2827 8 3 0.053 17.123304035634803 8.049305327297045 7.272482924156118 0 0 1
2825 8 1 -0.041 17.108374564551255 6.926920302443227 7.358601067597116 0 0 1
1301 4 3 0.053 20.711083647378942 9.65951916082878 10.42185359633282 0 0 0
2830 8 1 -0.159 17.563629215123953 6.470136556405214 9.731783941853301 0 0 1
2828 8 2 0.012 18.091548496783243 6.2957218273615005 8.276402189724784 0 0 1
2834 8 6 -0.13 19.656328853800684 7.234327739981318 8.186811057502412 0 0 1
1300 4 2 0.012 20.16076146685667 10.554044015039164 10.32742290877804 0 0 0
1299 4 3 0.053 19.19831132117873 9.890316749010019 8.555559046364296 0 0 0
2831 8 3 0.053 17.72694158032138 7.559208256593264 9.865009786160329 0 0 1
1297 4 1 -0.041 19.882893619121397 10.692733155038631 8.777573547644048 0 0 0
2835 8 1 -0.041 20.56986890685948 6.296644610871353 7.00007924958358 0 0 1
2838 8 2 0.012 20.474230807666146 6.932632238257187 5.602160399208259 0 0 1
2842 8 3 0.053 20.189282716976066 8.984037068482557 6.2227295315921864 0 0 1
1303 4 3 0.053 18.312636765152682 9.602487537969488 10.217348331066795 0 0 0
1379 4 3 0.053 17.657123393561218 9.247350112865192 5.582502383662675 0 0 0
2832 8 3 0.053 18.349101249730765 6.091566868437538 10.292083371694456 0 0 1
2840 8 1 -0.159 20.9395707123486 8.392192763640182 5.576252784521101 0 0 1
1302 4 1 -0.159 18.800493381738733 10.410205922361829 10.888986631810571 0 0 0
1378 4 3 0.053 18.15874489552093 10.933457093346519 5.460443410841958 0 0 0
2837 8 3 0.053 20.080805191998813 5.302892752949475 6.6959711246947125 0 0 1
2839 8 3 0.053 19.38319627927914 6.618044375044204 5.485274769447429 0 0 1
3841 10 3 0.053 7.930153535390371 11.396553796368172 8.493965798855859 1 1 1
3844 10 1 -0.159 10.842153017098699 11.15120374597612 7.990713915603031 1 1 1
2059 6 3 0.053 5.549303096360037 12.0520653378615 6.91727240890524 1 1 0
2055 6 3 0.053 5.971051720376638 11.995409270706649 9.120661499654554 1 1 0
1890 5 3 0.053 10.270617037399319 14.090532658135743 5.803636432328788 1 1 0
724 2 3 0.053 5.93669439934524 14.039580373526395 7.583829855152073 -1 -1 0
718 2 1 -0.159 8.536778869883488 14.332149870877185 9.007382789137175 -1 -1 0
720 2 3 0.053 9.581223125946618 14.234733593947178 9.213728618283955 -1 -1 0
719 2 3 0.053 8.714430518794844 14.545441936942822 7.8973524642032435 -1 -1 0
721 2 3 0.053 8.045058727026566 13.476926909273004 9.383485596680988 -1 -1 0
716 2 2 0.012 8.065042433524514 15.695630550145992 9.540725526551759 -1 -1 0
726 2 2 0.012 6.80190022677338 15.23262407188161 5.852543131606034 -1 -1 0
727 2 3 0.053 7.736693832214993 14.759241555367817 5.778996997794456 -1 -1 0
3838 10 6 -0.13 8.53628874466552 12.293288437980447 6.348500842954716 1 1 1
723 2 1 -0.041 6.12660414369279 15.06800417316109 7.210093389328771 -1 -1 0
714 2 3 0.053 9.968550271566407 15.841737438990405 10.432938611605987 -1 -1 0
722 2 6 -0.13 6.446236705218778 16.232776295823818 8.570446010706643 -1 -1 0
717 2 3 0.053 7.641186870533893 15.58906227968347 10.613610745902605 -1 -1 0
3845 10 3 0.053 10.586172505645887 12.085462189173846 8.58228462598182 1 1 1
713 2 1 -0.041 9.341367501685077 16.482068824937315 9.772198189335228 -1 -1 0
734 2 3 0.053 8.543822836652417 16.442257167409668 7.142644825124567 -1 -1 0
1827 5 3 0.053 12.325389983280285 11.021289802828441 10.492037958331938 1 1 0
1373 4 3 0.053 13.021008319961648 11.243060166901593 6.040508586030304 0 0 0
3847 10 3 0.053 11.205012511508482 11.393378394992705 6.9287612135674115 1 1 1
1375 4 3 0.053 13.367394797481369 11.110363324038207 7.562799086989466 0 0 0
1889 5 1 -0.041 11.415191300412097 14.287023503196439 5.779831077340458 1 1 0
1361 4 3 0.053 16.098136345853824 14.288013513686872 7.796142020287881 0 0 0
1884 5 1 -0.159 12.744023378780714 14.336259350282551 9.686901850883594 1 1 0
1885 5 3 0.053 11.743408100658886 14.130620029605144 10.034801537401155 1 1 0
1886 5 3 0.053 13.039795377186461 13.28520125191922 9.528108433209372 1 1 0
1883 5 3 0.053 13.187935687056868 14.284555126271822 7.663041396201347 1 1 0
1882 5 2 0.012 12.726986718852409 15.082889843609166 8.332394865064437 1 1 0
1887 5 3 0.053 13.24184797818193 14.87324893398684 10.529684207261676 1 1 0
1367 4 1 -0.041 15.672735340826968 12.047277036625687 7.0852906408319605 0 0 0
1369 4 3 0.053 15.029247665897868 12.225630522759255 8.030265686352735 0 0 0
1888 5 6 -0.13 11.239701482943868 15.398004774915389 7.454652095577774 1 1 0
1356 4 6 -0.13 15.769318664635671 13.1735129841 10.203421891054738 0 0 0
1891 5 3 0.053 11.969307544889451 13.343318952302237 6.014254540598142 1 1 0
1881 5 3 0.053 14.54008493456753 16.075815804033244 9.2281518238275 1 1 0
1368 4 3 0.053 15.430318689738312 12.958162937039148 6.383072208619535 0 0 0
1879 5 1 -0.041 13.688548260130963 16.318444108417257 8.541349076810734 1 1 0
1305 4 3 0.053 18.088424251277072 11.25198346896719 10.659145955292914 0 0 0
1360 4 2 0.012 17.190422920265448 13.942901636298698 8.095266750106848 0 0 0
1358 4 3 0.053 17.275738718878173 14.997517029425035 9.973512456791282 0 0 0
1365 4 3 0.053 17.96401199395617 15.959351372318375 8.081206372338869 0 0 0
1295 4 3 0.053 19.385220438862547 12.540731424673837 6.178359195488248 0 0 0
1357 4 1 -0.041 17.322538920553626 13.948886061686826 9.594286595152429 0 0 0
1292 4 1 -0.159 20.491692929711476 12.443590703628322 5.984597736504775 0 0 0
1366 4 6 -0.13 17.42617802292706 12.269991903489277 7.607620972663412 0 0 0
1298 4 3 0.053 19.565193486648354 11.814237094670975 8.783548362329164 0 0 0
1362 4 1 -0.159 18.01666641555218 15.10069581626143 7.428865939212114 0 0 0
1359 4 3 0.053 18.323300912835236 13.489848431264281 9.906768062000207 0 0 0
1286 4 6 -0.13 20.454365532326307 13.958333910056199 9.243698471496927 0 0 0
1363 4 3 0.053 17.742647125370546 15.371438232800937 6.4524318077795915 0 0 0
1364 4 3 0.053 19.057298664629705 14.855863369375143 7.394532534537799 0 0 0
1293 4 3 0.053 20.77594431943502 13.29846975131965 5.430141600604661 0 0 0
247 1 3 0.053 5.751729498692899 20.884355318177672 8.162539218373599 1 1 1
249 1 3 0.053 5.275013955085065 19.571588925575234 9.23286424636244 1 1 1
732 2 6 -0.13 6.9120435922515995 17.030347413012663 5.473735806355261 -1 -1 0
715 2 3 0.053 9.906280818017876 16.780020048731448 8.876754261209697 -1 -1 0
738 2 1 -0.159 7.773480172076672 19.091033807750286 7.70705739928037 -1 -1 0
736 2 2 0.012 8.87623425692832 18.54885202078774 6.802752032418416 -1 -1 0
733 2 1 -0.041 8.575967523625181 17.15056588090271 6.237270844248929 -1 -1 0
737 2 3 0.053 8.701282408715745 19.141536137277857 5.833647659455777 -1 -1 0
742 2 6 -0.13 10.54567943278359 18.641598337268434 7.520518408219717 -1 -1 0
739 2 3 0.053 7.943463966139534 19.001420617857704 8.749703544892936 -1 -1 0
741 2 3 0.053 6.833872794882097 18.455054215986223 7.6820663629730745 -1 -1 0
740 2 3 0.053 7.615186449998756 20.164366125160235 7.409360006945445 -1 -1 0
705 2 3 0.053 10.081972021901517 20.504792835208768 10.03247659440039 -1 -1 0
735 2 3 0.053 9.370528839412835 16.797373642424972 5.526792517614517 -1 -1 0
246 1 1 -0.159 5.563490280193763 20.590589516594004 9.240626180226508 1 1 1
712 2 6 -0.13 9.007534078158967 18.069398760902715 10.601229097405707 -1 -1 0
218 1 3 0.053 5.332549840988344 19.478925935345217 5.925137184795489 1 1 1
248 1 3 0.053 6.425144442236052 20.679812371795887 9.790240581320731 1 1 1
745 2 3 0.053 11.94452991857127 17.511708347047964 5.925258827306898 -1 -1 0
743 2 1 -0.041 11.436063272401825 18.519990564165454 5.924462426849153 -1 -1 0
746 2 2 0.012 12.53661080690009 19.630805570399538 5.807760276412045 -1 -1 0
747 2 3 0.053 13.033554415105755 19.79948911125521 6.8341075066443455 -1 -1 0
1878 5 6 -0.13 14.363403844021022 17.211449070463452 7.216780742892714 1 1 0
1880 5 3 0.053 12.966406683053638 17.05073130369334 8.901877175271345 1 1 0
1872 5 2 0.012 15.074183025858739 18.629262849807162 8.015690258276633 1 1 0
1873 5 3 0.053 14.352935208433594 18.91140568392072 8.777383808986091 1 1 0
1874 5 1 -0.159 15.748558200632065 19.66392241090354 7.140033527050065 1 1 0
1868 5 6 -0.13 15.97820160949441 17.637748979025254 10.604886128302331 1 1 0
708 2 1 -0.159 11.766003719679965 18.254323487590753 10.615944446026589 -1 -1 0
710 2 3 0.053 11.539848765284464 18.32669304738645 9.594830701095606 -1 -1 0
1869 5 1 -0.041 16.29116592984439 18.313263853674933 9.007930165278351 1 1 0
1875 5 3 0.053 15.075238076374228 20.10407896028041 6.428305907884457 1 1 0
711 2 3 0.053 12.1412713755796 17.216762611094808 10.694755883493606 -1 -1 0
1877 5 3 0.053 16.565525014057396 19.171708178699163 6.462460356037149 1 1 0
1857 5 3 0.053 14.225600388318394 20.724771493930835 10.678733830071959 1 1 0
1876 5 3 0.053 16.262927482859876 20.482332353407216 7.566340960705398 1 1 0
709 2 3 0.053 12.793799531070498 18.847140739936485 10.683364704336993 -1 -1 0
790 2 3 0.053 12.929283717595686 20.838449096637298 9.327876190287668 -1 -1 0
1856 5 3 0.053 15.93656325619606 20.877587163300603 10.65407805192524 1 1 0
1870 5 3 0.053 16.922038680026468 19.225931993670653 9.175644065371435 1 1 0
1177 3 3 0.053 20.35302817998799 17.640186459737706 6.175352605776268 0 -1 0
1871 5 3 0.053 17.00542896924556 17.629764229352233 8.417368224566948 1 1 0
1268 4 3 0.053 19.0031132423009 19.827198503586544 7.413874248405212 0 0 0
1267 4 1 -0.041 19.505605337067895 20.17333057821726 8.304954476778285 0 0 0
1269 4 3 0.053 18.83815694129792 20.025778708407493 9.207449381452093 0 0 0
1276 4 6 -0.13 19.822835025413504 17.68454038605227 8.823163077469891 0 0 0
1270 4 2 0.012 20.6416203381506 19.262723808565326 8.684663040482812 0 0 0
1863 5 3 0.053 18.389844308672835 17.85513374416798 10.613987085400868 1 1 0
1275 4 3 0.053 20.19830677917876 19.70005014540883 10.68012841929956 0 0 0
1272 4 1 -0.159 21.12284616760772 19.61476118418561 10.099608307243038 0 0 0
1162 3 3 0.053 20.37381140221978 20.669510859430986 6.190297628024053 0 -1 0
1816 5 3 0.053 6.467031093332658 8.391923363693014 12.282449388810662 1 1 0
1809 5 1 -0.041 7.4202440588752845 10.578914381087145 11.206441164886323 1 1 0
1779 5 1 -0.041 5.307383178566305 8.803292807262062 15.370563595336638 1 1 0
1812 5 2 0.012 8.285155577311391 9.35429897850198 11.53186072548009 1 1 0
1814 5 1 -0.159 7.365746181200986 8.245719569600169 11.651582634043693 1 1 0
1817 5 3 0.053 7.747628252298583 7.2437207701405715 11.881356027283916 1 1 0
1788 5 6 -0.13 7.071192464530178 10.67157520422357 15.00021222072686 1 1 0
1080 3 1 -0.159 9.105267967626007 6.286180693497846 14.091609208169425 0 0 0
1818 5 6 -0.13 9.490346903610073 9.259683166090394 12.81592236015992 1 1 0
1083 3 3 0.053 9.025061827892593 5.817063640410632 15.100565480985225 0 0 0
1082 3 3 0.053 8.403167221645305 5.764010585418889 13.370956890297546 0 0 0
1081 3 3 0.053 8.757660230989833 7.257326496558001 14.095684835837794 0 0 0
1078 3 2 0.012 10.516096132929121 6.034400880173964 13.690293210508955 0 0 0
1781 5 3 0.053 5.701145531721684 8.224016549852978 14.525121039788031 1 1 0
1782 5 2 0.012 6.341433759634842 9.548192785623202 16.110118786181406 1 1 0
1819 5 1 -0.041 10.37557267050683 10.769159183374668 13.280112403315721 1 1 0
1040 3 1 -0.159 10.611234603618247 9.85862252098746 16.40422986428645 0 0 0
1042 3 3 0.053 10.184416832722293 8.813144829123335 16.600948103795094 0 0 0
1084 3 6 -0.13 10.795612892858802 5.88265529317522 11.853325318877427 0 0 0
1041 3 3 0.053 10.052529088524185 10.523198527955756 15.833003133476378 0 0 0
1785 5 3 0.053 7.794659151320314 7.8156172919599065 16.33973012364971 1 1 0
1720 5 3 0.053 5.733746917583274 5.915352008282718 12.839092824726578 1 1 0
1824 5 1 -0.159 11.572485067807772 10.535311930869579 11.10029270478975 1 1 0
1825 5 3 0.053 12.130902761230832 9.688462234168446 11.620644538882178 1 1 0
1331 4 3 0.053 16.554317718285688 5.798867597127685 11.907458165826602 0 0 0
1086 3 3 0.053 11.887817594615134 7.834229872204625 11.7346978850678 0 0 0
1043 3 3 0.053 11.307876446579478 9.524530473253751 15.66216670171181 0 0 0
1820 5 3 0.053 11.163659194682117 10.393905801429383 13.85796859021545 1 1 0
1085 3 1 -0.041 12.225635132746554 6.823128539519378 11.56414048743186 0 0 0
1076 3 3 0.053 11.049578118524543 7.263272898645155 15.325966371561794 0 0 0
1338 4 3 0.053 16.639560381972405 7.992628412389574 11.23116089297723 0 0 0
1077 3 3 0.053 11.648215907182532 7.799836163808284 13.813521904743085 0 0 0
1330 4 2 0.012 16.4077226351111 6.0725069472710915 12.935807971463799 0 0 0
1341 4 3 0.053 14.311373487415752 9.24141969240582 11.482259945766021 0 0 0
1340 4 2 0.012 15.275235157268378 9.61255727506667 11.334527031848793 0 0 0
1064 3 6 -0.13 14.894355804696918 9.548345113408587 15.01677879442913 0 0 0
1087 3 3 0.053 13.086418777712542 6.595348464960613 12.202813925108288 0 0 0
1337 4 1 -0.041 16.210011809903854 8.53846619588919 12.051112811025419 0 0 0
1336 4 6 -0.13 15.341772969504031 7.525116683133055 13.255538139496213 0 0 0
1075 3 1 -0.041 11.597349391030008 6.906726882763753 14.455113047497289 0 0 0
1074 3 6 -0.13 13.094190069968121 5.910206011406452 14.936992250175463 0 0 0
1058 3 2 0.012 16.407031826701704 9.58592980186054 16.110715686301443 0 0 0
1066 3 3 0.053 13.113780662137716 8.687517057154128 16.10387975361236 0 0 0
1065 3 1 -0.041 14.122171490814702 8.397611211910396 16.15044695238602 0 0 0
1069 3 3 0.053 14.912669161244867 6.253678541012638 16.197969330219887 0 0 0
1068 3 2 0.012 13.95231329883271 6.758051481547749 16.287990962646308 0 0 0
1059 3 3 0.053 16.429713767247858 8.577486540250868 16.60415363328848 0 0 0
1317 4 1 -0.041 21.072875538617303 8.538383525660223 13.654316144103744 0 0 0
1339 4 3 0.053 17.19865160426916 8.805929072403922 12.480991270010893 0 0 0
1304 4 3 0.053 18.790054527671394 9.95197670149569 11.93457008062047 0 0 0
1316 4 6 -0.13 20.3806404652982 10.171941412236206 13.844261695123109 0 0 0
1062 3 3 0.053 18.641372180936063 9.954863314375316 15.584466848427398 0 0 0
1061 3 3 0.053 17.813590475712143 8.981177392213432 14.452456522023306 0 0 0
1320 4 2 0.012 20.171454199775 7.2894772161915675 13.839018726990439 0 0 0
1326 4 6 -0.13 18.754639283303344 7.18441015949929 12.626516748193001 0 0 0
1321 4 3 0.053 19.680491687644967 7.400791464876084 14.842298197892205 0 0 0
1060 3 1 -0.159 17.606816580110987 9.830079924888064 15.14770587677362 0 0 0
1613 5 3 0.053 18.194708337449935 7.083279818729033 16.19305498141452 1 1 0
1327 4 1 -0.041 17.67430245871233 6.138985545387577 13.55577099484097 0 0 0
1063 3 3 0.053 17.541967785589918 10.75985872501752 14.489895333475062 0 0 0
1329 4 3 0.053 17.3726279145849 6.531988039653584 14.549180560485608 0 0 0
1322 4 1 -0.159 21.122139802345508 6.06060083917209 13.782020473218347 0 0 0
1615 5 3 0.053 20.131042975722675 5.519909511921394 15.963368828069694 1 1 0
1810 5 3 0.053 7.877273978620374 11.523198151025667 10.985987029262482 1 1 0
1808 5 6 -0.13 5.950760803036117 11.113142295286725 12.176091416549308 1 1 0
1821 5 3 0.053 9.715880840827648 11.393457302645501 14.001071840235095 1 1 0
1807 5 3 0.053 8.448331300833548 13.33756750514459 11.818832164256612 1 1 0
1799 5 1 -0.041 5.826555674551305 13.117773155576375 13.847765350719166 1 1 0
1805 5 3 0.053 7.184638218336213 14.53434183874245 12.377080342876031 1 1 0
1806 5 3 0.053 6.805060244833715 13.565418381799457 10.976489000513176 1 1 0
1798 5 6 -0.13 6.749654736015373 14.28619944814514 15.072030742214578 1 1 0
1803 5 3 0.053 7.778314434629637 12.162946075202715 13.383857315540105 1 1 0
1804 5 1 -0.159 7.366184903915892 13.554099937958346 11.944631109486332 1 1 0
1802 5 2 0.012 6.828237563584662 12.493896316610222 12.859996718109391 1 1 0
1793 5 3 0.053 8.722735452702992 12.901351482169776 14.959065966922402 1 1 0
1792 5 2 0.012 8.0100833965741 13.199866379635516 15.704030669921925 1 1 0
1834 5 1 -0.159 9.81202226946058 15.5874432949876 13.0598814712849 1 1 0
1831 5 3 0.053 10.169594870514988 13.246645280499262 14.235434998892039 1 1 0
1836 5 3 0.053 9.578174937339107 15.189253596233458 12.090359366312292 1 1 0
1835 5 3 0.053 9.05084686381603 15.2283402578486 13.823353564363183 1 1 0
1823 5 3 0.053 10.438321582060073 12.216818220278494 11.544010730771586 1 1 0
1789 5 1 -0.041 7.437889109752442 11.864153332786202 16.32026618790033 1 1 0
1837 5 3 0.053 9.743762250634664 16.64559217099798 13.07196837480524 1 1 0
2025 6 3 0.053 6.001020636622872 16.02174522447343 16.583115551959366 1 1 0
2033 6 3 0.053 6.13640460674157 15.960887761663546 13.292495672103849 1 1 0
2043 6 3 0.053 5.312844312180773 15.52352150149066 11.632917914151918 1 1 0
1797 5 3 0.053 9.021743372836742 14.948584030622238 16.3766854061699 1 1 0
1800 5 3 0.053 5.340468179579818 12.423614742989152 14.455129344843025 1 1 0
1346 4 6 -0.13 14.819310864414147 11.114013562315034 12.451602688861112 0 0 0
1833 5 3 0.053 11.927631218459936 15.590340220720224 12.857134482760141 1 1 0
1832 5 2 0.012 11.182898262110069 15.14835835209915 13.49940557192925 1 1 0
1829 5 1 -0.041 11.164137786611569 13.679091176541544 13.926454411823725 1 1 0
1822 5 2 0.012 10.98885041697928 11.488610048045453 12.091116059181994 1 1 0
1830 5 3 0.053 11.678647988508498 13.667907366083037 14.830832095456433 1 1 0
1355 4 3 0.053 14.886678783573924 15.32418259511607 11.874804923855368 0 0 0
1354 4 3 0.053 15.247968861177128 14.58904845479255 13.621159057219067 0 0 0
1046 3 3 0.053 13.186981507386694 11.838456389856546 15.487289687648978 0 0 0
1828 5 6 -0.13 12.153758772493717 12.464593606952823 13.070791888720063 1 1 0
1352 4 1 -0.159 15.055778307565653 14.448036571930981 12.51601601759336 0 0 0
1838 5 6 -0.13 11.527493351117396 16.191711513793564 14.957978015763759 1 1 0
1350 4 2 0.012 16.18252650621914 13.59034747493814 12.000471558306923 0 0 0
1347 4 1 -0.041 16.231630799708896 12.25769952200773 12.713184079701808 0 0 0
1054 3 6 -0.13 16.125446118259383 12.400877067943654 16.398885949492094 0 0 0
1348 4 3 0.053 16.338517981056537 12.457345169005613 13.768789212786961 0 0 0
1353 4 3 0.053 14.05454590068431 13.93757339296861 12.435746854639431 0 0 0
1050 3 1 -0.159 14.022997430678702 14.432626011577115 16.29345374051298 0 0 0
1845 5 3 0.053 15.593234196666813 16.585967637621856 14.573682304386525 1 1 0
1052 3 3 0.053 12.943509692119772 14.681582216485854 16.305915218893713 0 0 0
1045 3 1 -0.041 13.299095667230318 12.05153825361534 16.498161843443704 0 0 0
1051 3 3 0.053 14.443912381681358 14.587346930633275 15.304131558551179 0 0 0
2152 6 3 0.053 16.695421014938347 15.08029163884684 16.17747061215421 0 1 0
1847 5 3 0.053 13.93859373484234 16.209699655122403 13.788604177849347 1 1 0
1282 4 1 -0.159 20.70986409601816 15.598795218557258 11.29186117315825 0 0 0
1283 4 3 0.053 19.659324954442965 15.452997662200177 11.27983488374121 0 0 0
1285 4 3 0.053 20.887927877356113 16.656582419386606 11.728614496240208 0 0 0
1867 5 3 0.053 17.30296351393092 16.185745300891632 12.678237603210603 1 1 0
1349 4 3 0.053 17.149817439518728 11.7152227852844 12.416543523523746 0 0 0
1351 4 3 0.053 17.105922764730174 14.099375936079063 11.946945791620918 0 0 0
2147 6 3 0.053 19.16494785181337 14.021886271030205 12.780857083648652 0 1 0
2148 6 3 0.053 18.041828304266918 13.306355907722034 14.149518067217771 0 1 0
2149 6 3 0.053 19.631794541238275 12.489125111183338 13.646696859617228 0 1 0
2145 6 3 0.053 20.652830018115203 14.521063390592657 14.546425443604896 0 1 0
2146 6 1 -0.159 19.063681353378918 13.488605957347415 13.778563572722105 0 1 0
2144 6 2 0.012 19.681281960369965 14.243472458245652 14.879572323076092 0 1 0
2150 6 6 -0.13 18.81944044912725 15.860916959919546 15.20805924795899 0 1 0
2142 6 3 0.053 20.540535117985787 12.492023720375634 15.744469531044142 0 1 0
2141 6 1 -0.041 19.70833999019432 13.206549513827335 16.04085985456018 0 1 0
2143 6 3 0.053 18.755442034865773 12.595700118684254 15.900926285399002 0 1 0
2151 6 1 -0.041 17.575103971983307 15.548727791144028 16.39181701485456 0 1 0
1865 5 3 0.053 18.820894587546935 16.681278125631096 12.387697975480222 1 1 0
1284 4 3 0.053 21.093598116090167 14.746961845572992 11.886443307250637 0 0 0
1306 4 6 -0.13 21.160871515658613 11.87147922528539 11.032956706204438 0 0 0
2036 6 1 -0.159 6.568871337817288 19.004550122270622 12.850389832223815 1 1 0
2039 6 3 0.053 6.804440350056785 19.517088841208114 13.79115063983909 1 1 0