units real
atom_style full
boundary p p p

# --- Force Field (injected via PAIR_STYLE_BLOCK) ---
pair_style lj/class2/coul/cut 9.5 9.5
dielectric 1.000000
bond_style class2
angle_style class2
dihedral_style class2
improper_style class2
special_bonds lj/coul 0 0 1
pair_modify mix sixthpower tail yes
neighbor 2.0 bin
neigh_modify delay 0 every 1 check yes
neigh_modify one 4000
package gpu 1 neigh no

read_data /home/alexzhao/PolyJarvis/data/PROPSULFIDE_CURATED/lammps/equil/nvt_softheat/nvt_softheat_out.data
Reading data file ...
  orthogonal box = (0 0 0) to (42.324459 42.324459 42.324459)
  2 by 2 by 2 MPI processor grid
WARNING: Pair style lj/class2/coul/long/gpu in data file differs from currently defined pair style lj/class2/coul/cut (src/read_data.cpp:811)
  reading atoms ...
  4020 atoms
  reading velocities ...
  4020 velocities
  scanning bonds ...
  4 = max bonds/atom
  scanning angles ...
  6 = max angles/atom
  scanning dihedrals ...
  11 = max dihedrals/atom
  scanning impropers ...
  4 = max impropers/atom
  orthogonal box = (0 0 0) to (42.324459 42.324459 42.324459)
  2 by 2 by 2 MPI processor grid
  reading bonds ...
  4010 bonds
  reading angles ...
  7600 angles
  reading dihedrals ...
  9570 dihedrals
  reading impropers ...
  4800 impropers
Finding 1-2 1-3 1-4 neighbors ...
  special bond factors lj:    0        0        1       
  special bond factors coul:  0        0        1       
     4 = max # of 1-2 neighbors
     7 = max # of 1-3 neighbors
    11 = max # of special neighbors
  special bonds CPU = 0.000 seconds
  read_data CPU = 0.062 seconds
include /home/alexzhao/PolyJarvis/data/PROPSULFIDE_CURATED/lammps/build/emc_build.params
# LAMMPS parameters created by EMC v9.4.4, build Jul 31 2025 20:33:44

# Variables

variable	seed		index	1001
variable	ntotal		index	4020
variable	fshape		index	1
variable	output		index	emc_build
variable	field		index	pcff/pcff
variable	location1	index	~/emc/field/
variable	nav		index	0.6022141179
variable	temperature	index	300
variable	radius		index	5
variable	nrelax		index	100
variable	weight_nonbond	index	0.0001
variable	weight_bond	index	0.0001
variable	weight_focus	index	1
variable	cutoff		index	9.5
variable	charge_cutoff	index	9.5
variable	kappa		index	4
variable	density1	index	0.65
variable	lprevious	index	0
variable	lphase		index	42.3244592443
variable	f_poly		index	10
variable	chem_repeat	index	*CC(C)S*
variable	chem_cap	index	*[H]
variable	lg_repeat	index	10
variable	lg_cap		index	1
variable	norm_poly	index	100
variable	l_poly		index	402
variable	mg_repeat	index	30.07012
variable	mg_cap		index	0
variable	m_poly		index	1202.8048
variable	n_poly		index	10
variable	mtotal		index	29678.2674
variable	nphase1		index	4020
variable	mphase1		index	29678.2674
variable	vphase1		index	75818.3369767
variable	lbox		index	42.3244592443
variable	lphase1		index	42.3244592443
variable	lxx		index	42.3244592443
variable	lyy		index	42.3244592443
variable	lzz		index	42.3244592443
variable	lzy		index	0
variable	lzx		index	0
variable	lyx		index	0
variable	vtotal		index	75818.3369767
variable	nl_poly		index	10

# Types

variable	type_c		index	1
variable	type_c1		index	2
variable	type_hc		index	3
variable	type_hs		index	4
variable	type_s		index	5
variable	type_sc		index	6

variable	type_bond_c_c1	index	1
variable	type_bond_c_hc	index	2
variable	type_bond_c_sc	index	3
variable	type_bond_c1_hc	index	4
variable	type_bond_c1_s	index	5
variable	type_bond_c1_sc	index	6
variable	type_bond_hs_s	index	7

variable	type_angle_c_c1_c index	1
variable	type_angle_c_c1_hc index	2
variable	type_angle_c_c1_s index	3
variable	type_angle_c_c1_sc index	4
variable	type_angle_c_sc_c1 index	5
variable	type_angle_c1_c_hc index	6
variable	type_angle_c1_c_sc index	7
variable	type_angle_c1_s_hs index	8
variable	type_angle_hc_c_hc index	9
variable	type_angle_hc_c_sc index	10
variable	type_angle_hc_c1_s index	11
variable	type_angle_hc_c1_sc index	12

# Clusters

variable	n0_poly		index	1
variable	n1_poly		index	10
variable	nl_poly		index	10

# Flags

variable	flag_charged	index	1

# Masses

mass		1    12.01115  # c
mass		2    12.01115  # c1
mass		3     1.00797  # hc
mass		4     1.00797  # hs
mass		5    32.06400  # s
mass		6    32.06400  # sc

# Potentials

pair_modify	mix sixthpower tail yes
special_bonds	lj/coul 0 0 1

# Pair Coeffs

pair_coeff	 1  1    0.05400    4.01000  # c,c
pair_coeff	 2  2    0.05400    4.01000  # c1,c1
pair_coeff	 3  3    0.02000    2.99500  # hc,hc
pair_coeff	 4  4    0.02000    2.99500  # hs,hs
pair_coeff	 5  5    0.07100    4.02700  # s,s
pair_coeff	 6  6    0.07100    4.02700  # sc,sc

# Bond Coeffs

bond_coeff	1    1.53000  299.67000 -501.77000  679.81000  # c,c1
bond_coeff	2    1.10100  345.00000 -691.89000  844.60000  # c,hc
bond_coeff	3    1.82300  225.27680 -327.70570  488.97220  # c,sc
bond_coeff	4    1.10100  345.00000 -691.89000  844.60000  # c1,hc
bond_coeff	5    1.82300  225.27680 -327.70570  488.97220  # c1,s
bond_coeff	6    1.82300  225.27680 -327.70570  488.97220  # c1,sc
bond_coeff	7    1.32610  275.11230 -531.31810  562.96300  # hs,s

# Angle Coeffs

angle_coeff	 1  112.67000   39.51600   -7.44300   -9.55830  # c,c1,c
angle_coeff	 2  110.77000   41.45300  -10.60400    5.12900  # c,c1,hc
angle_coeff	 3  112.56420   47.02760  -10.67900  -10.16870  # c,c1,s
angle_coeff	 4  112.56420   47.02760  -10.67900  -10.16870  # c,c1,sc
angle_coeff	 5   97.50000   57.69380   -5.05590  -11.82060  # c,sc,c1
angle_coeff	 6  110.77000   41.45300  -10.60400    5.12900  # c1,c,hc
angle_coeff	 7  112.56420   47.02760  -10.67900  -10.16870  # c1,c,sc
angle_coeff	 8   96.84790   56.73360   14.27130    0.00000  # c1,s,hs
angle_coeff	 9  107.66000   39.64100  -12.92100   -2.43180  # hc,c,hc
angle_coeff	10  107.85220   51.49490  -13.52700    7.02600  # hc,c,sc
angle_coeff	11  107.85220   51.49490  -13.52700    7.02600  # hc,c1,s
angle_coeff	12  107.85220   51.49490  -13.52700    7.02600  # hc,c1,sc

# BondBond Coeffs

angle_coeff	 1 bb    0.00000    1.53000    1.53000  # c,c1,c
angle_coeff	 2 bb    3.38720    1.53000    1.10100  # c,c1,hc
angle_coeff	 3 bb   10.91860    1.53000    1.82300  # c,c1,s
angle_coeff	 4 bb   10.91860    1.53000    1.82300  # c,c1,sc
angle_coeff	 5 bb  -22.31440    1.82300    1.82300  # c,sc,c1
angle_coeff	 6 bb    3.38720    1.53000    1.10100  # c1,c,hc
angle_coeff	 7 bb   10.91860    1.53000    1.82300  # c1,c,sc
angle_coeff	 8 bb   -0.57000    1.82300    1.32610  # c1,s,hs
angle_coeff	 9 bb    5.33160    1.10100    1.10100  # hc,c,hc
angle_coeff	10 bb    7.04630    1.10100    1.82300  # hc,c,sc
angle_coeff	11 bb    7.04630    1.10100    1.82300  # hc,c1,s
angle_coeff	12 bb    7.04630    1.10100    1.82300  # hc,c1,sc

# BondAngle Coeffs

angle_coeff	 1 ba    8.01600    8.01600    1.53000    1.53000  # c,c1,c
angle_coeff	 2 ba   20.75400   11.42100    1.53000    1.10100  # c,c1,hc
angle_coeff	 3 ba   -3.56210   22.38650    1.53000    1.82300  # c,c1,s
angle_coeff	 4 ba   -3.56210   22.38650    1.53000    1.82300  # c,c1,sc
angle_coeff	 5 ba  -13.00150  -13.00150    1.82300    1.82300  # c,sc,c1
angle_coeff	 6 ba   20.75400   11.42100    1.53000    1.10100  # c1,c,hc
angle_coeff	 7 ba   -3.56210   22.38650    1.53000    1.82300  # c1,c,sc
angle_coeff	 8 ba   10.73250    5.12210    1.82300    1.32610  # c1,s,hs
angle_coeff	 9 ba   18.10300   18.10300    1.10100    1.10100  # hc,c,hc
angle_coeff	10 ba    9.32250   44.98740    1.10100    1.82300  # hc,c,sc
angle_coeff	11 ba    9.32250   44.98740    1.10100    1.82300  # hc,c1,s
angle_coeff	12 ba    9.32250   44.98740    1.10100    1.82300  # hc,c1,sc

# Dihedral Coeffs

dihedral_coeff	 1    0.00000    0.00000    0.03160    0.00000   -0.16810    0.00000  # c,c1,c,hc
dihedral_coeff	 2   -0.70170    0.00000    0.02010    0.00000    0.10400    0.00000  # c,c1,c,sc
dihedral_coeff	 3   -0.48710    0.00000   -0.45140    0.00000   -0.14280    0.00000  # c,c1,s,hs
dihedral_coeff	 4   -0.50730    0.00000    0.01550    0.00000   -0.06710    0.00000  # c,c1,sc,c
dihedral_coeff	 5   -0.33380    0.00000   -0.06840    0.00000   -0.17060    0.00000  # c,sc,c1,hc
dihedral_coeff	 6   -0.50730    0.00000    0.01550    0.00000   -0.06710    0.00000  # c1,c,sc,c1
dihedral_coeff	 7   -0.33380    0.00000   -0.06840    0.00000   -0.17060    0.00000  # c1,sc,c,hc
dihedral_coeff	 8   -0.14320    0.00000    0.06170    0.00000   -0.10830    0.00000  # hc,c,c1,hc
dihedral_coeff	 9   -0.20780    0.00000   -0.10600    0.00000   -0.35950    0.00000  # hc,c,c1,s
dihedral_coeff	10   -0.20780    0.00000   -0.10600    0.00000   -0.35950    0.00000  # hc,c,c1,sc
dihedral_coeff	11   -0.20780    0.00000   -0.10600    0.00000   -0.35950    0.00000  # hc,c1,c,sc
dihedral_coeff	12   -0.53740    0.00000   -0.50910    0.00000   -0.13610    0.00000  # hc,c1,s,hs
dihedral_coeff	13   -1.20020    0.00000   -1.29990    0.00000   -0.16260    0.00000  # s,c1,c,sc
dihedral_coeff	14   -1.20020    0.00000   -1.29990    0.00000   -0.16260    0.00000  # sc,c,c1,sc

# MiddleBondTorsion Coeffs

dihedral_coeff	 1 mbt  -14.87900   -3.65810   -0.31380    1.53000  # c,c1,c,hc
dihedral_coeff	 2 mbt   -4.25930   -5.64680   -3.38350    1.53000  # c,c1,c,sc
dihedral_coeff	 3 mbt    0.50200   -1.02040   -0.91770    1.82300  # c,c1,s,hs
dihedral_coeff	 4 mbt   -2.51720   -2.01070   -2.85470    1.82300  # c,c1,sc,c
dihedral_coeff	 5 mbt   -0.69550   -2.94270   -1.23720    1.82300  # c,sc,c1,hc
dihedral_coeff	 6 mbt   -2.51720   -2.01070   -2.85470    1.82300  # c1,c,sc,c1
dihedral_coeff	 7 mbt   -0.69550   -2.94270   -1.23720    1.82300  # c1,sc,c,hc
dihedral_coeff	 8 mbt  -14.26100   -0.53220   -0.48640    1.53000  # hc,c,c1,hc
dihedral_coeff	 9 mbt   -5.75370   -2.01040    0.28130    1.53000  # hc,c,c1,s
dihedral_coeff	10 mbt   -5.75370   -2.01040    0.28130    1.53000  # hc,c,c1,sc
dihedral_coeff	11 mbt   -5.75370   -2.01040    0.28130    1.53000  # hc,c1,c,sc
dihedral_coeff	12 mbt   -0.37290    0.53730   -0.70350    1.82300  # hc,c1,s,hs
dihedral_coeff	13 mbt    1.70010   -3.34790   -0.80670    1.53000  # s,c1,c,sc
dihedral_coeff	14 mbt    1.70010   -3.34790   -0.80670    1.53000  # sc,c,c1,sc

# EndBondTorsion Coeffs

dihedral_coeff	 1 ebt    0.24860    0.24220   -0.09250    0.08140    0.05910    0.22190    1.53000    1.10100  # c,c1,c,hc
dihedral_coeff	 2 ebt   -0.15860   -0.72440   -0.26080   -0.79910   -0.95900    0.58550    1.53000    1.82300  # c,c1,c,sc
dihedral_coeff	 3 ebt    0.10260    0.09360   -0.04040   -0.30080    0.06060    0.45010    1.53000    1.32610  # c,c1,s,hs
dihedral_coeff	 4 ebt   -0.25420   -0.79840   -0.65250   -0.30470   -0.01090   -0.37630    1.53000    1.82300  # c,c1,sc,c
dihedral_coeff	 5 ebt    0.25920   -0.01660    0.13060   -0.41000    0.06680    0.41870    1.82300    1.10100  # c,sc,c1,hc
dihedral_coeff	 6 ebt   -0.25420   -0.79840   -0.65250   -0.30470   -0.01090   -0.37630    1.53000    1.82300  # c1,c,sc,c1
dihedral_coeff	 7 ebt    0.25920   -0.01660    0.13060   -0.41000    0.06680    0.41870    1.82300    1.10100  # c1,sc,c,hc
dihedral_coeff	 8 ebt    0.21300    0.31200    0.07770    0.21300    0.31200    0.07770    1.10100    1.10100  # hc,c,c1,hc
dihedral_coeff	 9 ebt   -0.15260   -0.37100    0.10480    1.06610    0.32980    0.42500    1.10100    1.82300  # hc,c,c1,s
dihedral_coeff	10 ebt   -0.15260   -0.37100    0.10480    1.06610    0.32980    0.42500    1.10100    1.82300  # hc,c,c1,sc
dihedral_coeff	11 ebt   -0.15260   -0.37100    0.10480    1.06610    0.32980    0.42500    1.10100    1.82300  # hc,c1,c,sc
dihedral_coeff	12 ebt    0.43760    0.20010   -1.06960    0.29020    0.06950    0.17260    1.10100    1.32610  # hc,c1,s,hs
dihedral_coeff	13 ebt   -0.32520    0.50080    0.51910   -0.32520    0.50080    0.51910    1.82300    1.82300  # s,c1,c,sc
dihedral_coeff	14 ebt   -0.32520    0.50080    0.51910   -0.32520    0.50080    0.51910    1.82300    1.82300  # sc,c,c1,sc

# AngleTorsion Coeffs

dihedral_coeff	 1 at   -0.24540    0.00000   -0.11360    0.31130    0.45160   -0.19880  112.67000  110.77000  # c,c1,c,hc
dihedral_coeff	 2 at   -2.09270   -0.14980   -1.78480    1.11790    0.36380    0.94230  112.67000  112.56420  # c,c1,c,sc
dihedral_coeff	 3 at   -0.60450    3.89410    0.88850    1.01930   -0.60160    0.20970  112.56420   96.84790  # c,c1,s,hs
dihedral_coeff	 4 at    5.12890    2.09270   -2.40040   -4.54890    0.08860    0.62370  112.56420   97.50000  # c,c1,sc,c
dihedral_coeff	 5 at   -1.08880   -0.20000   -0.09090    0.59620    3.34790    0.22650   97.50000  107.85220  # c,sc,c1,hc
dihedral_coeff	 6 at    5.12890    2.09270   -2.40040   -4.54890    0.08860    0.62370  112.56420   97.50000  # c1,c,sc,c1
dihedral_coeff	 7 at   -1.08880   -0.20000   -0.09090    0.59620    3.34790    0.22650   97.50000  107.85220  # c1,sc,c,hc
dihedral_coeff	 8 at   -0.80850    0.55690   -0.24660   -0.80850    0.55690   -0.24660  110.77000  110.77000  # hc,c,c1,hc
dihedral_coeff	 9 at   -2.03820    0.21020   -0.90230    0.33220   -0.05190   -0.35530  110.77000  112.56420  # hc,c,c1,s
dihedral_coeff	10 at   -2.03820    0.21020   -0.90230    0.33220   -0.05190   -0.35530  110.77000  112.56420  # hc,c,c1,sc
dihedral_coeff	11 at   -2.03820    0.21020   -0.90230    0.33220   -0.05190   -0.35530  110.77000  112.56420  # hc,c1,c,sc
dihedral_coeff	12 at   -2.25330    2.69480   -0.17230    1.43400   -0.19150   -0.26110  107.85220   96.84790  # hc,c1,s,hs
dihedral_coeff	13 at   -5.05650   -0.63550    0.60150   -5.05650   -0.63550    0.60150  112.56420  112.56420  # s,c1,c,sc
dihedral_coeff	14 at   -5.05650   -0.63550    0.60150   -5.05650   -0.63550    0.60150  112.56420  112.56420  # sc,c,c1,sc

# AngleAngleTorsion Coeffs

dihedral_coeff	 1 aat  -16.16400  112.67000  110.77000  # c,c1,c,hc
dihedral_coeff	 2 aat  -26.71000  112.67000  112.56420  # c,c1,c,sc
dihedral_coeff	 3 aat  -28.17280  112.56420   96.84790  # c,c1,s,hs
dihedral_coeff	 4 aat  -32.89490  112.56420   97.50000  # c,c1,sc,c
dihedral_coeff	 5 aat  -26.49000   97.50000  107.85220  # c,sc,c1,hc
dihedral_coeff	 6 aat  -32.89490  112.56420   97.50000  # c1,c,sc,c1
dihedral_coeff	 7 aat  -26.49000   97.50000  107.85220  # c1,sc,c,hc
dihedral_coeff	 8 aat  -12.56400  110.77000  110.77000  # hc,c,c1,hc
dihedral_coeff	 9 aat  -13.10260  110.77000  112.56420  # hc,c,c1,s
dihedral_coeff	10 aat  -13.10260  110.77000  112.56420  # hc,c,c1,sc
dihedral_coeff	11 aat  -13.10260  110.77000  112.56420  # hc,c1,c,sc
dihedral_coeff	12 aat  -18.63340  107.85220   96.84790  # hc,c1,s,hs
dihedral_coeff	13 aat  -13.96740  112.56420  112.56420  # s,c1,c,sc
dihedral_coeff	14 aat  -13.96740  112.56420  112.56420  # sc,c,c1,sc

# BondBond13 Coeffs

dihedral_coeff	 1 bb13    0.00000    1.53000    1.10100  # c,c1,c,hc
dihedral_coeff	 2 bb13    0.00000    1.53000    1.82300  # c,c1,c,sc
dihedral_coeff	 3 bb13    0.00000    1.53000    1.32610  # c,c1,s,hs
dihedral_coeff	 4 bb13    0.00000    1.53000    1.82300  # c,c1,sc,c
dihedral_coeff	 5 bb13    0.00000    1.82300    1.10100  # c,sc,c1,hc
dihedral_coeff	 6 bb13    0.00000    1.53000    1.82300  # c1,c,sc,c1
dihedral_coeff	 7 bb13    0.00000    1.82300    1.10100  # c1,sc,c,hc
dihedral_coeff	 8 bb13    0.00000    1.10100    1.10100  # hc,c,c1,hc
dihedral_coeff	 9 bb13    0.00000    1.10100    1.82300  # hc,c,c1,s
dihedral_coeff	10 bb13    0.00000    1.10100    1.82300  # hc,c,c1,sc
dihedral_coeff	11 bb13    0.00000    1.10100    1.82300  # hc,c1,c,sc
dihedral_coeff	12 bb13    0.00000    1.10100    1.32610  # hc,c1,s,hs
dihedral_coeff	13 bb13    0.00000    1.82300    1.82300  # s,c1,c,sc
dihedral_coeff	14 bb13    0.00000    1.82300    1.82300  # sc,c,c1,sc

# Improper Coeffs

improper_coeff	 1    0.00000    0.00000  # c,c1,hc,hc
improper_coeff	 2    0.00000    0.00000  # c,c1,hc,sc
improper_coeff	 3    0.00000    0.00000  # c,hc,hc,hc
improper_coeff	 4    0.00000    0.00000  # c,hc,hc,sc
improper_coeff	 5    0.00000    0.00000  # c1,c,c,hc
improper_coeff	 6    0.00000    0.00000  # c1,c,c,s
improper_coeff	 7    0.00000    0.00000  # c1,c,c,sc
improper_coeff	 8    0.00000    0.00000  # c1,c,hc,s
improper_coeff	 9    0.00000    0.00000  # c1,c,hc,sc
improper_coeff	10    0.00000    0.00000  # c1,c,s,hc
improper_coeff	11    0.00000    0.00000  # c1,c,sc,hc

# AngleAngle Coeffs

improper_coeff	 1 aa    0.27380   -0.48250    0.27380  110.77000  110.77000  107.66000  # c,c1,hc,hc
improper_coeff	 2 aa    2.79850   -3.00310   -0.06680  110.77000  112.56420  107.85220  # c,c1,hc,sc
improper_coeff	 3 aa   -0.31570   -0.31570   -0.31570  107.66000  107.66000  107.66000  # c,hc,hc,hc
improper_coeff	 4 aa    0.50860    0.50860   -0.06400  107.66000  107.85220  107.85220  # c,hc,hc,sc
improper_coeff	 5 aa   -1.31990   -1.31990    0.11840  112.67000  110.77000  110.77000  # c1,c,c,hc
improper_coeff	 6 aa   -0.25640   -0.25640   -0.87660  112.67000  112.56420  112.56420  # c1,c,c,s
improper_coeff	 7 aa   -0.25640   -0.25640   -0.87660  112.67000  112.56420  112.56420  # c1,c,c,sc
improper_coeff	 8 aa    2.79850   -3.00310   -0.06680  110.77000  112.56420  107.85220  # c1,c,hc,s
improper_coeff	 9 aa    2.79850   -3.00310   -0.06680  110.77000  112.56420  107.85220  # c1,c,hc,sc
improper_coeff	10 aa   -0.06680   -3.00310    2.79850  112.56420  110.77000  107.85220  # c1,c,s,hc
improper_coeff	11 aa   -0.06680   -3.00310    2.79850  112.56420  110.77000  107.85220  # c1,c,sc,hc


# --- Thermo Output ---
thermo_style custom step time temp press enthalpy etotal ke pe ebond eangle edihed eimp evdwl ecoul vol lx ly lz density pxx pyy pzz
thermo_modify flush yes
thermo 1000

# --- Trajectory ---
dump dump_comp all custom 2000 npt_compress.dump id type mol x y z ix iy iz vx vy vz

restart 10000 compress_1.rst compress_2.rst
velocity all create 600.0 1001 mom yes rot yes dist gaussian
# SHAKE disabled

# --- NPT Compression ---
# High pressure compresses the cell from low to target density
# P ramp: 1.0 -> 50000.0 atm
timestep 0.5
fix npt_comp all npt temp 640.0 640.0 100.0 iso 1.0 50000.0 1000.0

run 300000

CITE-CITE-CITE-CITE-CITE-CITE-CITE-CITE-CITE-CITE-CITE-CITE-CITE

Your simulation uses code contributions which should be cited:

- GPU package (short-range, long-range and three-body potentials): doi:10.1016/j.cpc.2010.12.021, doi:10.1016/j.cpc.2011.10.012, doi:10.1016/j.cpc.2013.08.002, doi:10.1016/j.commatsci.2014.10.068, doi:10.1016/j.cpc.2016.10.020, doi:10.3233/APC200086

@Article{Brown11,
 author = {W. M. Brown and P. Wang and S. J. Plimpton and A. N. Tharrington},
 title = {Implementing Molecular Dynamics on Hybrid High Performance Computers---Short Range Forces},
 journal = {Comput.\ Phys.\ Commun.},
 year =    2011,
 volume =  182,
 pages =   {898--911},
 doi =     {10.1016/j.cpc.2010.12.021}
}

@Article{Brown12,
 author = {W. M. Brown and A. Kohlmeyer and S. J. Plimpton and A. N. Tharrington},
 title = {Implementing Molecular Dynamics on Hybrid High Performance Computers - Particle-Particle Particle-Mesh},
 journal = {Comput.\ Phys.\ Commun.},
 year =    2012,
 volume =  183,
 doi =     {10.1016/j.cpc.2011.10.012},
 pages =   {449--459}
}

@Article{Brown13,
 author = {W. M. Brown and Y. Masako},
 title = {Implementing Molecular Dynamics on Hybrid High Performance Computers---Three-Body Potentials},
 journal = {Comput.\ Phys.\ Commun.},
 year =    2013,
 volume =  184,
 pages =   {2785--2793},
 doi =     {10.1016/j.cpc.2013.08.002},
}

@Article{Trung15,
 author = {T. D. Nguyen and S. J. Plimpton},
 title = {Accelerating Dissipative Particle Dynamics Simulations for Soft Matter Systems},
 journal = {Comput.\ Mater.\ Sci.},
 year =    2015,
 doi =     {10.1016/j.commatsci.2014.10.068},
 volume =  100,
 pages =   {173--180}
}

@Article{Trung17,
 author = {T. D. Nguyen},
 title = {{GPU}-Accelerated {T}ersoff Potentials for Massively Parallel
    Molecular Dynamics Simulations},
 journal = {Comput.\ Phys.\ Commun.},
 year =    2017,
 doi =     {10.1016/j.cpc.2016.10.020},
 volume =  212,
 pages =   {113--122}
}

@inproceedings{Nikolskiy19,
 author = {V. Nikolskiy and V. Stegailov},
 title = {{GPU} Acceleration of Four-Site Water Models in {LAMMPS}},
 booktitle = {Proceedings of the International Conference on Parallel
    Computing (ParCo 2019), Prague, Czech Republic},
 doi =     {10.3233/APC200086},
 year =    2019
}

CITE-CITE-CITE-CITE-CITE-CITE-CITE-CITE-CITE-CITE-CITE-CITE-CITE

Generated 15 of 15 mixed pair_coeff terms from sixthpower/sixthpower mixing rule
Neighbor list info ...
  update: every = 1 steps, delay = 0 steps, check = yes
  max neighbors/atom: 4000, page size: 100000
  master list distance cutoff = 11.5
  ghost atom cutoff = 11.5
  binsize = 5.75, bins = 8 8 8
  1 neighbor lists, perpetual/occasional/extra = 1 0 0
  (1) pair lj/class2/coul/cut, perpetual
      attributes: half, newton on
      pair build: half/bin/newton
      stencil: half/bin/3d
      bin: standard
Per MPI rank memory allocation (min/avg/max) = 13.69 | 13.73 | 14.07 Mbytes
   Step          Time           Temp          Press         Enthalpy        TotEng         KinEng         PotEng         E_bond        E_angle        E_dihed        E_impro         E_vdwl         E_coul         Volume           Lx             Ly             Lz          Density          Pxx            Pyy            Pzz      
         0   0              600           -361.59669      6484.6338      6884.4631      7187.9254     -303.46223      2782.4537      4197.9215     -6599.92        6.9648945      81.956473     -772.83877      75818.337      42.324459      42.324459      42.324459      0.64999999     1300.0686     -1095.3123     -1289.5464    
      1000   500            644.79428      44.363071      7773.2389      7724.6408      7724.5553      0.085540731    2819.4966      4288.0529     -6491.3589      8.1161556      117.74318     -741.96449      75114.147      42.193017      42.193017      42.193017      0.65609369     534.01165      98.01777      -498.94021    
      2000   1000           651.22416      644.08031      8427.3594      7745.6243      7801.5844     -55.960099      2886.0132      4295.8145     -6541.0171      6.7376588      80.690349     -784.19873      72577.122      41.712535      41.712535      41.712535      0.67902828    -54.396904      1607.5713      379.06651    
      3000   1500           633.66861     -285.50562      7350.9195      7644.9433      7591.2712      53.672141      2931.4495      4340.8473     -6571.1607      5.3211095      113.75514     -766.54027      70614.194      41.333039      41.333039      41.333039      0.69790385     200.99259     -291.25097     -766.25846    
      4000   2000           636.31289     -698.21581      6894.9759      7587.0882      7622.9493     -35.86106       2858.8207      4378.862      -6595.3916      5.270521       33.361335     -716.78403      67969.024      40.810352      40.810352      40.810352      0.72506438     724.28331     -1454.8807     -1364.0501    
      5000   2500           612.24001      548.63708      7588.3438      7061.3814      7334.5591     -273.17772      2818.4357      4215.5097     -6577.3446      5.7815435      20.833949     -756.39402      65859.526      40.383709      40.383709      40.383709      0.74828838     978.79775      418.18489      248.9286     
      6000   3000           632.93684      1289.0271      8766.2864      7574.9982      7582.5046     -7.5064603      2939.7041      4431.9567     -6665.848       6.0600662      67.482111     -786.86139      63369.299      39.86817       39.86817       39.86817       0.77769391    -181.80698      2371.1819      1677.7065    
      7000   3500           653.2619       250.98952      7832.4206      7609.1627      7825.9963     -216.83363      2841.4082      4268.2436     -6508.745       5.0065098     -69.47589      -753.27104      60992.362      39.363329      39.363329      39.363329      0.80800146    -107.54223      787.62398      72.886825    
      8000   4000           639.88979      2561.2974      9313.5622      7112.6751      7665.8        -553.12497      2808.1874      4162.8924     -6630.6139      7.3898918     -78.619381     -822.3614       58919.881      38.912334      38.912334      38.912334      0.83642257     2317.3593      2215.1989      3151.334     
      9000   4500           633.91931      1283.7114      8305.0051      7237.4742      7594.2745     -356.80022      2841.895       4316.8314     -6550.0302      8.8475882     -174.64055     -799.70349      57021.307      38.489806      38.489806      38.489806      0.86427199     2431.5852     -89.354444      1508.9034    
     10000   5000           638.68891      1135.5988      8437.4859      7518.4614      7651.4136     -132.95224      2723.1781      4522.9912     -6581.6592      10.20834      -114.04495     -693.62564      55491.475      38.142465      38.142465      38.142465      0.88809891    -203.84029      2257.4965      1353.1403    
     11000   5500           645.4233       1064.6256      8339.7187      7492.2375      7732.0908     -239.85328      2910.4364      4307.8469     -6561.9998      8.3020105     -136.00565     -768.43311      54582.986      37.933166      37.933166      37.933166      0.90288058     977.91209      1977.7524      238.21226    
     12000   6000           633.90919      1619.7377      8588.4946      7328.0584      7594.1532     -266.09487      2906.3337      4377.5264     -6546.4475      7.1183839     -227.51591     -783.10998      53358.092      37.647265      37.647265      37.647265      0.92360721     2195.7084      687.87791      1975.6269    
     13000   6500           647.49478      1835.4779      8709.9575      7321.855       7756.9069     -435.05184      2778.5406      4328.5356     -6537.7925      6.9631721     -207.38315     -803.91558      51855.695      37.290553      37.290553      37.290553      0.95036655     2883.5205      3301.7998     -678.88665    
     14000   7000           646.5017       2266.6628      9025.5143      7337.572       7745.0099     -407.43786      2872.7692      4292.1952     -6622.0641      10.450577     -233.49679     -727.29193      51061.642      37.099233      37.099233      37.099233      0.96514558     805.95463      2766.7255      3227.3084    
     15000   7500           642.62448      1841.0043      8631.4536      7276.1528      7698.5613     -422.40851      2810.2602      4373.5065     -6615.5468      1.840169      -258.5015      -733.96709      50478.332      36.957422      36.957422      36.957422      0.97629847     2873.903       688.4491       1960.6608    
     16000   8000           644.23458      2845.4591      9299.5108      7222.5615      7717.8501     -495.28859      2784.0148      4468.0861     -6688.4353      7.5039978     -266.43286     -800.02526      50049.26       36.852409      36.852409      36.852409      0.98466827     3111.0092      3481.3003      1944.0678    
     17000   8500           632.12228      2322.8243      8461.6848      6774.1311      7572.7463     -798.61515      2703.1108      4188.1467     -6693.131       11.518666     -265.30673     -742.95363      49815.598      36.79497       36.79497       36.79497       0.98928689     2461.2094      3526.5126      980.75096    
     18000   9000           644.16032      1599.0834      8173.5752      7017.4468      7716.9605     -699.51366      2784.9587      4198.4233     -6642.697       8.7252533     -277.37788     -771.54616      49574.581      36.735534      36.735534      36.735534      0.99409651     1273.2655      1875.6466      1648.338     
     19000   9500           646.64568      1998.8497      8577.7006      7152.9142      7746.7348     -593.82058      2766.8509      4255.4156     -6611.8021      5.8072524     -264.13185     -745.96035      48875.782      36.562109      36.562109      36.562109      1.0083096      5778.0923      713.58074     -495.12379    
     20000   10000          648.06382      4380.4466      10450.005      7310.4621      7763.724      -453.26185      2768.109       4270.2803     -6526.8315      7.3039003     -232.53597     -739.58758      49144.191      36.628916      36.628916      36.628916      1.0028025      5642.2199      3128.7913      4370.3286    
     21000   10500          639.58619      2627.7388      9028.664       7189.2609      7662.163      -472.90208      2698.0777      4406.4314     -6623.0093      4.0091086     -219.88692     -738.524        47997.524      36.341787      36.341787      36.341787      1.0267596      1556.99        1821.0708      4505.1557    
     22000   11000          637.02561      3469.3438      9381.3015      6972.6641      7631.4875     -658.82339      2701.966       4318.3184     -6653.9831      5.2556812     -245.80494     -784.5755       47604.519      36.242326      36.242326      36.242326      1.0352361      4119.369       1964.0755      4324.5869    
     23000   11500          633.94157      2529.4905      8697.2746      6946.8415      7594.5411     -647.69962      2709.8076      4327.6971     -6584.2064      6.4112684     -315.41041     -791.99878      47450.038      36.20308       36.20308       36.20308       1.0386065      1089.2223      2931.0329      3568.2163    
     24000   12000          631.8607       2385.7183      8810.2611      7157.6342      7569.6126     -411.97841      2834.1819      4322.9516     -6543.3226      5.7728341     -292.90796     -738.65418      47498.486      36.215397      36.215397      36.215397      1.0375471      2594.4016      3042.5847      1520.1686    
     25000   12500          652.05684      4616.0806      10524.487      7337.9658      7811.5598     -473.59398      2836.7571      4232.7766     -6534.6016      5.6550068     -287.26321     -726.91793      47333.386      36.173388      36.173388      36.173388      1.0411661      3464.7302      4307.7856      6075.7259    
     26000   13000          640.04099      3847.3729      9788.9397      7183.4093      7667.6115     -484.20217      2861.8509      4349.0445     -6640.8679      8.9292429     -333.75791     -729.40103      46436.125      35.943359      35.943359      35.943359      1.061284       3948.0769      4461.8703      3132.1715    
     27000   13500          635.52706      4589.5565      10154.111      7047.8706      7613.5352     -565.66457      2733.9149      4386.6452     -6638.8805      10.286731     -321.56582     -736.06515      46407.523      35.935978      35.935978      35.935978      1.0619381      5035.1561      4087.5007      4646.0127    
     28000   14000          636.45068      3752.5961      9411.3617      6862.5052      7624.6        -762.09475      2781.0778      4257.0847     -6660.4784      6.1091716     -354.08148     -791.80653      46573.372      35.978735      35.978735      35.978735      1.0581565      4608.97        2763.5985      3885.2196    
     29000   14500          642.60669      5702.5275      10970.053      7168.1467      7698.3482     -530.2015       2842.7618      4355.9476     -6622.1587      8.2616118     -332.26635     -782.74752      45714.937      35.756311      35.756311      35.756311      1.0780266      6097.3147      7916.1837      3094.084     
     30000   15000          633.19918      5742.7456      10982.157      7128.6781      7585.6474     -456.96928      2714.0074      4376.8278     -6611.7377      10.191251     -243.97046     -702.28758      46010.565      35.833222      35.833222      35.833222      1.0711         4663.1713      6029.8464      6535.219     
     31000   15500          631.8988       3665.2538      9356.8198      6882.7396      7570.069      -687.32943      2795.2192      4224.7059     -6554.3762      4.8462634     -315.56464     -842.15998      46284.315      35.904147      35.904147      35.904147      1.064765       2581.4952      963.3687       7450.8974    
     32000   16000          639.56192      6863.2805      11657.27       7130.4112      7661.8722     -531.46099      2717.888       4428.3924     -6651.7616      3.9291029     -284.98444     -744.92448      45226.122      35.628411      35.628411      35.628411      1.0896782      6953.76        7180.7452      6455.3363    
     33000   16500          646.08574      6722.5658      11815.35       7361.0311      7740.0268     -378.99566      2968.656       4347.4879     -6615.1425      6.9370679     -311.4246      -775.50953      45432.886      35.682623      35.682623      35.682623      1.0847191      6880.5522      6194.1799      7092.9655    
     34000   17000          640.90283      5983.0779      11286.514      7340.036       7677.9361     -337.90009      2825.3247      4487.1673     -6630.0178      3.49527       -302.90987     -720.95971      45228.186      35.628953      35.628953      35.628953      1.0896285      5491.614       6975.6069      5482.0126    
     35000   17500          630.42328      3758.5961      9285.4802      6832.1224      7552.3925     -720.27009      2774.3439      4323.4768     -6536.4992      2.5933283     -395.11039     -889.07453      44756.834      35.504749      35.504749      35.504749      1.1011038      3634.8895      4531.6161      3109.2826    
     36000   18000          639.49551      4361.3847      9995.782       7180.8902      7661.0767     -480.18646      2908.2081      4231.6994     -6629.4889      7.9649284     -270.59405     -727.97592      44254.906      35.371527      35.371527      35.371527      1.1135922      2714.2193      6156.7555      4213.1792    
     37000   18500          631.69333      8516.7562      12234.616      6740.0047      7567.6076     -827.60291      2650.1422      4295.5486     -6660.5416      7.5270162     -345.79516     -774.48398      44237.126      35.366789      35.366789      35.366789      1.1140398      9147.1104      8856.6042      7546.5541    
     38000   19000          635.79093      6445.354       11307.382      7108.0604      7616.6963     -508.63594      2803.1952      4385.8225     -6535.4503      2.2612855     -322.58734     -841.87725      44674.168      35.482877      35.482877      35.482877      1.1031413      4729.668       6667.3743      7939.0196    
     39000   19500          651.07377      7136.8938      11805.997      7251.9718      7799.7827     -547.8109       2816.2121      4208.0795     -6508.8309      10.100939     -289.50327     -783.86928      43753.25       35.237366      35.237366      35.237366      1.1263602      7823.6599      6445.4153      7141.6062    
     40000   20000          638.82979      6284.6351      11111.23       7080.4251      7653.1013     -572.67625      2788.9881      4261.3888     -6574.5412      11.120351     -275.3706      -784.26178      43978.037      35.297608      35.297608      35.297608      1.120603       6429.3841      6586.0026      5838.5187    
     41000   20500          635.4775       6040.8279      10775.36       6948.7843      7612.9414     -664.15706      2813.7135      4244.5441     -6602.4561      8.7780304     -312.18427     -816.55232      43434.815      35.151672      35.151672      35.151672      1.1346179      6156.4302      8293.8135      3672.2401    
     42000   21000          625.42519      5830.4781      10709.795      6986.3325      7492.5159     -506.18345      2882.022       4211.7788     -6547.8381      8.1284939     -290.51781     -769.75685      43789.19       35.247012      35.247012      35.247012      1.1254357      5642.7981      5665.6547      6182.9816    
     43000   21500          627.23054      7622.5485      11717.337      6898.793       7514.1439     -615.3509       2758.0701      4300.543      -6654.0981      5.1675321     -283.58697     -741.44652      43345.076      35.127447      35.127447      35.127447      1.1369669      9152.2734      5579.9293      8135.4429    
     44000   22000          625.50154      6595.0105      10983.303      6798.8969      7493.4306     -694.5337       2711.7593      4333.7151     -6626.8947      6.772375      -312.8695      -807.01629      43505.334      35.170686      35.170686      35.170686      1.1327788      5175.0318      8944.0666      5665.933     
     45000   22500          646.81723      8780.4035      12624.328      7144.9237      7748.7899     -603.86625      2755.578       4353.7778     -6719.2728      7.3146284     -242.90765     -758.3562       42790.065      34.976873      34.976873      34.976873      1.151714       7598.6334      9523.4375      9219.1397    
     46000   23000          647.07691      6810.6036      11330.16       7065.0185      7751.9009     -686.88237      2760.1945      4359.9927     -6657.5274      8.6465183     -375.07363     -783.11504      42940.98       35.017944      35.017944      35.017944      1.1476664      7570.4427      5698.4486      7162.9196    
     47000   23500          626.09899      6782.6669      11119.153      6876.2878      7500.588      -624.30021      2839.3285      4326.5453     -6643.3198      6.0936971     -384.45395     -768.49397      42892.646      35.004801      35.004801      35.004801      1.1489596      5964.5316      6983.2856      7400.1836    
     48000   24000          629.36999      9933.9444      12985.284      6819.0933      7539.7742     -720.68085      2796.6589      4167.7067     -6579.1755      6.5354431     -268.61264     -843.79376      42561.733      34.914549      34.914549      34.914549      1.1578927      11276.062      11117.266      7408.5053    
     49000   24500          652.39199      9241.0777      12729.729      6957.7375      7815.5749     -857.83735      2695.3393      4235.5544     -6663.4233      3.8695806     -358.54527     -770.63206      42827.941      34.98719       34.98719       34.98719       1.1506955      10278.817      7998.3307      9446.085     
     50000   25000          646.87741      9906.701       13244.791      7155.0869      7749.5109     -594.42402      2755.4076      4287.3342     -6656.3479      6.4989853     -287.44731     -699.86968      42149.385      34.801429      34.801429      34.801429      1.1692203      9984.5955      9308.5267      10426.981    
     51000   25500          654.0348       10036.929      13381.391      7170.6448      7835.2555     -664.61075      2808.3894      4282.0238     -6654.0547      8.0720751     -377.44438     -731.59694      42429.414      34.87833       34.87833       34.87833       1.1615036      10549.508      9161.82        10399.458    
     52000   26000          643.99793      8661.8171      12647.137      7314.7272      7715.0151     -400.28785      2836.6816      4380.2947     -6626.9579      6.71385       -279.32915     -717.69094      42212.261      34.818726      34.818726      34.818726      1.1674788      8982.2609      6129.7383      10873.452    
     53000   26500          639.0295       7413.3426      11671.909      7131.4271      7655.4939     -524.06686      2861.2207      4381.852      -6626.5387      3.9715018     -328.99517     -815.57723      41996.39       34.759271      34.759271      34.759271      1.1734799      6748.839       7156.2525      8334.9364    
     54000   27000          640.65756      7811.3501      11852.654      7041.4678      7674.9978     -633.53001      2818.2584      4236.0773     -6567.0505      2.5151898     -308.78447     -814.54584      42232.825      34.824379      34.824379      34.824379      1.1669103      4313.3736      8699.6863      10420.99     
     55000   27500          638.33671      11953.31       14271.124      6985.3606      7647.1944     -661.83375      2694.2232      4301.7678     -6678.791       2.441579      -230.98916     -750.48622      41793.72       34.703265      34.703265      34.703265      1.1791704      12221.948      10819.909      12818.073    
     56000   28000          625.41743      9495.4867      12594.199      6806.5458      7492.423      -685.87719      2818.9107      4194.502      -6660.7991      3.2240438     -255.64465     -786.0702       41793.562      34.703222      34.703222      34.703222      1.1791749      9498.4086      10378.598      8609.4533    
     57000   28500          627.88932      9370.1234      12551.425      6840.7564      7522.036      -681.27956      2739.8911      4288.1804     -6579.222       6.3563949     -341.63665     -794.84879      41789.361      34.702059      34.702059      34.702059      1.1792934      10251.627      9359.3491      8499.3938    
     58000   29000          636.48426      11019.552      13893.929      7168.5052      7625.0022     -456.497        2825.2496      4403.9212     -6626.1413      0.76502478    -273.5201      -786.7715       41848.493      34.718419      34.718419      34.718419      1.1776271      11234.05       11346.964      10477.641    
     59000   29500          647.37914      11685.146      14171.327      7107.1928      7755.5215     -648.32869      2657.621       4331.8802     -6586.7418      8.8523189     -293.56254     -766.37787      41452.323      34.608514      34.608514      34.608514      1.1888819      10932.788      11546.087      12576.564    
     60000   30000          642.14778      9499.6947      12753.203      7028.0005      7692.8505     -664.84994      2770.6705      4270.8777     -6639.6195      5.4436346     -326.84401     -745.37832      41324.278      34.572843      34.572843      34.572843      1.1925657      10264.458      10011.747      8222.8791    
     61000   30500          622.74087      12130.012      14321.188      7002.8408      7460.3582     -457.51738      2840.5593      4296.0463     -6646.9024      4.3219908     -186.17068     -765.37179      41369.083      34.585333      34.585333      34.585333      1.1912741      12270.549      10334.556      13784.933    
     62000   31000          632.6374       11294.293      13959.8        7191.9058      7578.9174     -387.01159      2808.3286      4355.5143     -6556.7447     -0.020483209   -249.96067     -744.12872      41088.338      34.50692       34.50692       34.50692       1.1994138      11405.352      12108.63       10368.899    
     63000   31500          631.09879      13154.269      14895.51       7047.402       7560.485      -513.08298      2808.3275      4329.8769     -6642.244       1.8095604     -295.94054     -714.91242      40909.332      34.456735      34.456735      34.456735      1.204662       13468.458      12285.88       13708.47     
     64000   32000          631.12313      10805.513      13405.118      6970.369       7560.7766     -590.40757      2742.358       4308.9367     -6571.3637      6.0507023     -257.03899     -819.35027      40832.906      34.435265      34.435265      34.435265      1.2069167      9394.5495      11281.002      11740.988    
     65000   32500          633.11836      11316.385      13876.836      7140.2144      7584.6792     -444.4648       2916.9376      4363.1296     -6646.705       2.893705      -315.4255      -765.29511      40818.644      34.431255      34.431255      34.431255      1.2073384      11379.398      12454.089      10115.668    
     66000   33000          649.34139      10680.127      13635.576      7329.4663      7779.0291     -449.56276      2734.0998      4472.9373     -6639.31        4.0794929     -240.43034     -780.93902      40486.405      34.337584      34.337584      34.337584      1.2172461      10401.72       8285.5408      13353.121    
     67000   33500          633.26002      12572.701      14735.984      7350.8557      7586.3762     -235.52055      2915.9478      4396.8047     -6679.7974      2.0453        -187.15146     -683.36956      40276.671      34.278188      34.278188      34.278188      1.2235847      11561.039      12620.506      13536.556    
     68000   34000          643.00085      11635.313      14061.007      7165.117       7703.0702     -537.9532       2809.8196      4373.9849     -6656.2694      4.5865871     -283.66524     -786.40959      40638.378      34.380495      34.380495      34.380495      1.212694       10095.876      14582.593      10227.472    
     69000   34500          637.51838      11056.716      13617.619      7101.946       7637.3908     -535.44487      2761.2404      4331.7704     -6640.5302      4.1664104     -241.27632     -750.81558      40407.057      34.315137      34.315137      34.315137      1.2196364      11931.773      10580.069      10658.305    
     70000   35000          631.56135      13605.266      14862.726      6857.2202      7566.0264     -708.80623      2712.2947      4259.7127     -6706.9202      6.7370739     -177.73089     -802.89963      40346.499      34.297986      34.297986      34.297986      1.221467       13558.552      12449.618      14807.627    
     71000   35500          636.02689      9932.0492      12760.078      6932.7622      7619.523      -686.76077      2831.681       4201.3348     -6637.3445      9.6542499     -279.67294     -812.41337      40230.351      34.265043      34.265043      34.265043      1.2249935      9019.1526      11736.168      9040.8266    
     72000   36000          630.88042      11069.907      13406.038      6945.5296      7557.8689     -612.33925      2717.3501      4239.0496     -6569.9175      8.5067196     -267.66265     -739.66557      40017.211      34.204423      34.204423      34.204423      1.2315181      12522.331      8157.0157      12530.374    
     73000   36500          637.35982      14186.237      15442.829      7058.8385      7635.4914     -576.65291      2730.4118      4388.5493     -6571.2698      3.8381032     -290.73593     -837.44634      40523.57       34.348088      34.348088      34.348088      1.2161297      16702.311      14299.556      11556.845    
     74000   37000          645.49332      12030.673      14418.403      7422.7201      7732.9297     -310.20962      2828.1078      4270.963      -6586.9745      8.5827981     -147.9465      -682.9423       39871.66       34.162903      34.162903      34.162903      1.2360137      11873.863      10609.348      13608.809    
     75000   37500          641.10734      9964.1044      12954.656      7086.904       7680.3862     -593.48218      2826.1529      4229.3768     -6594.1827      6.4117177     -251.77399     -809.46687      40379.189      34.307247      34.307247      34.307247      1.2204782      8261.7761      12214.121      9416.4165    
     76000   38000          642.165        13628.124      14957.631      7036.2646      7693.0569     -656.79222      2740.4864      4267.2701     -6678.1945      4.1762868     -170.80914     -819.72142      39855.488      34.158284      34.158284      34.158284      1.2365152      13870.445      12353.745      14660.182    
     77000   38500          641.74627      12020.032      14258.367      7215.7566      7688.0404     -472.28387      2785.4954      4256.0305     -6653.1103      8.2900563     -217.80951     -651.18007      40174.653      34.249222      34.249222      34.249222      1.2266918      12505.805      12649.507      10904.784    
     78000   39000          654.4025       15969.583      16637.394      7421.1873      7839.6606     -418.47327      2729.9558      4282.8356     -6562.1789      3.7490118     -153.95306     -718.88176      39571.52       34.076965      34.076965      34.076965      1.2453886      14127.904      14607.448      19173.398    
     79000   39500          638.64959      11695.837      13968.872      7191.3065      7650.9426     -459.63614      2777.962       4451.9393     -6687.5524      7.3199658     -222.2772      -787.02788      39734.386      34.123652      34.123652      34.123652      1.2402839      12746.23       10125.987      12215.293    
     80000   40000          636.51483      14970.66       15742.402      7153.849       7625.3684     -471.51946      2797.7673      4327.24       -6577.2522      5.9667455     -188.04005     -837.20132      39337.175      34.009563      34.009563      34.009563      1.2528078      16265.401      12966.631      15679.949    
     81000   40500          628.68         10907.624      13417.732      7131.9199      7531.5082     -399.58832      2792.5465      4256.4525     -6542.7222      4.0719574     -198.52744     -711.40959      39514.397      34.06056       34.06056       34.06056       1.2471889      8380.6974      14413.605      9928.568     
     82000   41000          647.14607      14680.774      15662.244      7241.2961      7752.7295     -511.43336      2690.3026      4396.4671     -6718.3124      5.7088868     -236.24563     -649.3539       39331.104      34.007814      34.007814      34.007814      1.2530011      15679.151      13831.817      14531.355    
     83000   41500          630.59273      14925.666      15463.499      6856.4192      7554.4224     -698.00318      2692.349       4244.1178     -6600.8331      8.1801546     -259.91904     -781.898        39540.871      34.068165      34.068165      34.068165      1.2463539      14812.575      17056.307      12908.114    
     84000   42000          626.32376      13594.681      14636.312      6862.7846      7503.2807     -640.49616      2720.2341      4319.5875     -6622.9473      3.4622744     -217.34204     -843.49066      39207.867      33.972257      33.972257      33.972257      1.2569395      12234.538      15464.448      13085.059    
     85000   42500          640.12333      16283.706      16498.318      7213.2934      7668.5979     -455.30445      2701.6404      4378.1077     -6606.684       5.382777      -206.26469     -727.48662      39097.945      33.94048       33.94048       33.94048       1.2604734      17835.31       15729.151      15286.656    
     86000   43000          641.4393       14183.76       15359.216      7271.409       7684.363      -412.95393      2732.7805      4364.3205     -6573.0312      11.859525     -176.03167     -772.8516       39098.806      33.940729      33.940729      33.940729      1.2604456      12207.643      15788.228      14555.409    
     87000   43500          642.80133      14064.908      15248.659      7232.8976      7700.6799     -467.78232      2759.8197      4351.7391     -6547.6567      10.027261     -240.3751      -801.33652      39077.971      33.934699      33.934699      33.934699      1.2611176      12601.041      14685.657      14908.026    
     88000   44000          653.81664      12812.729      14531          7209.4379      7832.642      -623.20406      2735.0564      4116.2975     -6600.3696      6.7918321     -201.76655     -679.21373      39181.967      33.964775      33.964775      33.964775      1.2577704      13572.046      11963.203      12902.939    
     89000   44500          639.1843       14956.958      15799.544      7329.6198      7657.3484     -327.72852      2708.7046      4461.3381     -6576.8085      3.1919425     -200.69358     -723.461        38829.372      33.862586      33.862586      33.862586      1.2691917      15812.576      13904.109      15154.188    
     90000   45000          648.73641      14986.666      16022.601      7541.4028      7771.7815     -230.37871      2804.2593      4347.245      -6502.4224      3.146389      -206.18866     -676.41839      38803.98       33.855203      33.855203      33.855203      1.2700223      16414.72       13479.498      15065.781    
     91000   45500          657.66166      15110.182      16111.74       7532.8191      7878.7048     -345.88577      2809.6782      4297.2696     -6638.6718      3.3468984     -102.88255     -714.62607      38930.241      33.891883      33.891883      33.891883      1.2659032      15365.618      15966.132      13998.796    
     92000   46000          643.75846      16979.053      16785.569      7167.0655      7712.1463     -545.08079      2735.5601      4169.34       -6623.1364      6.545302      -178.1838      -655.20605      38843.482      33.866687      33.866687      33.866687      1.2687307      14343.682      15327.293      21266.184    
     93000   46500          636.88977      16319.866      16306.19       7109.0416      7629.8602     -520.81856      2734.6438      4352.4582     -6628.5692      8.4265827     -176.69445     -811.08341      38642.102      33.80806       33.80806       33.80806       1.2753426      16459.522      16845.658      15654.417    
     94000   47000          636.83937      14525.903      15232.05       7052.6166      7629.2564     -576.63984      2745.3791      4207.8457     -6623.1456      5.1222868     -179.12381     -732.71752      38610.391      33.798809      33.798809      33.798809      1.27639        14173.685      16687.014      12717.008    
     95000   47500          632.96696      16307.604      16373.701      7258.7924      7582.8654     -324.07302      2711.1916      4459.7513     -6683.4373      6.3059836     -88.750429     -729.13416      38325.361      33.715434      33.715434      33.715434      1.2858827      16033.873      15870.115      17018.822    
     96000   48000          647.15711      16642.859      16744.964      7375.974       7752.8616     -376.8876       2701.2686      4446.4881     -6658.5703      5.8058736     -125.74756     -746.13227      38600.148      33.79582       33.79582       33.79582       1.2767287      13967.534      18683.914      17277.128    
     97000   48500          648.88966      19544.881      18319.658      7455.8979      7773.6174     -317.71957      2768.3088      4402.2247     -6676.1285      3.9495037     -68.642002     -747.43207      38112.834      33.652997      33.652997      33.652997      1.2930531      19618.467      18990.871      20025.305    
     98000   49000          637.55289      18112.723      17559.972      7339.7803      7637.8043     -298.02399      2744.0259      4537.5372     -6605.8013      5.790876      -172.69688     -806.8797       38690.062      33.822041      33.822041      33.822041      1.2737617      17287.861      17010.39       20039.918    
     99000   49500          639.49464      17104.362      16800.155      7291.0268      7661.0663     -370.03943      2691.9373      4329.7582     -6619.1838      6.5094863     -39.947188     -739.11343      38120.444      33.655237      33.655237      33.655237      1.292795       15973.836      19143.967      16195.283    
    100000   50000          640.93198      16801.957      16702.224      7329.2694      7678.2854     -349.01603      2715.9822      4369.2862     -6630.9113      3.0993126     -96.809552     -709.66289      38250.821      33.693562      33.693562      33.693562      1.2883885      14526.618      17730.23       18149.022    
    101000   50500          646.44241      15812.374      16274.852      7470.6329      7744.2996     -273.6667       2839.0371      4397.5943     -6617.8739      6.6336903     -123.61117     -775.44671      38178.414      33.672288      33.672288      33.672288      1.290832       18086.665      14855.378      14495.078    
    102000   51000          636.20538      19492.807      18153.613      7318.1426      7621.6613     -303.51868      2750.037       4374.6494     -6641.9393      2.971359      -18.333836     -770.90333      38115.139      33.653676      33.653676      33.653676      1.2929749      19528.982      17391.798      21557.64     
    103000   51500          633.5461       16196.615      16149.278      7147.8922      7589.8034     -441.91122      2735.2457      4334.926      -6594.8762      5.2042063     -125.96918     -796.44174      38107.392      33.651395      33.651395      33.651395      1.2932377      15698.537      13844.934      19046.376    
    104000   52000          636.02349      17622.089      16984.37       7204.8152      7619.4822     -414.66704      2656.522       4302.0324     -6559.9973      6.4938127     -71.068808     -748.64912      38052.731      33.635298      33.635298      33.635298      1.2950954      16797.497      19147.048      16921.721    
    105000   52500          655.54698      19569.105      18414.046      7593.701       7853.3713     -259.67026      2813.6561      4284.3285     -6560.0045      3.294298      -64.78429      -736.16035      37913.532      33.594234      33.594234      33.594234      1.2998504      17733.252      20815.785      20158.277    
    106000   53000          649.4123       17958.118      17479.118      7500.5423      7779.8786     -279.33635      2781.0367      4382.6615     -6574.5754      2.2055726     -143.72552     -726.93925      38100.603      33.649397      33.649397      33.649397      1.2934682      18796.369      15733.248      19344.736    
    107000   53500          646.21199      17095.152      16908.958      7483.1942      7741.5392     -258.34503      2730.7196      4316.4773     -6525.7387      5.7209783     -46.747784     -738.77647      37806.608      33.562624      33.562624      33.562624      1.3035266      16673.86       20225.856      14385.738    
    108000   54000          638.64725      17165.412      16770.092      7226.0532      7650.9146     -424.86143      2765.2663      4264.026      -6526.8673      4.1759812     -114.61906     -816.84341      38124.318      33.656377      33.656377      33.656377      1.2926636      18636.385      17080.486      15779.367    
    109000   54500          651.8617       21783.592      19366.852      7422.6184      7809.2221     -386.60369      2709.2129      4308.9109     -6569.1791      7.7784559     -62.151518     -781.17535      37596.975      33.500475      33.500475      33.500475      1.3107948      21103.947      21448.769      22798.06     
    110000   55000          644.22454      17627.963      17114.928      7298.1634      7717.7298     -419.56649      2676.3989      4402.9906     -6575.8808      5.8002107     -143.82808     -785.04733      38184.784      33.674161      33.674161      33.674161      1.2906167      15501.744      18530.946      18851.2      
    111000   55500          647.07462      17662.414      16885.971      7205.3075      7751.8734     -546.56594      2619.2883      4452.9471     -6712.5619      2.9351542     -53.61968      -855.55487      37581.94       33.496009      33.496009      33.496009      1.3113192      14885.016      19607.276      18494.948    
    112000   56000          632.12355      20004.856      18141.767      7087.7065      7572.7614     -485.05496      2613.9421      4547.1427     -6670.0289      5.1519244     -152.44256     -828.82025      37888.771      33.586919      33.586919      33.586919      1.3006998      19547.42       20420.554      20046.593    
    113000   56500          638.7707       21025.521      18976.497      7459.2943      7652.3935     -193.0992       2798.3597      4411.4073     -6684.2312      6.4596922     -0.93278178    -724.16187      37559.894      33.489458      33.489458      33.489458      1.3120888      23892.247      18473.969      20710.346    
    114000   57000          644.89416      20488.926      18869.696      7661.6122      7725.7518     -64.13955       2758.4732      4606.3897     -6703.5672      6.9335135     -42.806297     -689.5624       37509.068      33.474345      33.474345      33.474345      1.3138668      20309.598      18791.661      22365.518    
    115000   57500          644.21087      18353.779      17383.766      7392.3758      7717.566      -325.19022      2705.9202      4519.7048     -6689.2599      8.9490881     -51.038334     -819.46607      37327.124      33.420133      33.420133      33.420133      1.320271       20126.392      18906.813      16028.132    
    116000   58000          627.25706      19419.102      17914.833      7300.9083      7514.4615     -213.55316      2734.3882      4472.7793     -6627.9245      4.1990461     -63.524156     -733.4711       37477.531      33.464961      33.464961      33.464961      1.3149724      21100.418      21184.856      15972.033    
    117000   58500          642.31643      18840.138      17553.688      7283.1352      7694.8709     -411.73578      2620.0736      4351.3774     -6650.1221      8.5101526     -11.109751     -730.46499      37379.533      33.435767      33.435767      33.435767      1.3184198      16698.054      21427.192      18395.167    
    118000   59000          641.32813      20492.131      18488.928      7287.1165      7683.0312     -395.91464      2711.4103      4304.2562     -6578.9226      7.6128677     -44.266823     -796.0045       37482.216      33.466355      33.466355      33.466355      1.314808       21846.533      17430.222      22199.639    
    119000   59500          651.26814      18537.254      17582.641      7543.7771      7802.1112     -258.33412      2748.8694      4435.205      -6663.2803      8.4661402      7.851843      -795.44614      37133.276      33.36218       33.36218       33.36218       1.3271632      22521.292      19444.508      13645.962    
    120000   60000          650.40496      19579.501      18132.272      7460.179       7791.7705     -331.5915       2671.4261      4441.597      -6626.9185      4.8230581     -44.463634     -778.05547      37374.217      33.434182      33.434182      33.434182      1.3186074      19940.329      19622.86       19175.313    
    121000   60500          639.08218      21270.099      18831.768      7346.1434      7656.1251     -309.98165      2719.4429      4323.3873     -6655.2761      4.9394996      22.345435     -724.82072      37026.208      33.330084      33.330084      33.330084      1.331001       24066.098      20416.235      19327.962    
    122000   61000          638.42402      20171.877      18304.163      7318.7017      7648.2404     -329.53873      2704.8856      4361.2205     -6672.4532      4.8314728      8.2606174     -736.28368      37341.871      33.424534      33.424534      33.424534      1.3197496      19613.67       20630.115      20271.847    
    123000   61500          648.39086      21092.56       18720.912      7239.9603      7767.6419     -527.68154      2546.6106      4347.4732     -6679.7735      5.1538031      2.3013088     -749.44692      37322.669      33.418804      33.418804      33.418804      1.3204285      19496.687      22789.986      20991.007    
    124000   62000          627.62557      21962.708      19195.653      7364.3524      7518.8762     -154.5238       2710.8226      4454.4897     -6672.5133      1.9863051      41.771087     -691.08006      36937.773      33.303528      33.303528      33.303528      1.3341876      19638.504      20910.354      25339.266    
    125000   62500          638.93245      21467.313      18964.134      7321.8762      7654.3312     -332.455        2615.2088      4376.1959     -6652.3318      4.049794      -16.693206     -658.88454      37186.356      33.378069      33.378069      33.378069      1.3252688      22055.76       20834.573      21511.606    
    126000   63000          628.65937      22305.911      19275.01       7253.2284      7531.261      -278.03265      2746.5674      4368.559      -6640.0859      1.7372334     -1.1696135     -753.64079      36954.981      33.308698      33.308698      33.308698      1.3335663      22981.75       21139.425      22796.56     
    127000   63500          643.62876      18414.29       17245.828      7339.2782      7710.5925     -371.31422      2769.9134      4284.4972     -6645.7479      3.5765832      6.0642599     -789.61776      36888.549      33.288727      33.288727      33.288727      1.3359679      18372.762      18570.271      18299.838    
    128000   64000          640.24458      19266.295      17811.949      7419.8293      7670.0504     -250.22115      2740.1117      4351.9147     -6625.0298      2.1430443      43.319055     -762.67988      36985.377      33.317828      33.317828      33.317828      1.3324703      19420.499      19483.951      18894.435    
    129000   64500          647.4294       22645.547      19400.154      7314.0106      7756.1237     -442.11312      2670.9455      4297.3682     -6655.9199      12.40271       46.181585     -813.09123      36595.613      33.200377      33.200377      33.200377      1.3466619      21856.008      23901.701      22178.931    
    130000   65000          635.68523      20899.435      18630.659      7344.1897      7615.43       -271.24029      2764.0325      4287.2614     -6669.3933      6.4274882      53.991622     -713.56008      37029.484      33.331067      33.331067      33.331067      1.3308832      22069.04       19164.413      21464.851    
    131000   65500          645.73371      20366.582      18406.67       7513.0747      7735.8095     -222.73483      2725.0105      4302.8579     -6595.3163      6.5310941      115.57123     -777.38922      36675.599      33.224547      33.224547      33.224547      1.343725       20051.577      20319.524      20728.645    
    132000   66000          647.23584      20253.684      18398.44       7542.1034      7753.8048     -211.70144      2752.4907      4395.6137     -6681.0927      2.8558564      90.935515     -772.50445      36753.895      33.248173      33.248173      33.248173      1.3408625      21450.343      18435.74       20874.968    
    133000   66500          642.43029      20139.136      18370.609      7590.6177      7696.2349     -105.61727      2831.31        4329.3618     -6592.6617      9.6978809      59.804341     -743.12959      36703.013      33.232823      33.232823      33.232823      1.3427213      19321.867      20114.108      20981.431    
    134000   67000          642.92952      23595.056      20152.254      7571.1241      7702.2157     -131.09151      2660.7445      4495.6402     -6648.9723      3.5987427      86.100225     -728.20291      36561.393      33.190025      33.190025      33.190025      1.3479223      22842.378      23466.474      24476.316    
    135000   67500          646.01809      20826.746      18702.336      7528.0585      7739.2163     -211.15787      2702.4268      4327.7671     -6586.3045      2.6310541      112.10965     -769.7879       36789.352      33.258862      33.258862      33.258862      1.3395701      20238.486      18429.488      23812.265    
    136000   68000          638.43166      23868.975      20213.169      7482.0908      7648.3318     -166.24105      2703.8568      4397.2333     -6627.0689      3.6216808      95.671679     -739.55561      36572.575      33.193408      33.193408      33.193408      1.3475102      20596.834      22942.124      28067.966    
    137000   68500          634.168        23985.431      20130.552      7378.5297      7597.2538     -218.7241       2714.2831      4364.7308     -6690.6308      7.0411195      135.96453     -750.11286      36454.878      33.157762      33.157762      33.157762      1.3518607      27317.178      21414.106      23225.007    
    138000   69000          627.73666      23052.637      19468.264      7177.4201      7520.2071     -342.78709      2756.0808      4322.9093     -6721.4835      10.422756      69.497584     -780.21401      36558.232      33.189068      33.189068      33.189068      1.3480389      23789.996      19983.64       25384.276    
    139000   69500          635.22117      22587.65       19176.166      7175.1419      7609.8706     -434.72865      2614.1942      4293.3325     -6697.643       7.7539499      75.037303     -727.40361      36431.023      33.150528      33.150528      33.150528      1.3527459      20034.364      25187.821      22540.766    
    140000   70000          638.73081      22337.136      19274.182      7402.0822      7651.9157     -249.83348      2652.0009      4362.9455     -6640.3081      5.1766115      136.00396     -765.65236      36443.842      33.154416      33.154416      33.154416      1.3522701      23864.372      20477.528      22669.507    
    141000   70500          632.9678       22387.195      19353.024      7421.4892      7582.8755     -161.38621      2734.4716      4460.6843     -6658.8769      5.3337073      93.866582     -796.86547      36544.393      33.18488       33.18488       33.18488       1.3485494      21541.408      26431.392      19188.784    
    142000   71000          644.73749      22966.865      19542.182      7386.6831      7723.8749     -337.19183      2602.0909      4391.7419     -6644.0063      4.3141474      78.67873      -770.01122      36290.684      33.107906      33.107906      33.107906      1.3579771      24922.902      22555.533      21422.161    
    143000   71500          628.94265      26423.896      21291.338      7325.5119      7534.6547     -209.14282      2547.7886      4410.0223     -6632.5254      5.9129994      193.8234      -734.16472      36240.476      33.092631      33.092631      33.092631      1.3598584      26285.768      29418.709      23567.212    
    144000   72000          623.30399      24346.339      20132.858      7183.3794      7467.1042     -283.72488      2654.4128      4321.2538     -6591.1416      1.8718265      80.233978     -750.35568      36470.586      33.162524      33.162524      33.162524      1.3512785      24112.257      24720.097      24206.662    
    145000   72500          642.70122      26232.278      21364.353      7506.3586      7699.4807     -193.12207      2695.0643      4297.9831     -6585.3409     -0.73692848     93.703946     -693.79558      36223.339      33.087414      33.087414      33.087414      1.3605018      26620.41       27410.135      24666.289    
    146000   73000          630.13087      25022.263      20680.165      7515.9253      7548.8895     -32.96411       2694.9491      4489.6906     -6620.2111      5.7192332      156.91912     -760.03107      36073.918      33.041856      33.041856      33.041856      1.3661371      27083.222      23379.444      24604.121    
    147000   73500          636.2066       25385.937      20705.032      7329.3793      7621.6759     -292.2966       2627.5448      4343.9419     -6624.8355      8.3797953      122.49489     -769.82248      36128.164      33.05841       33.05841       33.05841       1.3640859      25193.589      23249.37       27714.852    
    148000   74000          634.09927      24062.368      19870.244      7182.4191      7596.4304     -414.0113       2664.3048      4217.7141     -6635.2757      3.9243426      164.98093     -829.65974      36155.378      33.066709      33.066709      33.066709      1.3630591      22458.338      24765.564      24963.202    
    149000   74500          622.29629      24903.806      20404.798      7315.6159      7455.0322     -139.41627      2754.633       4268.9077     -6601.6361      4.8810674      234.49058     -800.69251      36038.847      33.031145      33.031145      33.031145      1.3674666      23335.173      25513.046      25863.199    
    150000   75000          649.53811      24378.593      20449.876      7591.5204      7781.3857     -189.86529      2743.6808      4288.1649     -6649.5079      4.3234519      126.16096     -702.68755      36166.034      33.069957      33.069957      33.069957      1.3626575      22180.297      22361.191      28594.292    
    151000   75500          642.35516      24661.34       20440.914      7488.3636      7695.3349     -206.97129      2644.514       4271.5574     -6579.0582      2.1254384      141.41855     -687.52852      36013.285      33.023334      33.023334      33.023334      1.3684372      24523.345      23567.93       25892.746    
    152000   76000          639.87408      25066.031      20525.171      7428.082       7665.6119     -237.52986      2701.2613      4199.7201     -6590.7222      2.1973631      191.07288     -741.05927      35827.236      32.966368      32.966368      32.966368      1.3755434      26519.685      23291.101      25387.306    
    153000   76500          642.28232      25353.351      20920.93       7530.4981      7694.4623     -163.9642       2640.1419      4506.8253     -6582.6767      10.776182      104.99056     -844.02142      36214.568      33.084743      33.084743      33.084743      1.3608313      26535.925      28357.031      21167.097    
    154000   77000          649.9293       25447.385      20583.106      7312.2833      7786.0721     -473.78881      2620.4408      4201.4234     -6645.4075      7.4949547      226.1597      -883.90024      35758.458      32.945259      32.945259      32.945259      1.3781891      27963.867      24287.206      24091.081    
    155000   77500          620.49899      27372.4        21691.418      7335.3306      7433.5006     -98.170026      2724.9137      4277.6194     -6629.2132      2.6389249      188.49395     -662.62289      35962.288      33.007739      33.007739      33.007739      1.3703777      26244.078      28646.529      27226.594    
    156000   78000          646.31288      25111.18       20795.507      7616.8549      7742.7478     -125.8929       2706.0423      4343.8777     -6601.0412      6.8034271      137.37222     -718.9473       35985.536      33.01485       33.01485       33.01485       1.3694924      24193.421      28225.812      22914.309    
    157000   78500          646.83349      24742.159      20480.557      7592.1546      7748.9848     -156.83021      2664.1003      4213.7792     -6555.4994      7.1562216      216.76704     -703.13354      35717.874      32.932791      32.932791      32.932791      1.3797551      24985.739      22266.788      26973.95     
    158000   79000          631.92708      24924.177      20532.647      7506.4716      7570.4077     -63.936138      2686.8209      4343.5602     -6595.5698      6.5484304      173.56424     -678.86015      35836.057      32.969073      32.969073      32.969073      1.3752048      25424.779      26336.845      23010.907    
    159000   79500          629.14501      26582.849      21383.954      7531.0703      7537.0789     -6.0086026      2609.8693      4439.1116     -6637.9624      6.4417565      303.98472     -727.45354      35732.449      32.93727       32.93727       32.93727       1.3791923      25868.614      25476.933      28403        
    160000   80000          639.41166      27945.797      22206.102      7602.1999      7660.0722     -57.872258      2724.7041      4369.7352     -6637.4503      4.7349074      240.76793     -760.36407      35832.451      32.967967      32.967967      32.967967      1.3753432      28699.232      28522.774      26615.385    
    161000   80500          642.21699      25950.615      21028.524      7556.8406      7693.6796     -136.83899      2616.0571      4309.9683     -6599.0212      4.8462392      233.68585     -702.37525      35595.765      32.895219      32.895219      32.895219      1.3844883      24512.872      24871.728      28467.244    
    162000   81000          650.37322      25647.94       20848.567      7457.6718      7791.3902     -333.71844      2706.8346      4212.4668     -6635.0225      2.7720928      192.38887     -813.15831      35799.853      32.957967      32.957967      32.957967      1.3765955      22437.907      27622.142      26883.77     
    163000   81500          644.81946      26041.755      21131.344      7585.8119      7724.8569     -139.04497      2694.9317      4324.545      -6631.3225      4.3775531      183.82151     -715.39819      35665.633      32.916727      32.916727      32.916727      1.3817761      26862.259      25511.59       25751.416    
    164000   82000          630.69503      27509.356      21770.036      7505.9018      7555.648      -49.746134      2800.9648      4324.9888     -6609.0926      4.6045848      188.88126     -760.09294      35554.05       32.882364      32.882364      32.882364      1.3861126      30016.854      27896.164      24615.051    
    165000   82500          646.01669      23867.319      19807.466      7362.2163      7739.1996     -376.98323      2608.105       4262.1713     -6698.168       5.2210698      165.83397     -720.14654      35753.954      32.943876      32.943876      32.943876      1.3783627      22857.066      24780.951      23963.94     
    166000   83000          629.31271      27848.905      21785.784      7397.9555      7539.088      -141.13256      2597.1165      4253.3982     -6576.8487      0.78233086     203.09094     -618.67188      35425.113      32.842566      32.842566      32.842566      1.3911577      26381.532      27653.89       29511.293    
    167000   83500          639.86754      31201.911      23784.718      7584.8709      7665.5335     -80.662659      2684.3039      4328.2499     -6650.1214      3.5870761      264.86593     -711.54811      35600.314      32.89662       32.89662       32.89662       1.3843113      32466.359      32442.731      28696.643    
    168000   84000          658.17252      30889.746      23910.92       7923.0319      7884.8249      38.206967      2637.301       4456.7259     -6631.4492      4.5451902      259.07752     -687.99341      35489.581      32.862477      32.862477      32.862477      1.3886306      29669.674      32608.996      30390.569    
    169000   84500          635.09325      29402.589      22699.396      7573.2098      7608.3381     -35.128325      2577.5675      4340.4914     -6595.4605      3.9918256      368.65127     -730.36981      35275.078      32.796135      32.796135      32.796135      1.3970747      26319.547      29666.273      32221.947    
    170000   85000          635.04734      28331.067      22306.21       7628.981       7607.7881      21.192938      2663.74        4335.4705     -6646.1358      1.6810442      333.03165     -666.59443      35522.642      32.872678      32.872678      32.872678      1.3873382      27581.866      30489.955      26921.379    
    171000   85500          646.07082      25502.312      20922.166      7735.313       7739.8481     -4.5350194      2692.7406      4311.8642     -6657.1663      3.3693355      332.76663     -688.10957      35455.673      32.852007      32.852007      32.852007      1.3899586      23573.142      26617.04       26316.754    
    172000   86000          639.02391      29258.281      22768.996      7713.7009      7655.427       58.27394       2753.9925      4310.0392     -6694.9308      6.460353       385.441       -702.72832      35282.925      32.798566      32.798566      32.798566      1.396764       29020.835      29615.374      29138.634    
    173000   86500          655.00441      31935.922      24232.945      7845.7588      7846.8713     -1.1125283      2632.6872      4360.3276     -6607.4289      3.5419134      333.48755     -723.7279       35184.31       32.767981      32.767981      32.767981      1.4006788      31319.018      33616.36       30872.388    
    174000   87000          649.03961      29778.664      22997.628      7607.7596      7775.4138     -167.65421      2689.1522      4295.3557     -6641.1379      5.1613275      232.12584     -748.31141      35436.743      32.84616       32.84616       32.84616       1.3907011      32336.738      27589.201      29410.054    
    175000   87500          634.67905      29088.348      22514.708      7602.8526      7603.376      -0.5234328      2721.2642      4228.4974     -6526.9917      1.175927       341.34886     -765.81815      35150.923      32.757613      32.757613      32.757613      1.4020092      28128.091      33890.249      25246.703    
    176000   88000          639.86888      32824.375      24443.948      7612.0307      7665.5496     -53.518812      2660.2194      4325.888      -6690.08        6.9330834      349.36342     -705.84267      35161          32.760743      32.760743      32.760743      1.4016074      33044.378      33057.594      32371.154    
    177000   88500          644.53614      27860.754      22071.583      7684.4517      7721.4628     -37.011072      2661.0782      4412.5547     -6692.0053      7.0940793      238.04084     -663.77353      35408.331      32.837379      32.837379      32.837379      1.391817       28895.876      27853.724      26832.662    
    178000   89000          647.77457      29554.353      22997.842      7912.8521      7760.2588      152.59328      2718.6253      4397.5788     -6596.2415      2.0376422      385.80122     -755.20826      34998.358      32.710152      32.710152      32.710152      1.4081209      31854.497      29464.266      27344.296    
[...]
    246000   123000         639.04886      39896.264      27663.304      8215.0952      7655.7258      559.36932      2643.5182      4448.9661     -6655.568       4.5238526      799.93123     -682.00213      33425.006      32.212455      32.212455      32.212455      1.4744027      39992.966      41274.345      38421.481    
    247000   123500         631.05564      40498.936      27839.436      8063.0209      7559.968       503.05294      2723.0654      4434.6847     -6608.6099      1.7221026      714.43925     -762.24856      33483.286      32.231167      32.231167      32.231167      1.4718364      40269.633      43533.369      37693.807    
    248000   124000         638.37036      41073.614      28081.126      8100.9444      7647.5975      453.34689      2632.5492      4249.3237     -6556.4534      8.1349841      817.28987     -697.49753      33354.977      32.189943      32.189943      32.189943      1.4774982      42343.632      42393.499      38483.71     
    249000   124500         633.23548      46141.704      30568.309      8216.2455      7586.0823      630.16326      2735.6015      4392.7584     -6610.3945      2.2675683      864.75136     -754.82105      33216.06       32.145193      32.145193      32.145193      1.4836774      46968.034      45409.712      46047.365    
    250000   125000         653.92948      42716.528      29032.689      8399.4393      7833.9938      565.44551      2624.4762      4292.1585     -6596.4641      6.8057921      917.87202     -679.40289      33120.417      32.11431       32.11431       32.11431       1.4879619      42939.876      42899.463      42310.245    
    251000   125500         630.50646      42693.147      28841.936      8076.5049      7553.389       523.11587      2674.6127      4335.6344     -6564.6368      5.5718944      815.62482     -743.69106      33350.85       32.188616      32.188616      32.188616      1.477681       43827.861      45491.974      38759.606    
    252000   126000         624.13052      39264.755      27004.304      7867.85        7477.006       390.84393      2562.9948      4281.0183     -6600.2743      2.3647925      873.01593     -728.2756       33418.172      32.21026       32.21026       32.21026       1.4747042      39826.251      42485.715      35482.299    
    253000   126500         636.13181      41531.913      28212.678      8057.9695      7620.78        437.18948      2575.8685      4414.244      -6663.0144      4.6171979      845.97563     -740.50146      33275.048      32.164211      32.164211      32.164211      1.4810472      39390.097      44378.645      40826.997    
    254000   127000         628.13658      41588.911      28344.121      8164.5358      7524.9981      639.53765      2663.1603      4387.5404     -6651.507       5.1420151      966.41426     -731.21239      33270.459      32.162732      32.162732      32.162732      1.4812515      44736.811      39295.98       40733.942    
    255000   127500         631.64375      44449.238      29564.605      8079.7733      7567.0135      512.7598       2636.6362      4316.0267     -6655.2254      5.8035567      955.30033     -745.78164      33142.994      32.121606      32.121606      32.121606      1.4869483      42949.245      44571.138      45827.33     
    256000   128000         651.8864       42148.096      28936.614      8529.8677      7809.5179      720.34979      2652.3826      4528.7839     -6618.858       6.4760139      882.67008     -731.10478      33198.61       32.139563      32.139563      32.139563      1.4844573      40347.803      46246.954      39849.532    
    257000   128500         654.59136      42954.804      29145.927      8375.472       7841.9231      533.54893      2727.7768      4347.2497     -6616.0717     -0.066353275    799.77859     -725.11804      33155.713      32.125714      32.125714      32.125714      1.4863779      42191.015      42616.159      44057.239    
    258000   129000         640.59282      44250.316      29581.755      8185.6243      7674.2223      511.40207      2657.0806      4408.0684     -6643.1719      5.7058501      864.01129     -780.29218      33154.537      32.125334      32.125334      32.125334      1.4864306      46291.24       43831.367      42628.34     
    259000   129500         638.89741      41838.742      28343.209      8112.4907      7653.9115      458.57917      2606.2595      4386.2557     -6634.1619      4.6628606      804.65679     -709.09382      33155.593      32.125675      32.125675      32.125675      1.4863832      42100.763      41018.104      42397.358    
    260000   130000         645.15534      43115.086      29104.462      8181.337       7728.8808      452.45629      2582.7803      4352.3724     -6608.6429      0.78753673     843.08848     -717.9295       33275.255      32.164277      32.164277      32.164277      1.481038       40643.844      46724.136      41977.28     
    261000   130500         627.45987      43312.729      29011.385      8120.0456      7516.8912      603.15437      2606.6223      4396.3505     -6572.5218      0.57869503     925.93164     -753.80702      33073.095      32.099008      32.099008      32.099008      1.4900909      43033.637      41141.616      45762.935    
    262000   131000         620.66619      43144.908      28847.791      8104.0644      7435.5037      668.56072      2684.3189      4424.8118     -6686.5685      3.4617524      1003.3118     -760.77494      32967.145      32.064695      32.064695      32.064695      1.4948798      39713.375      44740.078      44981.272    
    263000   131500         636.24027      42595.307      28887.759      8288.7634      7622.0793      666.68407      2581.5737      4460.0121     -6578.0154      4.6330243      880.75074     -682.27009      33159.533      32.126948      32.126948      32.126948      1.4862067      42607.975      42653.452      42524.494    
    264000   132000         641.86246      41519.03       28206.772      8185.5785      7689.4324      496.14614      2597.1464      4316.3874     -6620.5932      5.7939286      946.6528      -749.24119      33064.875      32.096349      32.096349      32.096349      1.4904613      39447.931      41439.378      43669.78     
    265000   132500         622.86271      41806.55       28270.104      8113.6405      7461.8177      651.82274      2623.1615      4363.5932     -6675.1951      5.5178284      1043.0078     -708.26263      33059.335      32.094556      32.094556      32.094556      1.4907111      38493.499      44532.052      42394.098    
    266000   133000         643.84642      42055.317      28749.332      8448.8863      7713.2         735.68632      2622.7645      4372.022      -6619.2054      1.3636863      990.66593     -631.92444      33098.536      32.107236      32.107236      32.107236      1.4889456      42162.662      41098.199      42905.091    
    267000   133500         648.07938      44551.893      29946.404      8534.5512      7763.9103      770.64082      2643.8735      4399.47       -6565.9903      3.5111079      981.05081     -691.27422      32954.308      32.060532      32.060532      32.060532      1.4954621      43355.015      49397.872      40902.793    
    268000   134000         638.90598      45790.475      30309.705      8346.1043      7654.0142      692.09011      2626.9128      4370.5755     -6683.9154      4.0714027      1052.3581     -677.91224      32889.138      32.039385      32.039385      32.039385      1.4984253      43089.761      48223.611      46058.052    
    269000   134500         646.98332      42422.379      28819.962      8372.2165      7750.7796      621.43686      2607.5715      4381.1022     -6679.7906      3.5189395      974.50587     -665.47101      33050.233      32.09161       32.09161       32.09161       1.4911217      39317.168      44566.867      43383.102    
    270000   135000         644.22688      43762.797      29698.031      8603.5268      7717.7578      885.76894      2629.5891      4645.2709     -6664.9413      4.7218717      960.13815     -689.00966      33051.285      32.091951      32.091951      32.091951      1.4910742      47634.674      40738.109      42915.609    
    271000   135500         647.08421      46155.017      30449.142      8290.3074      7751.9883      538.31909      2661.5394      4273.907      -6554.9167      1.7937009      905.66334     -749.66768      32919.415      32.049213      32.049213      32.049213      1.4970472      46993.63       44164.501      47306.92     
    272000   136000         634.8377       45911.442      30226.765      8201.1315      7605.2767      595.85477      2542.795       4333.6689     -6622.1945      2.8161585      1012.6202     -673.85093      32895.128      32.041329      32.041329      32.041329      1.4981525      44470.007      48413.576      44850.743    
    273000   136500         635.02088      48039.705      31237.259      8215.6159      7607.4711      608.14481      2642.8336      4319.1986     -6680.7037      5.1156268      970.29865     -648.59788      32859.434      32.029736      32.029736      32.029736      1.4997799      48393.97       45953.635      49771.511    
    274000   137000         646.49936      45063.565      30132.275      8477.2246      7744.9819      732.24266      2639.7544      4461.8964     -6627.3448      4.8144893      947.51129     -694.38909      32950.178      32.059193      32.059193      32.059193      1.4956495      46390.388      45943.874      42856.432    
    275000   137500         639.40442      45850.132      30122.782      8132.3134      7659.9854      472.32797      2655.3814      4294.4721     -6695.1924      2.0623916      1027.3882     -811.78371      32886.526      32.038536      32.038536      32.038536      1.4985444      46054.58       45439.054      46056.763    
    276000   138000         642.6227       45618.357      30249.065      8445.2147      7698.5399      746.67476      2610.5839      4376.3377     -6635.8135      5.2305677      1009.947      -619.61098      32773.111      32.001664      32.001664      32.001664      1.5037303      42438.178      46037.05       48379.843    
    277000   138500         648.84561      47507.323      31305.834      8584.4509      7773.0897      811.36122      2679.6249      4392.2711     -6639.0225      5.8113194      1125.1736     -752.49724      32794.297      32.008558      32.008558      32.008558      1.5027588      46595.846      47038.503      48887.619    
    278000   139000         646.59396      44655.716      29804.754      8288.6392      7746.1151      542.52409      2592.9115      4360.918      -6624.1718      3.9047365      959.63614     -750.67444      33037.784      32.08758       32.08758       32.08758       1.4916835      43876.492      45780.674      44309.982    
    279000   139500         626.83714      45480.583      30074.793      8225.2227      7509.431       715.79168      2651.8315      4302.7165     -6598.978       3.1424282      1018.0323     -660.95314      32941.32       32.05632       32.05632       32.05632       1.4960517      44869.705      43437.677      48134.365    
    280000   140000         642.31535      45181.022      29875.991      8297.3324      7694.858       602.47438      2582.258       4285.3877     -6589.9967      3.49622        1046.5859     -725.25679      32748.583      31.993678      31.993678      31.993678      1.5048565      49179.187      44761.54       41602.339    
    281000   140500         637.90918      47498.297      31134.723      8450.4043      7642.0726      808.33166      2583.3027      4413.8232     -6635.4597      5.0626728      1132.5978     -690.99498      32747.022      31.99317       31.99317       31.99317       1.5049282      49781.407      44952.61       47760.875    
    282000   141000         638.29581      44541.928      29754.411      8437.8067      7646.7044      791.10227      2624.7399      4290.9481     -6522.7483      5.0463964      1107.1314     -714.01516      32815.053      32.015309      32.015309      32.015309      1.5018083      45399.831      43178.354      45047.6      
    283000   141500         627.45145      46184.288      30221.008      8213.7437      7516.7903      696.95338      2589.7553      4249.6077     -6592.8006      5.2730366      1136.4759     -691.35798      32673.52       31.969215      31.969215      31.969215      1.5083137      46785.226      46188.806      45578.832    
    284000   142000         631.50925      44503.453      29533.501      8282.4778      7565.4022      717.07562      2646.2729      4318.4588     -6611.0107      5.4507609      1094.5433     -736.63951      32742.38       31.991658      31.991658      31.991658      1.5051416      45243.145      41649.274      46617.94     
    285000   142500         644.44092      45529.478      29971.209      8131.7982      7720.3221      411.47609      2631.4544      4110.5228     -6535.0245      2.658793       992.06017     -790.19548      32890.642      32.039873      32.039873      32.039873      1.4983568      48024.986      41711.414      46852.034    
    286000   143000         632.98835      46383.754      30548.262      8472.3031      7583.1217      889.18137      2638.7625      4388.147      -6597.8938      2.8509304      1136.5764     -679.2617       32634.562      31.956504      31.956504      31.956504      1.5101143      44202.886      47693.136      47255.242    
    287000   143500         641.5336       49916.961      32276.019      8639.8942      7685.4927      954.40148      2616.6964      4413.8461     -6597.4806      5.8227888      1168.7462     -653.22933      32467.753      31.901963      31.901963      31.901963      1.5178728      52936.634      48336.96       48477.29     
    288000   144000         658.08327      49648.99       32194.527      8682.6996      7883.7557      798.94392      2560.3363      4352.2933     -6596.6144      8.8073696      1198.6409     -724.51947      32471.331      31.903135      31.903135      31.903135      1.5177055      53934.184      48730.083      46282.703    
    289000   144500         656.97575      49413.715      32248.047      8802.4721      7870.4878      931.98435      2530.8197      4582.4584     -6643.8542      1.476434       1147.9098     -686.82577      32534.003      31.923647      31.923647      31.923647      1.5147819      51576.447      47358.12       49306.578    
    290000   145000         646.03671      46470.378      30733.359      8625.9513      7739.4394      886.51198      2581.3844      4495.4518     -6547.9001     -0.49526311     1037.5251     -679.45397      32620.133      31.951794      31.951794      31.951794      1.5107823      43261.628      46585.301      49564.206    
    291000   145500         635.79875      45965.407      30315.763      8442.3628      7616.79        825.57278      2621.042       4404.0696     -6612.2031      2.881233       1100.5984     -690.81529      32629.415      31.954824      31.954824      31.954824      1.5103525      47905.466      45561.017      44429.738    
    292000   146000         641.98318      46500.64       30581.037      8508.1322      7690.8786      817.25354      2520.1855      4481.592      -6585.3558     -0.32404797     1156.5867     -755.43081      32548.027      31.928233      31.928233      31.928233      1.5141292      46265.657      46811.701      46424.563    
    293000   146500         625.06196      49124.118      31531.752      8251.3767      7488.1646      763.21212      2606.4801      4370.1055     -6601.143       2.6537899      1106.9667     -721.85101      32495.208      31.910953      31.910953      31.910953      1.5165903      46051.672      49075.474      52245.209    
    294000   147000         623.74916      47925.467      31011.326      8153.6426      7472.4373      681.20527      2598.8719      4377.2341     -6598.7639      5.3479872      1060.4657     -761.95053      32703.178      31.978885      31.978885      31.978885      1.5069458      48307.329      50230.667      45238.405    
    295000   147500         638.95904      48177.352      31411.45       8409.6465      7654.6498      754.99668      2587.3553      4286.8989     -6580.153       3.7800537      1108.9437     -651.82818      32737.316      31.990009      31.990009      31.990009      1.5053744      47463.167      47867.077      49201.812    
    296000   148000         644.65016      54068.022      34159.008      8638.6362      7722.8287      915.80755      2664.5452      4309.1573     -6682.3185      1.6685184      1287.4033     -664.64826      32364.628      31.868152      31.868152      31.868152      1.5227092      54342.956      56301.842      51559.269    
    297000   148500         636.85234      47497.735      31138.73       8663.337       7629.4118      1033.9252      2702.0304      4303.6417     -6561.5747      6.989038       1232.5517     -649.71293      32445.802      31.894772      31.894772      31.894772      1.5188997      49508.907      44438.626      48545.671    
    298000   149000         649.82135      50554.006      32553.841      8633.3294      7784.7789      848.55052      2567.3856      4357.4187     -6623.9822      3.8682535      1208.2804     -664.4202       32444.344      31.894294      31.894294      31.894294      1.5189679      54305.176      48619.668      48737.175    
    299000   149500         638.51086      48591.381      31560.506      8563.4032      7649.2807      914.12248      2657.2797      4309.0364     -6635.0854      4.2276732      1280.2168     -701.55274      32451.741      31.896718      31.896718      31.896718      1.5186217      47311.817      46636.818      51825.509    
    300000   150000         650.62651      53165.946      33914.359      8789.6134      7794.4247      995.18873      2666.1353      4429.1194     -6733.7065      9.1652584      1299.4243     -674.94901      32403.523      31.880913      31.880913      31.880913      1.5208815      60202.216      49250.266      50045.357    
Loop time of 773.501 on 8 procs for 300000 steps with 4020 atoms

Performance: 16.755 ns/day, 1.432 hours/ns, 387.847 timesteps/s, 1.559 Matom-step/s
97.3% CPU use with 8 MPI tasks x 1 OpenMP threads

MPI task timing breakdown:
Section |  min time  |  avg time  |  max time  |%varavg| %total
---------------------------------------------------------------
Pair    | 474.85     | 501.94     | 534.94     |  89.2 | 64.89
Bond    | 131.75     | 134.76     | 136.95     |  15.7 | 17.42
Neigh   | 32.287     | 32.386     | 32.466     |   1.2 |  4.19
Comm    | 54.014     | 90         | 115.43     | 213.4 | 11.64
Output  | 0.18415    | 0.19926    | 0.21599    |   2.3 |  0.03
Modify  | 5.8182     | 6.476      | 6.8508     |  14.8 |  0.84
Other   |            | 7.742      |            |       |  1.00

Nlocal:          502.5 ave         511 max         495 min
Histogram: 1 1 1 0 1 2 0 0 1 1
Nghost:        6810.75 ave        6823 max        6793 min
Histogram: 1 0 0 1 1 1 1 0 1 2
Neighs:         196804 ave      206408 max      187828 min
Histogram: 1 3 0 0 0 0 1 0 2 1

Total # of neighbors = 1574429
Ave neighs/atom = 391.649
Ave special neighs/atom = 5.7761194
Neighbor list builds = 8743
Dangerous builds = 0

unfix npt_comp

undump dump_comp

write_dump all custom npt_compress_last.dump id type mol x y z xu yu zu vx vy vz modify sort id
write_data /home/alexzhao/PolyJarvis/data/PROPSULFIDE_CURATED/lammps/equil/npt_compress/npt_compress_out.data
System init for write_data ...
Generated 15 of 15 mixed pair_coeff terms from sixthpower/sixthpower mixing rule

print "STAGE COMPLETE: NPT compression P=1.0->50000.0atm density target reached"
STAGE COMPLETE: NPT compression P=1.0->50000.0atm density target reached
quit
