units real
atom_style full
boundary p p p

# --- Force Field Styles ---
pair_style lj/class2/coul/long 9.5 9.5
kspace_style pppm 1e-4
dielectric 1.000000
bond_style class2
angle_style class2
dihedral_style class2
improper_style class2
special_bonds lj/coul 0 0 1
pair_modify mix sixthpower tail yes
neighbor 2.0 bin
neigh_modify delay 0 every 1 check yes
neigh_modify one 4000
package gpu 1 neigh no

read_data /home/arz2/PolyJarvis/data/PMMA1/lammps/npt_pppm/npt_pppm_out.data
Reading data file ...
  orthogonal box = (3.9785307 3.9785307 3.9785307) to (44.064452 44.064452 44.064452)
  2 by 2 by 2 MPI processor grid
  reading atoms ...
  6020 atoms
  reading velocities ...
  6020 velocities
  scanning bonds ...
  4 = max bonds/atom
  scanning angles ...
  6 = max angles/atom
  scanning dihedrals ...
  32 = max dihedrals/atom
  scanning impropers ...
  4 = max impropers/atom
  orthogonal box = (3.9785307 3.9785307 3.9785307) to (44.064452 44.064452 44.064452)
  2 by 2 by 2 MPI processor grid
  reading bonds ...
  6010 bonds
  reading angles ...
  11200 angles
  reading dihedrals ...
  15110 dihedrals
  reading impropers ...
  6800 impropers
Finding 1-2 1-3 1-4 neighbors ...
  special bond factors lj:    0        0        1       
  special bond factors coul:  0        0        1       
     4 = max # of 1-2 neighbors
    11 = max # of 1-3 neighbors
    15 = max # of special neighbors
  special bonds CPU = 0.001 seconds
  read_data CPU = 0.295 seconds
include /home/arz2/PolyJarvis/data/PMMA1/lammps/emc_build.params
# LAMMPS parameters created by EMC v9.4.4, build Jul 31 2025 20:33:44

# Variables

variable	seed		index	-1
variable	ntotal		index	6020
variable	fshape		index	1
variable	output		i
CITE-CITE-CITE-CITE-CITE-CITE-CITE-CITE-CITE-CITE-CITE-CITE-CITE

Your simulation uses code contributions which should be cited:
- GPU package (short-range, long-range and three-body potentials): doi:10.1016/j.cpc.2010.12.021, doi:10.1016/j.cpc.2011.10.012, doi:10.1016/j.cpc.2013.08.002, doi:10.1016/j.commatsci.2014.10.068, doi:10.1016/j.cpc.2016.10.020, doi:10.3233/APC200086
The log file lists these citations in BibTeX format.

CITE-CITE-CITE-CITE-CITE-CITE-CITE-CITE-CITE-CITE-CITE-CITE-CITE

PPPM initialization ...
  using 12-bit tables for long-range coulomb
  G vector (1/distance) = 0.24258478
  grid = 15 15 15
  stencil order = 5
  estimated absolute RMS force accuracy = 0.030418222
  estimated relative force accuracy = 9.1603571e-05
  using double precision KISS FFT
  3d grid and FFT values/proc = 2197 512

--------------------------------------------------------------------------
- Using acceleration for pppm:
-  with 8 proc(s) per device.
-  with 1 thread(s) per proc.
-  Horizontal vector operations: ENABLED
-  Shared memory system: No
--------------------------------------------------------------------------
Device 0: Quadro RTX 6000, 72 CUs, 16/24 GB, 1.8 GHZ (Mixed Precision)
--------------------------------------------------------------------------

Initializing Device and compiling on process 0...Done.
Initializing Device 0 on core 0...Done.
Initializing Device 0 on core 1...Done.
Initializing Device 0 on core 2...Done.
Initializing Device 0 on core 3...Done.
Initializing Device 0 on core 4...Done.
Initializing Device 0 on core 5...Done.
Initializing Device 0 on core 6...Done.
Initializing Device 0 on core 7...Done.


--------------------------------------------------------------------------
- Using acceleration for lj/class2/coul/long:
-  with 8 proc(s) per device.
-  with 1 thread(s) per proc.
-  Horizontal vector operations: ENABLED
-  Shared memory system: No
--------------------------------------------------------------------------
Device 0: Quadro RTX 6000, 72 CUs, 16/24 GB, 1.8 GHZ (Mixed Precision)
--------------------------------------------------------------------------

Initializing Device and compiling on process 0...Done.
Initializing Device 0 on core 0...Done.
Initializing Device 0 on core 1...Done.
Initializing Device 0 on core 2...Done.
Initializing Device 0 on core 3...Done.
Initializing Device 0 on core 4...Done.
Initializing Device 0 on core 5...Done.
Initializing Device 0 on core 6...Done.
Initializing Device 0 on core 7...Done.

Generated 15 of 15 mixed pair_coeff terms from sixthpower/sixthpower mixing rule
Neighbor list info ...
  update: every = 1 steps, delay = 0 steps, check = yes
  max neighbors/atom: 4000, page size: 100000
  master list distance cutoff = 11.5
  ghost atom cutoff = 11.5
  binsize = 5.75, bins = 7 7 7
  1 neighbor lists, perpetual/occasional/extra = 1 0 0
  (1) pair lj/class2/coul/long/gpu, perpetual
      attributes: full, newton on
      pair build: full/bin
      stencil: full/bin/3d
      bin: standard
Setting up Verlet run ...
  Unit style    : real
  Current step  : 0
  Time step     : 1
Per MPI rank memory allocation (min/avg/max) = 23.74 | 23.74 | 23.75 Mbytes
   Step          Time           Temp          Press         Enthalpy        TotEng         KinEng         PotEng         E_bond        E_angle        E_dihed        E_impro         E_vdwl         E_coul         E_long         E_tail         Volume           Lx             Ly             Lz          Density          Pxx            Pyy            Pzz      
         0   0              622.86806      92.070124      34368.894      34282.404      11175.185      23107.219      5651.3499      7848.3979     -1037.3863      287.80482      511.0167       27867.099     -18021.063     -390.17519      64413.308      40.085921      40.085921      40.085921      1.0329172      453.24022     -1007.0588      830.0289     
      1000   1000           631.12102      601.46621      34995.103      34422.621      11323.255      23099.366      5441.2571      7831.9143     -1053.1304      297.95782      759.31267      27845.972     -18023.918     -385.08866      65264.125      40.261644      40.261644      40.261644      1.0194516      572.67784      1674.6778     -442.95705    
      2000   2000           624.52136      1180.3243      35301.693      34178.047      11204.847      22973.199      5339.0816      7726.0699     -1012.4164      312.33389      739.42032      27889.599     -18020.889     -385.01955      65275.839      40.264053      40.264053      40.264053      1.0192686      1320.578       299.70784      1920.6871    
      3000   3000           618.15294      1960.6173      36129.616      34296.907      11090.588      23206.318      5676.1619      7943.535      -1135.0882      296.85557      589.75646      27863.523     -18028.425     -392.11229      64095.094      40.019801      40.019801      40.019801      1.0380454      2196.0287      1942.3089      1743.5142    
      4000   4000           639.93797     -985.13195      33793.27       34730.64       11481.444      23249.196      5664.9705      7902.6418     -1061.0164      317.97814      596.59838      27854.429     -18026.405     -385.20702      65244.072      40.25752       40.25752       40.25752       1.0197649     -505.91157      487.83789     -2937.3222    
      5000   5000           622.38141      2112.4828      36220.88       34213.401      11166.453      23046.948      5458.8238      7898.8041     -1058.4846      285.89938      576.80223      27910.662     -18025.56      -385.70314      65160.149      40.240252      40.240252      40.240252      1.0210783      3972.1803      1118.0958      1247.1723    
      6000   6000           624.83549     -2084.3959      32584.053      34523.884      11210.483      23313.401      5881.8118      7880.403      -1065.7986      290.11275      515.85094      27839.136     -18028.115     -393.84687      63812.806      39.960963      39.960963      39.960963      1.0426374     -310.12586     -2419.6561     -3523.4057    
      7000   7000           622.22494     -214.97284      34086.839      34290.102      11163.646      23126.456      5632.1968      7866.4168     -1085.9975      338.057        538.85549      27865.308     -18028.381     -387.64712      64833.383      40.172873      40.172873      40.172873      1.0262246     -314.22702      776.81783     -1107.5093    
      8000   8000           641.49342      1674.333       36127.849      34548.459      11509.351      23039.108      5418.4745      7904.6754     -1063.6619      275.00879      657.48572      27866.961     -18019.837     -388.56502      64680.229      40.141215      40.141215      40.141215      1.0286546      554.64566      2289.899       2178.4544    
      9000   9000           635.74424     -1374.6347      33092.517      34397.659      11406.203      22991.456      5666.4332      7739.1479     -1105.3802      274.81827      546.25642      27896.166     -18025.985     -386.04747      65102.032      40.228285      40.228285      40.228285      1.0219899     -2113.419      -168.61564     -1841.8695    
     10000   10000          625.14984     -1538.4528      32748.294      34199.099      11216.123      22982.975      5565.8923      7794.0322     -1031.3381      306.47893      515.30557      27856.473     -18023.868     -388.67474      64661.97       40.137438      40.137438      40.137438      1.0289451     -1146.8804     -2461.8882     -1006.59      
     11000   11000          629.6815       150.57414      34656.087      34513.609      11297.428      23216.181      5704.1116      7853.7314     -1029.0971      305.3583       527.80279      27876.722     -18022.449     -387.35912      64881.587      40.182827      40.182827      40.182827      1.0254622     -1050.2322      1079.9942      421.96047    
     12000   12000          614.71029     -222.67795      33848.838      34060.8        11028.822      23031.978      5456.2626      7912.9336     -1078.4557      251.96985      622.44409      27888.805     -18021.981     -385.0622       65268.61       40.262566      40.262566      40.262566      1.0193815     -2042.3157     -267.07783      1641.3597    
     13000   13000          630.8477      -1704.4921      32880.338      34503.465      11318.351      23185.114      5592.3757      7935.0577     -1050.139       328.62675      561.02876      27848.258     -18030.094     -384.90507      65295.253      40.268044      40.268044      40.268044      1.0189656     -2330.3363     -2973.7652      190.62532    
     14000   14000          631.28989     -485.23687      33848.708      34313.259      11326.285      22986.975      5462.1658      7784.1277     -1077.8208      306.6719       676.07637      27856.325     -18020.571     -382.85237      65645.341      40.339883      40.339883      40.339883      1.0135314     -786.61406      115.93625     -785.03278    
     15000   15000          634.10013      1358.509       35955.37       34648.497      11376.705      23271.792      5553.0104      7986.0843     -1125.9552      311.95342      684.21832      27884.133     -18021.652     -381.01351      65962.161      40.404676      40.404676      40.404676      1.0086634     -175.35583      1626.1936      2624.6892    
     16000   16000          622.21507      479.92398      34835.731      34381.207      11163.469      23217.738      5533.0536      7942.1473     -1033.5227      257.63141      688.96571      27854.048     -18024.585     -387.01435      64939.386      40.194756      40.194756      40.194756      1.0245495      258.639        1734.8895     -553.75652    
     17000   17000          629.07111      1877.3966      36253.853      34463.47       11286.477      23176.993      5663.557       7844.4072     -1116.3104      293.10699      646.13845      27865.482     -18019.388     -384.34505      65390.394      40.287593      40.287593      40.287593      1.017483       298.98692      3538.3719      1794.831     
     18000   18000          630.98912     -685.02072      33538.47       34194.586      11320.889      22873.697      5525.3592      7720.3425     -1163.2994      279.86955      673.38088      27859.573     -18021.528     -382.67867      65675.138      40.345986      40.345986      40.345986      1.0130716     -1805.1954      654.08051     -903.94726    
     19000   19000          632.15121     -198.68471      34250.158      34439.583      11341.738      23097.845      5546.5245      7936.3346     -1121.5473      300.30289      555.99591      27898.219     -18017.985     -384.4486       65372.782      40.283975      40.283975      40.283975      1.0177571     -362.0053       1790.8569     -2024.9058    
     20000   20000          627.67183      20.639083      34554.246      34534.538      11261.371      23273.167      5599.5767      8068.6836     -1119.5231      289.13591      592.44654      27862.328     -18019.481     -383.84832      65475.015      40.304964      40.304964      40.304964      1.016168       916.93603      310.40675     -1165.4255    
     21000   21000          627.0646      -1117.5962      33414.073      34483.009      11250.477      23232.533      5626.6761      7804.7497     -1043.0103      307.56632      656.96624      27900.671     -18021.087     -383.21655      65582.957      40.327101      40.327101      40.327101      1.0144955     -275.91225     -2556.2159     -520.66059    
     22000   22000          631.9334       1074.237       35449.714      34426.443      11337.83       23088.612      5560.1172      7695.5771     -1085.2934      290.07829      754.68945      27894.327     -18020.883     -384.78712      65315.27       40.272159      40.272159      40.272159      1.0186533      1234.1217      405.87651      1582.7129    
     23000   23000          629.29123      1409.1658      35898.311      34556.748      11290.426      23266.322      5559.6728      7956.4521     -1130.7798      297.86163      725.04452      27879.312     -18021.242     -385.00119      65278.952      40.264693      40.264693      40.264693      1.01922        1255.2512     -578.603        3550.8493    
     24000   24000          633.31523      153.08937      34656.609      34507.87       11362.623      23145.248      5531.7589      7771.2514     -1039.2776      316.31141      664.79094      27917.508     -18017.095     -377.25344      66619.603      40.538469      40.538469      40.538469      0.99870928     40.787845     -239.33466      657.81493    
     25000   25000          625.50248     -1182.2041      33417.779      34564.223      11222.45       23341.772      5726.0402      7881.3922     -1088.0174      307.12725      656.24045      27875.568     -18016.579     -377.96457      66494.259      40.513029      40.513029      40.513029      1.0005919     -461.58377     -1743.3867     -1341.6418    
     26000   26000          631.34057     -1286.4232      33302.295      34531.652      11327.194      23204.457      5723.0169      7842.0551     -1108.0528      302.45138      581.39191      27888.854     -18025.259     -383.54557      65526.697      40.315566      40.315566      40.315566      1.0153665     -2012.2238     -608.90447     -1238.1412    
     27000   27000          629.48808      583.95519      34735.892      34172.28       11293.958      22878.322      5444.0659      7878.2292     -1088.2345      270.51061      523.64431      27874.33      -18024.224     -379.76109      66179.698      40.449044      40.449044      40.449044      1.0053478      847.30313      1808.9317     -904.36928    
     28000   28000          634.42503      367.47884      34854.816      34499.461      11382.534      23116.927      5550.801       7810.2479     -1087.4356      272.45073      712.48464      27871.175     -18012.796     -379.03623      66306.258      40.474812      40.474812      40.474812      1.0034289     -307.77698      1166.5491      243.66435    
     29000   29000          626.64102      473.25436      34991.479      34532.101      11242.877      23289.224      5495.3965      7856.3988     -1045.2259      295.53504      844.68622      27865.919     -18023.485     -377.60354      66557.835      40.525937      40.525937      40.525937      0.99963612     2128.4854      597.37583     -1306.0981    
     30000   30000          622.29097     -1981.6668      32387.054      34277.144      11164.831      23112.313      5589.46        7848.6404     -1069.4666      271.70567      625.88034      27860.568     -18014.475     -384.29005      65399.753      40.289515      40.289515      40.289515      1.0173374     -1945.3698     -870.71841     -3128.9123    
     31000   31000          620.79247     -226.15855      34305.893      34527.819      11137.945      23389.874      5688.023       7865.1832     -1040.3463      269.46434      768.85182      27858.249     -18019.551     -373.52118      67285.272      40.673043      40.673043      40.673043      0.98882882    -1416.959       1104.1726     -365.68929    
     32000   32000          625.25728      1352.7863      35647.409      34346.279      11218.051      23128.229      5586.25        7843.5589     -1166.057       317.27905      694.83403      27870.561     -18018.197     -381.08323      65950.092      40.402211      40.402211      40.402211      1.008848       1536.8657      1569.5626      951.93068    
     33000   33000          624.52752     -68.157757      34302.896      34369.089      11204.958      23164.131      5601.0652      7787.5685     -1047.3587      289.54072      672.61231      27881.829     -18021.126     -377.41077      66591.832      40.532836      40.532836      40.532836      0.99912577    -52.720632     -965.73276      813.98012    
     34000   34000          628.00458     -340.95397      33884.541      34212.003      11267.341      22944.662      5538.2831      7758.4108     -1129.0796      270.50589      635.77937      27886.466     -18015.704     -381.63298      65855.089      40.382802      40.382802      40.382802      1.0103033     -1343.455      -481.27361      801.86667    
     35000   35000          634.95827      1208.5466      35599.677      34434.272      11392.101      23042.171      5451.2518      7860.8009     -1169.3145      288.18065      765.26804      27865.785     -18019.801     -380.09979      66120.727      40.437026      40.437026      40.437026      1.0062445      1419.0693      1500.5124      706.05814    
     36000   36000          632.32914     -1558.3228      32977.733      34474.171      11344.931      23129.24       5563.8151      7901.4349     -1104.4413      279.37042      642.99573      27865.373     -18019.307     -381.68934      65845.365      40.380814      40.380814      40.380814      1.0104525     -3613.4579     -2840.9046      1779.394     
     37000   37000          627.1072      -1104.6282      33092.985      34147.031      11251.241      22895.79       5340.2917      7868.8658     -1090.2539      312.78193      605.45867      27877.984     -18019.338     -384.12074      65428.58       40.295433      40.295433      40.295433      1.0168892     -713.76776     -2770.025       169.90801    
     38000   38000          626.01776      286.80858      34593.277      34317.809      11231.695      23086.114      5667.8364      7837.3286     -1160.8794      263.84699      611.06998      27887.46      -18020.549     -381.62089      65857.177      40.383228      40.383228      40.383228      1.0102713      361.78647     -1365.5784      1864.2177    
     39000   39000          633.9542      -459.41122      33836.861      34271.555      11374.086      22897.469      5449.0109      7705.1359     -1056.8159      287.34464      628.53255      27899.422     -18015.162     -387.37279      64879.296      40.182354      40.182354      40.182354      1.0254984     -2042.1111      722.44728     -58.569866    
     40000   40000          629.22393      3186.7509      37527.263      34484.581      11289.218      23195.362      5556.3534      7733.9701     -1050.0423      308.72215      792.86945      27876.102     -18022.613     -383.88629      65468.538      40.303635      40.303635      40.303635      1.0162685      3314.8273      2057.0975      4188.328     
     41000   41000          618.30546      544.8182       34697.74       34172.378      11093.325      23079.053      5509.9433      7924.7054     -1122.6475      268.89837      651.39582      27865.889     -18019.132     -380.10518      66119.789      40.436835      40.436835      40.436835      1.0062587     -2016.753       2257.3472      1393.8604    
     42000   42000          630.27396      757.27457      35216.002      34488.018      11308.058      23179.96       5520.0915      7934.2804     -1071.5218      323.7931       624.48176      27866.622     -18017.787     -381.27871      65916.28       40.395305      40.395305      40.395305      1.0093655      1176.356       530.90507      564.56264    
     43000   43000          619.56983     -771.53126      33329.099      34074.999      11116.009      22958.99       5491.251       7758.104      -1065.7192      310.14531      610.88993      27874.542     -18020.224     -379.12618      66290.528      40.471611      40.471611      40.471611      1.003667       1805.7098     -1545.2498     -2575.0537    
     44000   44000          620.74307     -1173.0678      33161.325      34283.814      11137.059      23146.755      5754.64        7788.9271     -1093.7816      284.12697      573.9882       27857.069     -18018.214     -383.04682      65612.016      40.333056      40.333056      40.333056      1.0140462     -348.49061     -2297.4282     -873.28458    
     45000   45000          633.53343      393.65164      34825.967      34450.874      11366.537      23084.337      5456.8351      7894.8337     -1129.0362      293.27296      722.02135      27867.054     -18020.644     -384.6666       65335.733      40.276364      40.276364      40.276364      1.0183343      1079.0991     -311.22417      413.07998    
     46000   46000          624.3098       1066.3188      35359.26       34336.316      11201.052      23135.264      5484.2354      7977.6422     -1209.3125      299.2457       702.25266      27899.093     -18017.892     -382.07303      65779.243      40.367293      40.367293      40.367293      1.0114683      568.36547      573.05843      2057.5325    
     47000   47000          632.98744      552.26365      35171.899      34641.412      11356.741      23284.671      5628.1894      7889.7455     -1096.3041      317.19555      686.21017      27877.319     -18017.684     -381.57808      65864.565      40.384739      40.384739      40.384739      1.010158       364.19951      955.65733      336.9341     
     48000   48000          637.64864     -1651.5776      32733.078      34316.801      11440.37       22876.431      5483.8135      7643.4192     -1063.1178      287.07585      695.50867      27850.83      -18021.099     -382.23538      65751.303      40.361576      40.361576      40.361576      1.0118981     -365.88503     -3544.1107     -1044.737     
     49000   49000          629.0883      -2272.768       32343.876      34564.39       11286.785      23277.605      5592.697       7927.5039     -1070.2244      278.88476      680.33585      27886.716     -18018.309     -375.1568       66991.92       40.613848      40.613848      40.613848      0.99315881    -676.01194     -3607.6387     -2534.6534    
     50000   50000          620.03602      312.38423      34564.95       34266.228      11124.374      23141.854      5578.1971      7876.396      -1099.4159      317.50459      614.97156      27877.908     -18023.708     -383.29483      65569.563      40.324355      40.324355      40.324355      1.0147027      890.30794      583.63722     -536.79249    
     51000   51000          630.86541     -101.24547      34270.558      34367.099      11318.669      23048.43       5498.9977      7814.997      -1092.3099      316.68044      658.82128      27871.106     -18019.862     -384.39085      65382.602      40.285993      40.285993      40.285993      1.0176043      1668.6646     -1476.4544     -495.94663    
     52000   52000          627.73768      1146.2922      35313.758      34214.17       11262.553      22951.617      5466.5743      7827.0072     -1127.5623      298.47862      633.20348      27874.576     -18020.661     -382.0995       65774.686      40.36636       40.36636       40.36636       1.0115383      70.929628      1611.8531      1756.0937    
     53000   53000          630.13983      1202.1675      35566.004      34418.464      11305.651      23112.813      5397.3117      7837.4532     -1025.2769      352.13982      695.40025      27873.44      -18017.655     -383.97982      65452.592      40.300362      40.300362      40.300362      1.0165161      481.76952      932.43808      2192.2949    
     54000   54000          619.27879     -1852.3753      32561.559      34357.321      11110.788      23246.533      5528.8013      7958.1327     -1109.5257      272.27057      727.52346      27887.889     -18018.558     -378.08674      66472.774      40.508665      40.508665      40.508665      1.0009153     -891.59953     -1517.3233     -3148.203     
     55000   55000          620.27311     -35.190274      34319.702      34353.135      11128.627      23224.508      5639.4326      7888.1094     -1023.2344      293.04297      609.65413      27835.614     -18018.111     -385.79769      65144.18       40.236964      40.236964      40.236964      1.0213286      473.32272     -643.61592      64.722376    
     56000   56000          634.99868     -1675.5131      32898.813      34498.531      11392.826      23105.705      5596.4385      7788.5927     -1014.0568      303.05358      592.91644      27859.291     -18020.531     -383.8978       65466.575      40.303232      40.303232      40.303232      1.016299      -1538.2707     -1468.5857     -2019.6828    
     57000   57000          627.2474      -1033.9908      33392.083      34382.355      11253.757      23128.598      5575.2955      7873.5259     -1095.2015      280.30945      666.71932      27852.283     -18024.333     -382.71321      65669.211      40.344772      40.344772      40.344772      1.013163      -885.89343     -612.9821      -1603.0967    
     58000   58000          621.40552      1241.0898      35428.138      34240.185      11148.944      23091.241      5615.1036      7696.6068     -1098.1778      272.48953      734.71125      27885.437     -18014.929     -382.92618      65632.687      40.337291      40.337291      40.337291      1.0137268      3268.4699      243.37921      211.42031    
     59000   59000          627.86476      1519.2711      35951.418      34475.058      11264.833      23210.225      5579.2691      7748.9613     -1054.3975      285.27564      792.05258      27879.655     -18020.591     -377.18476      66631.734      40.54093       40.54093       40.54093       0.99852746     1796.2841      678.59977      2082.9293    
     60000   60000          624.29011     -83.853913      34424.892      34505.781      11200.698      23305.082      5509.2354      7913.2011     -1023.2865      303.68122      733.5616       27890.199     -18021.509     -379.96533      66144.126      40.441795      40.441795      40.441795      1.0058885      623.34397      599.72371     -1474.6294    
     61000   61000          624.16689      1120.2589      35322.599      34234.331      11198.488      23035.843      5468.5889      7775.6056     -1004.7581      296.74552      619.97129      27892.456     -18012.766     -377.30601      66610.321      40.536586      40.536586      40.536586      0.99884845     1949.2733      659.5855       751.91789    
     62000   62000          617.14827     -1194.3197      33149.08       34294.527      11072.563      23221.964      5516.991       7961.414      -1030.8738      293.79191      638.85893      27856.37      -18014.588     -382.17         65762.551      40.363878      40.363878      40.363878      1.011725      -486.85674     -823.05489     -2273.0474    
     63000   63000          628.77613     -989.81627      33588.007      34552.674      11281.184      23271.49       5696.1916      7821.2145     -1019.3883      286.04353      660.27694      27846.379     -18019.227     -376.08714      66826.199      40.580331      40.580331      40.580331      0.99562172    -3413.8345     -679.13464      1123.5204    
     64000   64000          637.76593     -27.791171      34407.657      34434.175      11442.475      22991.7        5362.3473      7916.3433     -1074.1496      304.1398       630.45726      27875.467     -18022.904     -384.12886      65427.196      40.295149      40.295149      40.295149      1.0169107     -852.73853     -810.36136      1579.7264    
     65000   65000          635.52305     -988.68286      33492.497      34446.828      11402.234      23044.594      5590.1899      7815.1219     -1157.1397      280.63396      673.71565      27862.051     -18019.979     -379.72521      66185.95       40.450318      40.450318      40.450318      1.0052529     -848.04059     -895.61856     -1222.3894    
     66000   66000          633.05251      992.62087      35241.277      34281.591      11357.909      22923.682      5305.4711      7774.3226     -1125.9114      304.56023      789.78201      27895.351     -18019.894     -379.11002      66293.353      40.472186      40.472186      40.472186      1.0036242      1015.2971      637.3411       1325.2244    
     67000   67000          624.54112      126.07767      34570.7        34446.895      11205.202      23241.693      5559.4191      7920.2786     -1142.6571      310.09483      771.60484      27845.845     -18022.892     -373.25867      67332.593      40.682576      40.682576      40.682576      0.98813386    -1000.7851      261.14408      1117.8741    
     68000   68000          619.07028     -782.63254      33377.716      34125.738      11107.047      23018.692      5467.0126      7851.799      -1079.4465      283.67556      653.37156      27857.776     -18015.496     -383.49025      65536.149      40.317504      40.317504      40.317504      1.0152201     -39.878242     -1064.6959     -1243.3235    
     69000   69000          628.58534      1058.7788      35476.415      34444.754      11277.761      23166.993      5532.4851      7931.2146     -1113.9282      269.48787      705.54267      27863.293     -18021.102     -376.16589      66812.209      40.577499      40.577499      40.577499      0.9958302      983.80234      2214.9187     -22.384484    
     70000   70000          632.24642     -1884.1849      32921.2        34743.407      11343.446      23399.96       5793.829       7922.3085     -1153.0448      329.15816      664.97628      27865.182     -18022.448     -378.99797      66312.953      40.476174      40.476174      40.476174      1.0033276     -1366.6956     -2051.3244     -2234.5347    
     71000   71000          627.44226     -1091.7289      33183.221      34239.78       11257.253      22982.527      5445.4272      7798.0799     -1115.319       282.78549      719.77131      27875.761     -18023.979     -378.73248      66359.438      40.48563       40.48563       40.48563       1.0026248     -959.10966     -3218.7296      902.65253    
     72000   72000          622.57493      633.04935      35058.44       34437.701      11169.925      23267.776      5598.5776      7867.4997     -1086.5219      288.76766      778.35605      27849.594     -18028.497     -373.80015      67235.056      40.662923      40.662923      40.662923      0.98956734     243.41698      1448.1123      207.6188     
     73000   73000          623.44574     -1060.4778      33319.302      34338.954      11185.549      23153.405      5570.0313      7899.208      -1125.8967      278.25405      695.58273      27857.813     -18021.587     -381.20687      65928.702      40.397843      40.397843      40.397843      1.0091753     -1002.5544     -848.38254     -1330.4965    
     74000   74000          624.39575     -1325.6972      33018.393      34286.622      11202.594      23084.029      5709.1666      7708.9467     -1062.5609      276.49148      614.9823       27858.486     -18021.483     -383.14008      65596.046      40.329783      40.329783      40.329783      1.0142931     -252.08832     -3356.4682     -368.53508    
     75000   75000          628.26516     -641.24864      33655.401      34276.418      11272.017      23004.401      5618.555       7796.7614     -1089.0675      282.33425      563.23646      27858.143     -18025.561     -378.47216      66405.081      40.49491       40.49491       40.49491       1.0019356     -425.55455      44.267186     -1542.4585    
     76000   76000          618.88054      1270.495       35060.548      33862.169      11103.643      22758.527      5352.9475      7912.2713     -1171.1925      272.2756       558.64398      27859.254     -18025.673     -388.58863      64676.299      40.140402      40.140402      40.140402      1.0287171      3755.212      -1649.8802      1706.1533    
     77000   77000          619.769        142.1122       34411.618      34273.965      11119.583      23154.382      5471.2543      8007.2779     -1167.0169      303.66604      675.77498      27888.231     -18024.805     -378.40363      66417.107      40.497354      40.497354      40.497354      1.0017542     -1356.2855      19.870195      1762.7519    
     78000   78000          623.05294     -758.33334      33629.953      34353.753      11178.502      23175.251      5511.6357      8017.4082     -1067.311       286.74576      579.40652      27872.066     -18024.7       -384.01933      65445.857      40.29898       40.29898       40.29898       1.0166207     -1897.2219     -1037.6656      659.88744    
     79000   79000          616.10925     -1211.6538      32900.31       34065.093      11053.921      23011.172      5518.4728      7757.1267     -1053.8811      304.17716      636.27089      27865.397     -18016.392     -381.28061      65915.951      40.395238      40.395238      40.395238      1.0093705      192.20023     -3660.6218     -166.53998    
     80000   80000          635.73077      1118.0446      35502.438      34425.596      11405.961      23019.635      5458.6494      7779.3736     -1039.8534      265.06878      712.41345      27870.53      -18026.547     -380.55564      66041.523      40.420873      40.420873      40.420873      1.0074513      3657.4349     -866.09647      562.79528    
     81000   81000          618.02039      1685.498       35870.496      34258.027      11088.21       23169.817      5653.1542      7823.4975     -1107.8368      276.69135      685.86662      27861.779     -18023.335     -383.13165      65597.489      40.330079      40.330079      40.330079      1.0142708      1619.4408      3057.6368      379.41644    
     82000   82000          625.33837      380.3404       34756.572      34385.141      11219.506      23165.635      5465.6804      7962.2132     -1103.2199      287.91391      717.493        27859.306     -18023.751     -375.32275      66962.3        40.607862      40.607862      40.607862      0.99359812    -327.20594      2019.8313     -551.60415    
     83000   83000          619.7759       1637.9043      35640.983      34074.421      11119.707      22954.714      5399.4727      7865.7885     -1134.7081      282.46877      679.88322      27875.147     -18013.338     -383.22344      65581.778      40.326859      40.326859      40.326859      1.0145138      1873.446      -327.07198      3367.3388    
     84000   84000          628.22236      617.13728      34842.523      34247.788      11271.249      22976.539      5519.477       7815.986      -1080.9581      287.1497       593.82165      27864.415     -18023.353     -380.33714      66079.463      40.428612      40.428612      40.428612      1.0068728      2105.1058     -500.79477      247.10082    
     85000   85000          635.65839     -161.02638      34299.18       34453.048      11404.662      23048.386      5550.3024      7732.8201     -1085.142       308.37427      697.4233       27862.601     -18017.993     -383.58153      65520.553      40.314306      40.314306      40.314306      1.0154618      1578.2457     -1072.8247     -988.50014    
     86000   86000          624.99428      191.55313      34757.232      34572.633      11213.332      23359.301      5565.3523      7962.0282     -1086.0044      321.48254      762.82375      27862.283     -18028.665     -380.33797      66079.319      40.428583      40.428583      40.428583      1.006875       771.01512     -2099.1213      1902.7656    
     87000   87000          623.08709      376.69308      34579.456      34218.546      11179.114      23039.432      5517.202       7841.3452     -1093.1928      288.31105      626.42072      27876.784     -18017.438     -382.56068      65695.394      40.350133      40.350133      40.350133      1.0127592      1268.2012     -951.29156      813.16958    
     88000   88000          630.63369     -335.84556      34120.322      34440.687      11314.512      23126.176      5595.1026      7713.4142     -1046.8547      286.77442      754.42152      27849.195     -18025.877     -384.24225      65407.889      40.291185      40.291185      40.291185      1.0172109     -214.78386     -1920.0434      1127.2906    
     89000   89000          621.88773     -293.19612      34017.3        34297.462      11157.596      23139.866      5552.1877      8013.646      -1157.9482      299.18751      568.04432      27888.921     -18024.171     -383.58303      65520.298      40.314253      40.314253      40.314253      1.0154657     -672.56259     -1666.5038      1459.478     
     90000   90000          635.21512      1.793464       34403.404      34401.718      11396.709      23005.009      5553.1487      7813.626      -1016.5864      308.88046      517.6611       27848.128     -18019.849     -390.00055      64442.151      40.091903      40.091903      40.091903      1.0324549      443.46145     -1555.3002      1117.2191    
     91000   91000          622.98498      2.1312993      34369.434      34367.368      11177.282      23190.086      5614.5811      7832.1225     -1112.8769      305.45184      671.16666      27902.786     -18023.145     -378.0696       66475.788      40.509278      40.509278      40.509278      1.0008699     -714.83458      1448.3615     -727.13306    
     92000   92000          623.45208     -750.78542      33446.304      34157.289      11185.663      22971.626      5370.8795      7892.4778     -1048.4136      308.14592      608.3516       27863.711     -18023.526     -387.04934      64933.516      40.193545      40.193545      40.193545      1.0246421      1441.1537     -2173.5588     -1519.9512    
     93000   93000          625.67685     -587.19123      33823.179      34388.697      11225.579      23163.118      5625.4898      7898.5219     -1140.8845      296.18703      630.13735      27874.366     -18020.7       -380.57889      66037.489      40.42005       40.42005       40.42005       1.0075128     -1569.7717     -355.74414      163.94214    
     94000   94000          635.75241     -918.92314      33803.535      34679.721      11406.349      23273.372      5670.5885      7920.9991     -1099.1271      319.89353      613.28156      27869.786     -18022.05      -384.40944      65379.442      40.285343      40.285343      40.285343      1.0176535     -1031.5302     -315.16134     -1410.0779    
     95000   95000          619.83011     -2348.1969      31835.662      34089.658      11120.679      22968.978      5519.5164      7827.5216     -1055.6887      299.59992      541.23112      27862.735     -18025.937     -381.84986      65817.686      40.375155      40.375155      40.375155      1.0108775     -2314.6923     -3698.862      -1031.0362    
     96000   96000          630.79731     -1345.4161      33096.601      34372.548      11317.447      23055.1        5723.9511      7755.0852     -1098.2355      308.78244      539.37004      27855.162     -18029.015     -386.48738      65027.93       40.213016      40.213016      40.213016      1.0231544     -328.2882      -1554.4707     -2153.4894    
     97000   97000          625.0139      -223.45251      34173.904      34387.934      11213.684      23174.249      5667.2515      7834.0285     -1082.9453      289.8541       632.81342      27859.461     -18026.214     -382.66759      65677.039      40.346375      40.346375      40.346375      1.0130423     -1156.1575      1159.7107     -673.91064    
     98000   98000          622.69696      1429.3006      35463.14       34109.907      11172.115      22937.792      5375.4461      7897.7312     -1119.4473      274.41693      639.48606      27890.392     -18020.233     -387.13456      64919.221      40.190595      40.190595      40.190595      1.0248677      2407.1291      1427.6962      453.07642    
     99000   99000          635.81524     -1133.0999      33488.353      34571.562      11407.476      23164.086      5666.4142      7875.6268     -1100.761       266.40118      587.25206      27890.222     -18021.07      -383.41287      65549.375      40.320216      40.320216      40.320216      1.0150153     -268.97967     -781.14843     -2349.1716    
    100000   100000         623.39152     -147.07014      34023.275      34164.414      11184.576      22979.838      5379.7318      7878.9923     -1080.5988      288.24086      699.08412      27836.211     -18021.824     -381.93546      65802.934      40.372138      40.372138      40.372138      1.0111041      1026.2934      340.10547     -1807.6093    
    101000   101000         642.157       -1047.0441      33484.09       34481.047      11521.257      22959.79       5568.2143      7766.2906     -1166.5715      274.06608      656.14757      27886.91      -18025.267     -384.94583      65288.341      40.266623      40.266623      40.266623      1.0190735     -238.84245     -2772.0975     -130.19218    
    102000   102000         620.91257      35.4366        33791.13       33757.316      11140.1        22617.216      5281.22        7731.0294     -1171.9644      281.9035       654.07724      27863.993     -18023.042     -384.12136      65428.473      40.295412      40.295412      40.295412      1.0168908      3008.5742     -1657.2316     -1245.0328    
    103000   103000         634.03517      1171.9593      35524.4        34417.655      11375.539      23042.115      5484.2909      7888.8584     -1149.6283      304.22459      660.60911      27877.044     -18023.283     -388.1288       64752.923      40.156248      40.156248      40.156248      1.0274998      395.88408      2592.0677      527.92605    
    104000   104000         612.39167     -187.0676       33873.267      34052.229      10987.223      23065.006      5441.752       7933.6583     -1084.7196      273.54041      678.93109      27847.906     -18026.061     -383.1321       65597.412      40.330063      40.330063      40.330063      1.014272       1161.8619     -179.74333     -1543.3214    
    105000   105000         629.82697     -744.48394      33597.993      34310.474      11300.038      23010.436      5560.1934      7748.8092     -1132.8669      316.22035      684.41543      27857.108     -18023.443     -382.995        65620.895      40.334875      40.334875      40.334875      1.013909      -1536.1382      90.584821     -787.89846    
    106000   106000         623.55368     -1620.2107      32521.312      34080.877      11187.486      22893.392      5472.3686      7792.4579     -1055.9966      276.84198      584.32941      27853.432     -18030.041     -380.78422      66001.879      40.412784      40.412784      40.412784      1.0080564     -2095.5069     -1707.5144     -1057.6109    
    107000   107000         619.06889      1139.9155      35204.958      34104.867      11107.022      22997.845      5512.0413      7856.0365     -1194.997       299.35762      659.51596      27887.528     -18021.637     -379.79996      66172.924      40.447664      40.447664      40.447664      1.0054507      3196.2215      1445.9041     -1222.3792    
    108000   108000         634.74841      431.87647      34600.059      34189.682      11388.336      22801.346      5496.716       7702.5945     -1143.5071      291.45681      632.53638      27848.271     -18026.722     -385.73336      65155.045      40.239201      40.239201      40.239201      1.0211583     -842.8119       2388.7981     -250.35678    
    109000   109000         635.24954     -429.31338      34004.199      34416.977      11397.327      23019.65       5615.2183      7708.9027     -1053.6376      285.16497      619.40178      27870.716     -18026.117     -381.21409      65927.453      40.397588      40.397588      40.397588      1.0091944     -100.20306     -1309.7695      122.03246    
    110000   110000         624.62211      519.88102      34682.49       34189.134      11206.655      22982.479      5536.2498      7802.2215     -1132.3816      305.78174      635.26288      27860.101     -18024.756     -386.23823      65069.878      40.221661      40.221661      40.221661      1.0224949      2311.3859     -672.35829     -79.384523    
    111000   111000         613.20788      518.4324       34794.418      34300.375      11001.867      23298.509      5610.6229      7949.1146     -1118.7645      310.84444      698.77185      27868.826     -18020.906     -384.62588      65342.649      40.277785      40.277785      40.277785      1.0182265      1273.2311     -252.7399       534.80595    
    112000   112000         618.36744      27.844348      34146.455      34119.951      11094.437      23025.514      5466.8334      7891.6171     -1103.0531      305.72086      634.379        27860.853     -18030.836     -385.06817      65267.597      40.262358      40.262358      40.262358      1.0193973      559.21328     -1503.3939      1027.7137    
    113000   113000         620.37225      509.67394      34563.922      34076.151      11130.406      22945.745      5581.8746      7754.6769     -1105.4157      311.67383      570.17954      27858.26      -18025.504     -382.99026      65621.706      40.335041      40.335041      40.335041      1.0138965      1165.5403      1337.0043     -973.5228     
    114000   114000         620.76867     -1080.9379      33027.184      34058.273      11137.518      22920.755      5438.9604      7815.139      -1125.0085      297.55628      634.46454      27879.286     -18019.643     -384.25144      65406.324      40.290864      40.290864      40.290864      1.0172352     -874.20245     -1132.2747     -1236.3364    
    115000   115000         627.11335      1540.8122      35581.66       34105.295      11251.351      22853.944      5466.1455      7734.6133     -1157.0288      306.37017      679.0339       27853.933     -18029.123     -382.53141      65700.419      40.351162      40.351162      40.351162      1.0126817      959.90998      2297.196       1365.3306    
    116000   116000         643.35272     -672.01615      33971.004      34609.029      11542.71       23066.319      5528.3234      7868.1092     -1027.9781      290.4829       538.71068      27887.691     -18019.02      -386.05828      65100.208      40.227909      40.227909      40.227909      1.0220185     -959.2599      -1353.2082      296.41968    
    117000   117000         618.56143      1026.5422      35130.981      34151.634      11097.917      23053.717      5510.8282      7795.1057     -1122.7144      303.4227       730.26459      27863.402     -18026.592     -384.19481      65415.964      40.292843      40.292843      40.292843      1.0170853      1596.8848     -1041.4946      2524.2363    
    118000   118000         632.92743      3149.2053      37268.95       34283.337      11355.665      22927.672      5425.5929      7835.3624     -1115.1522      323.22318      643.78737      27844.183     -18029.325     -386.6149       65006.481      40.208594      40.208594      40.208594      1.023492       3814.1935      2683.589       2949.8333    
    119000   119000         629.76079      1579.7433      35765.523      34258.492      11298.85       22959.641      5355.3243      7983.4368     -1196.862       335.52701      656.09746      27850.513     -18024.396     -384.21598      65412.36       40.292103      40.292103      40.292103      1.0171413      1299.2627      1976.0066      1463.9606    
    120000   120000         626.46022     -1002.5858      33061.002      34018.666      11239.633      22779.033      5483.8637      7764.5989     -1197.4202      269.82138      599.21584      27882.041     -18023.088     -383.72464      65496.119      40.309294      40.309294      40.309294      1.0158406     -12.027642     -2297.0771     -698.65257    
    121000   121000         625.36991     -217.53348      34049.744      34257.097      11220.072      23037.025      5594.8335      7897.9304     -1167.5703      289.96481      598.08444      27851.216     -18027.433     -384.52784      65359.31       40.281208      40.281208      40.281208      1.0179669      742.52058     -2265.2982      870.17721    
    122000   122000         619.74919      2278.7075      36182.664      34005.497      11119.227      22886.269      5395.6623      7661.346      -1066.1113      322.13325      734.18557      27865.343     -18026.29      -383.62599      65512.961      40.312748      40.312748      40.312748      1.0155794      2997.0978      2136.8352      1702.1897    
    123000   123000         621.25621      1194.1539      35217.353      34065.044      11146.266      22918.779      5461.9584      7765.9718     -1156.834       280.87242      715.21084      27873.745     -18022.145     -379.84169      66165.655      40.446183      40.446183      40.446183      1.0055612     -663.37193      1737.8975      2507.9361    
    124000   124000         626.52093      1039.82        35014.234      34029.485      11240.723      22788.762      5393.5281      7810.3763     -1176.2873      272.3987       660.67139      27852.183     -18024.108     -387.02924      64936.887      40.19424       40.19424       40.19424       1.0245889      795.52682     -2424.8159      4748.7491    
    125000   125000         627.54137     -1164.9011      33178.941      34292.047      11259.031      23033.016      5515.7331      7961.8074     -1161.8874      259.63844      619.24708      27867.175     -18028.697     -383.58677      65519.659      40.314122      40.314122      40.314122      1.0154756     -1965.8495      1394.7459     -2923.5997    
    126000   126000         622.15529      1811.6736      36101.272      34387.966      11162.396      23225.57       5521.6765      7975.9298     -1105.6901      288.23694      695.07197      27879.493     -18029.149     -387.57535      64845.39       40.175353      40.175353      40.175353      1.0260346      817.01045      3051.7115      1566.2989    
    127000   127000         626.41716     -942.01315      33325.405      34236.533      11238.861      22997.672      5527.2471      7801.151      -1159.6943      280.07517      704.96861      27869.146     -18025.222     -378.95631      66320.241      40.477657      40.477657      40.477657      1.0032173     -896.27748      702.99447     -2632.7564    
    128000   128000         621.13782      969.86259      35000.026      34083.476      11144.141      22939.335      5576.6157      7762.1061     -1136.6612      291.63401      622.28613      27852.687     -18029.333     -387.85108      64799.289      40.16583       40.16583       40.16583       1.0267646      937.98067     -177.23867      2148.8458    
    129000   129000         620.84344     -312.05094      33806.298      34107.581      11138.86       22968.721      5462.5737      7799.1626     -1127.2854      271.7596       687.46179      27905.063     -18030.014     -379.6316       66202.272      40.453642      40.453642      40.453642      1.005005       600.54062      238.41131     -1775.1047    
    130000   130000         623.4858       2009.1103      36211.789      34299.293      11186.268      23113.025      5584.3299      7871.9631     -1209.9514      261.14559      761.65518      27876.191     -18032.309     -385.04744      65271.111      40.263081      40.263081      40.263081      1.0193425      287.4138       4660.7966      1079.1206    
    131000   131000         624.54475      1467.8626      35417.429      34028.39       11205.267      22823.123      5402.829       7741.47       -1067.7385      302.51492      621.20683      27855.42      -18032.579     -387.33094      64886.307      40.183801      40.183801      40.183801      1.0253876      493.45453      3076.3269      833.8062     
    132000   132000         618.21275      279.86101      34426.376      34159.399      11091.661      23067.738      5524.87        7890.1561     -1107.1535      263.88295      677.57289      27843.082     -18024.672     -384.22075      65411.548      40.291937      40.291937      40.291937      1.017154       1111.4987      1301.737      -1573.6527    
    133000   133000         635.19437     -1108.5463      33335.533      34385.653      11396.337      22989.316      5484.722       7920.7301     -1104.4744      327.52672      527.29354      27856.363     -18022.844     -386.92441      64954.481      40.19787       40.19787       40.19787       1.0243114     -2401.0374     -793.50441     -131.09705    
    134000   134000         618.52665     -2638.9319      31781.551      34307.062      11097.293      23209.769      5741.3421      7960.1409     -1124.7383      269.25523      529.11885      27853.569     -18018.919     -382.99233      65621.351      40.334969      40.334969      40.334969      1.0139019     -3168.8785     -1368.9774     -3378.9398    
    135000   135000         612.42063     -359.35598      33439.78       33780.017      10987.742      22792.275      5452.5992      7653.1688     -1147.1296      317.20583      674.009        27866.545     -18024.123     -387.12766      64920.379      40.190834      40.190834      40.190834      1.0248495     -1349.8754      1254.2566     -982.44924    
    136000   136000         626.47592     -237.94982      33971.074      34196.277      11239.915      22956.362      5566.3396      7892.1427     -1093.025       290.00122      501.94057      27819.668     -18020.705     -387.27819      64895.145      40.185626      40.185626      40.185626      1.025248      -117.54217      573.26268     -1169.57      
    137000   137000         629.89971      2844.2673      36775.649      34064.224      11301.343      22762.881      5362.9243      7796.0032     -1177.2607      312.80576      624.82368      27866.072     -18022.487     -384.48913      65365.89       40.28256       40.28256       40.28256       1.0178645      2757.1504      3900.9579      1874.6935    
    138000   138000         620.81139      111.30591      33992.478      33887.759      11138.285      22749.474      5479.8517      7749.6737     -1130.8759      300.05517      489.42703      27885.664     -18024.322     -389.58512      64510.867      40.106149      40.106149      40.106149      1.0313552     -104.04346      1817.5173     -1379.5561    
    139000   139000         620.51633     -1264.6231      32912.573      34106.659      11132.991      22973.668      5620.6189      7849.0215     -1159.5511      305.94793      516.47902      27865.898     -18024.746     -388.18285      64743.907      40.154384      40.154384      40.154384      1.0276429     -2855.6555      1068.1125     -2006.3262    
    140000   140000         625.40821      1247.5884      35575.767      34386.692      11220.759      23165.933      5550.4816      7956.0624     -1131.0964      291.32823      657.9384       27867.984     -18026.765     -384.56821      65352.449      40.279798      40.279798      40.279798      1.0180738      427.57079      2225.4554      1089.739     
    141000   141000         628.04345      158.8838       34215.251      34064.162      11268.039      22796.123      5393.8598      7720.8135     -1117.4904      305.00229      659.2241       27857.08      -18022.367     -385.43962      65204.699      40.24942       40.24942       40.24942       1.0203807     -1931.8523      2259.8275      148.67616    
    142000   142000         617.10319     -738.9125       33190.934      33904.712      11071.754      22832.957      5538.6135      7690.0089     -1143.0811      289.48675      588.88653      27888.689     -18019.646     -379.43846      66235.969      40.460505      40.460505      40.460505      1.0044937     -286.41218     -1352.5976     -577.72773    
    143000   143000         628.10839      2189.1575      36321.466      34228.194      11269.204      22958.99       5492.954       7949.9957     -1211.0686      262.29712      603.59676      27885.692     -18024.477     -383.32091      65565.101      40.32344       40.32344       40.32344       1.0147718      887.80607      2875.3198      2804.3466    
    144000   144000         637.39319     -14.659661      34589.702      34603.794      11435.787      23168.006      5673.3693      7812.192      -1146.1245      284.91627      715.76063      27846.284     -18018.391     -381.30071      65912.477      40.394529      40.394529      40.394529      1.0094237      2979.1992     -802.4644      -2220.7138    
    145000   145000         609.08275      1086.5503      35056.777      34024.483      10927.855      23096.627      5573.2401      7860.9738     -1109.9236      299.0257       625.69974      27863.476     -18015.865     -385.79558      65144.537      40.237038      40.237038      40.237038      1.021323       607.38728      1409.2058      1243.058     
    146000   146000         631.14855      1600.6395      35840.526      34313.805      11323.749      22990.056      5496.3031      7797.9624     -1105.1814      300.55877      685.26863      27839.92      -18024.775     -384.27759      65401.873      40.28995       40.28995       40.28995       1.0173044      1169.2232      2549.7411      1082.9541    
    147000   147000         623.03102      911.76384      35148.803      34280.204      11178.108      23102.095      5442.5168      7910.4696     -1090.2683      306.58591      672.31391      27878.716     -18018.239     -384.74568      65322.304      40.273604      40.273604      40.273604      1.0185436      822.90224      1471.7618      440.62744    
    148000   148000         631.1235       1481.5055      35593.113      34162.972      11323.299      22839.673      5365.6295      7839.4013     -1140.3819      278.61357      661.04982      27860.228     -18024.867     -379.69581      66191.077      40.451362      40.451362      40.451362      1.005175       1777.219       2430.038       237.25952    
    149000   149000         639.34048      1791.1073      36164.532      34448.763      11470.724      22978.039      5553.3585      7890.5226     -1203.81        309.28522      580.26364      27872.123     -18023.704     -382.62553      65684.259      40.347854      40.347854      40.347854      1.0129309      776.46106      2771.5732      1825.2877    
    150000   150000         635.0783       2403.9732      36485.534      34186.621      11394.255      22792.367      5345.5417      7743.6659     -1085.4897      293.87538      638.08122      27879.948     -18023.256     -383.28184      65571.785      40.32481       40.32481       40.32481       1.0146684      1352.2493      3296.3978      2563.2727    
    151000   151000         618.58963     -1083.4723      33187.44       34212.216      11098.423      23113.793      5720.3303      7790.8247     -1135.8755      283.92576      625.97113      27851.27      -18022.653     -387.52505      64853.805      40.177091      40.177091      40.177091      1.0259015     -1535.3539     -1911.8252      196.76211    
    152000   152000         615.30959      99.225689      34020.02       33925.585      11039.574      22886.01       5529.9372      7829.9031     -1196.0616      297.13796      624.66603      27826.19      -18025.762     -385.1266       65257.696      40.260322      40.260322      40.260322      1.019552       2162.6485     -1325.1313     -539.84006    
    153000   153000         622.47501     -1816.4367      32379.849      34113.626      11168.133      22945.493      5533.1234      7920.3087     -1185.9861      294.05508      547.85391      27861.661     -18025.523     -384.0061       65448.112      40.299443      40.299443      40.299443      1.0165857     -1410.8398     -1144.1388     -2894.3314    
    154000   154000         618.35692      598.36504      34474.128      33908.231      11094.248      22813.983      5448.4876      7798.8156     -1222.0585      279.31062      659.19194      27870.044     -18019.808     -387.56038      64847.894      40.17587       40.17587       40.17587       1.025995       1503.3517      684.3825      -392.6391     
    155000   155000         626.02209      904.30361      35032.077      34169.464      11231.773      22937.692      5358.8555      7945.1251     -1144.4075      285.67168      650.31644      27861.015     -18018.885     -384.24629      65407.201      40.291044      40.291044      40.291044      1.0172216     -955.8663       2712.6955      956.08162    
    156000   156000         616.97071      166.76129      34067.229      33907.853      11069.377      22838.476      5390.9268      7775.0386     -1097.7174      318.68237      605.44679      27868.046     -18021.948     -383.51552      65531.831      40.316619      40.316619      40.316619      1.015287       1967.4857      819.76567     -2286.9674    
    157000   157000         631.384        498.96022      34752.621      34279.349      11327.973      22951.376      5428.0586      7847.8859     -1067.5731      308.73812      593.37711      27857.259     -18016.37      -386.42629      65038.21       40.215135      40.215135      40.215135      1.0229927     -720.6279      -247.46905      2464.9776    
    158000   158000         636.48685     -475.99148      33676.827      34128.791      11419.526      22709.265      5251.2868      7784.943      -1090.094       313.81378      625.40871      27845.464     -18021.557     -386.01692      65107.183      40.229346      40.229346      40.229346      1.021909      -1265.9462     -1786.8305      1624.8022    
    159000   159000         629.06947     -1070.7927      33289.316      34310.997      11286.447      23024.549      5672.1067      7814.558      -1162.3585      318.1319       562.7397       27842.41      -18023.038     -384.15057      65423.499      40.29439       40.29439       40.29439       1.0169682     -779.68331     -3524.694       1091.9993    
    160000   160000         633.05229     -990.6128       33544.926      34501.827      11357.905      23143.922      5570.0377      7881.1442     -1142.5125      314.00886      670.24247      27865.795     -18014.793     -379.44407      66234.991      40.460306      40.460306      40.460306      1.0045086      1013.0017     -2765.3678     -1219.4723    
    161000   161000         622.94538      479.34149      34686.04       34227.226      11176.572      23050.654      5530.6447      7833.9397     -1148.6083      294.13543      656.1321       27905.065     -18020.655     -382.93014      65632.008      40.337152      40.337152      40.337152      1.0137373      388.45359      1557.9354     -508.36453    
    162000   162000         617.81017     -788.5229       33374.441      34126.493      11084.438      23042.054      5542.56        7856.9308     -1162.8386      286.30976      664.90118      27871.256     -18017.065     -384.30672      65396.915      40.288932      40.288932      40.288932      1.0173816     -935.51755      1070.299      -2500.3501    
    163000   163000         618.86027     -739.21577      32993.249      33697.607      11103.279      22594.328      5374.9791      7697.3936     -1148.4345      294.464        529.15313      27870.82      -18024.047     -384.67048      65335.074      40.276228      40.276228      40.276228      1.0183445     -953.78697     -36.26544      -1227.5949    
    164000   164000         624.42252     -665.66389      33555.292      34184.237      11203.074      22981.163      5485.8513      7885.3426     -1045.339       285.56026      513.93281      27876.549     -18020.734     -387.93023      64786.067      40.163098      40.163098      40.163098      1.0269741     -1008.4538     -1574.5321      585.99424    
    165000   165000         621.22357      415.89593      34777.296      34374.993      11145.68       23229.313      5595.8872      7987.3334     -1125.1141      291.0047       631.30303      27866.578     -18017.679     -378.9155       66327.385      40.47911       40.47911       40.47911       1.0031093     -591.94363      2389.8292     -550.19775    
    166000   166000         625.96861     -842.87167      33292.276      34094.89       11230.813      22864.077      5508.431       7762.8828     -1131.7799      295.77011      564.22545      27882.748     -18018.2       -384.91595      65293.408      40.267665      40.267665      40.267665      1.0189944     -1266.8697     -781.88777     -479.85757    
    167000   167000         625.23388      1405.8261      35903.432      34561.779      11217.631      23344.148      5704.4277      7881.3989     -1107.9342      298.14752      752.85347      27836.979     -18021.725     -384.06298      65438.419      40.297453      40.297453      40.297453      1.0167363      2275.7433      1377.797       563.93796    
    168000   168000         628.66349      1049.554       35180.012      34167.231      11279.163      22888.067      5493.3049      7752.1671     -1200.8808      286.28361      693.75523      27881.166     -18017.728     -379.83972      66165.999      40.446253      40.446253      40.446253      1.005556       1897.858      -431.19677      1682.0009    
    169000   169000         615.40152      1161.4531      35024.411      33914.392      11041.224      22873.168      5429.1261      7775.2938     -1162.8026      309.36905      675.30189      27866.845     -18019.965     -383.51504      65531.914      40.316636      40.316636      40.316636      1.0152857      2582.3684     -725.88237      1627.8733    
    170000   170000         619.18023      1228.8646      35211.604      34039.093      11109.019      22930.073      5420.5377      7857.2069     -1205.7724      277.03432      729.36056      27868.598     -18016.892     -384.14765      65423.997      40.294492      40.294492      40.294492      1.0169604      391.51992      706.40111      2588.6727    
    171000   171000         625.00032     -921.34074      33429.347      34319.821      11213.441      23106.38       5463.1044      7920.0869     -1123.653       277.07154      703.4041       27885.497     -18019.131     -379.23666      66271.215      40.46768       40.46768       40.46768       1.0039595     -7.5515637     -1394.4537     -1362.0169    
    172000   172000         608.98852     -1011.0096      33029.89       34010.962      10926.165      23084.797      5484.271       7823.2942     -1078.0791      335.52614      643.71601      27895.223     -18019.155     -377.71639      66537.95       40.5219        40.5219        40.5219        0.99993486    -1155.8679     -1600.996      -276.16506    
    173000   173000         615.55781      897.95755      34920.951      34059.658      11044.028      23015.631      5482.7862      7694.4899     -1076.931       286.82656      775.37922      27874.343     -18021.263     -382.13447      65768.666      40.365129      40.365129      40.365129      1.0116309      1283.7717      1236.1404      173.96054    
    174000   174000         631.61381     -1283.3533      33122.761      34370.506      11332.096      23038.409      5540.2311      7867.1467     -1173.2499      295.60988      665.91198      27870.025     -18027.265     -376.99153      66665.885      40.547855      40.547855      40.547855      0.99801594    -1915.022      -1571.4505     -363.58735    
    175000   175000         617.80325      215.744        34057.567      33851.3        11084.314      22766.986      5383.2961      7735.7525     -1194.0134      297.85419      670.38132      27895.493     -18021.778     -383.37199      65556.365      40.321649      40.321649      40.321649      1.014907       33.835853      1163.8311     -550.43499    
    176000   176000         623.3293       1072.7208      35191.918      34161.64       11183.46       22978.18       5384.4266      7769.8081     -1117.9256      307.89723      817.18851      27845.51      -18028.725     -381.63076      65855.473      40.38288       40.38288       40.38288       1.0102974     -87.944769      1639.0867      1667.0204    
    177000   177000         624.93774      709.87493      34599.474      33919.841      11212.318      22707.523      5410.9439      7629.2701     -1140.5604      284.53762      659.79502      27885.069     -18021.531     -382.84111      65647.271      40.340279      40.340279      40.340279      1.0135016      748.15815      1043.27        338.19665    
    178000   178000         631.13348     -432.84638      33861.621      34281.994      11323.479      22958.516      5359.916       7809.1882     -1096.4457      334.13504      710.57407      27866.344     -18025.196     -377.40724      66592.454      40.532962      40.532962      40.532962      0.99911645    -662.26492     -571.10232     -65.171914    
    179000   179000         629.50812      1445.5449      35752.13       34372.98       11294.317      23078.663      5655.5316      7781.0815     -1134.1689      295.64551      645.49663      27857.138     -18022.062     -384.17682      65419.028      40.293472      40.293472      40.293472      1.0170377     -508.8856       2601.1929      2244.3273    
    180000   180000         616.54603     -607.43716      33343.98       33932.165      11061.758      22870.408      5238.6199      7880.5775     -1175.7106      303.28137      780.7469       27862.325     -18019.432     -378.52806      66395.273      40.492916      40.492916      40.492916      1.0020836     -2859.6978     -185.74946      1223.1358    
    181000   181000         624.50289     -2532.0414      31629.149      34063.892      11204.516      22859.376      5463.7019      7718.1896     -1084.7581      306.89318      614.44067      27862.605     -18021.696     -381.17873      65933.569      40.398837      40.398837      40.398837      1.0091008     -4201.2107     -2330.7418     -1064.1717    
    182000   182000         626.08988      342.01943      34514.445      34184.762      11232.989      22951.773      5307.2244      7898.6309     -1158.3717      270.1874       763.85582      27892.02      -18021.775     -380.24647      66095.221      40.431826      40.431826      40.431826      1.0066328     -105.28659      304.7823       826.56257    
    183000   183000         633.24618      764.05952      35125.286      34401.302      11361.384      23039.919      5565.5065      7848.4044     -1140.0788      294.04493      617.77529      27878.185     -18023.918     -386.82056      64971.92       40.201467      40.201467      40.201467      1.0240365      1227.0035      1894.9263     -829.75121    
    184000   184000         618.47547     -653.7617       33466.237      34091.862      11096.375      22995.487      5422.6699      7925.2703     -1167.1227      294.24779      679.85802      27860.28      -18019.716     -383.01568      65617.35       40.334149      40.334149      40.334149      1.0139638     -107.38586     -2088.4736      234.57438    
    185000   185000         629.13162     -1280.6029      32994.099      34201.4        11287.562      22913.838      5563.4059      7822.0981     -1135.535       287.96804      509.53088      27880.422     -18014.052     -388.78568      64643.518      40.133619      40.133619      40.133619      1.0292388     -1140.7085     -1868.7122     -832.38809    
    186000   186000         629.10013      1048.0484      35283.625      34283.688      11286.997      22996.691      5549.4205      7820.154      -1171.2405      277.0305       672.57754      27870.297     -18021.548     -384.16684      65420.728      40.293821      40.293821      40.293821      1.0170112      523.2007       3020.1082     -399.16361    
    187000   187000         620.17064      1575.6767      35320.933      33827.978      11126.789      22701.189      5404.7246      7682.524      -1164.9074      303.98894      644.49428      27849.441     -18019.076     -386.84009      64968.64       40.20079       40.20079       40.20079       1.0240882      3015.1155     -86.797258      1798.7119    
    188000   188000         623.84144      1801.692       35749.604      34055.219      11192.648      22862.571      5471.3387      7791.6356     -1154.5511      275.42062      648.60813      27851.031     -18020.912     -389.74413      64484.549      40.100694      40.100694      40.100694      1.0317761      1346.3214      1830.5452      2228.2093    
    189000   189000         629.69104      1671.7917      35722.406      34123.808      11297.599      22826.209      5559.2606      7689.9422     -1209.4846      331.2197       623.40012      27853.717     -18021.846     -383.31351      65566.368      40.3237        40.3237        40.3237        1.0147522      2463.3287      1368.6177      1183.4286    
    190000   190000         620.47505     -1556.1343      32253.709      33725.374      11132.25       22593.123      5249.3712      7871.4228     -1195.4729      278.34727      564.14632      27847.98      -18022.672     -387.5693       64846.4        40.175562      40.175562      40.175562      1.0260186     -1986.5519     -942.22074     -1739.6301    
    191000   191000         621.22931      357.87938      34524.654      34182.922      11145.783      23037.139      5638.5368      7911.0834     -1175.2691      285.97188      536.67032      27859.412     -18019.267     -383.8503       65474.677      40.304894      40.304894      40.304894      1.0161733      756.45285      9.1536516      308.03164    
    192000   192000         636.13349     -210.86818      34140.603      34339.27       11413.186      22926.083      5470.636       7969.9406     -1189.2074      287.32488      584.50527      27827.469     -18024.585     -389.04374      64600.64       40.124744      40.124744      40.124744      1.0299219     -142.26692     -801.44566      311.10805    
    193000   193000         618.14704     -3287.5447      30939.452      34111.817      11090.482      23021.335      5589.1699      7875.6782     -1121.9783      288.42896      556.82002      27853.383     -18020.167     -379.83908      66166.109      40.446275      40.446275      40.446275      1.0055543     -2982.6605     -3240.1559     -3639.8176    
    194000   194000         619.24558      2334.59        35970.519      33763.866      11110.192      22653.674      5329.6177      7748.4014     -1149.1241      289.00071      606.22148      27849.606     -18020.049     -387.78219      64810.801      40.168209      40.168209      40.168209      1.0265822      549.04394      3061.7381      3392.9879    
    195000   195000         624.82793     -235.80124      33936.74       34160.786      11210.348      22950.439      5517.915       7850.1203     -1099.2068      301.59073      550.75727      27850.91      -18021.648     -385.76229      65150.159      40.238195      40.238195      40.238195      1.0212349     -527.86554     -759.29011      579.75192    
    196000   196000         609.81747     -569.05127      33323.958      33862.547      10941.037      22921.51       5405.203       7932.7586     -1186.9421      298.15669      621.20052      27872.953     -18021.82      -387.26161      64897.923      40.186199      40.186199      40.186199      1.0252041     -142.90306      228.39765     -1792.6484    
    197000   197000         628.23696     -1065.6588      33211.513      34222.404      11271.511      22950.893      5663.6065      7842.5635     -1209.5198      293.85929      533.39652      27850.505     -18023.518     -386.3892       65044.453      40.216421      40.216421      40.216421      1.0228945     -216.6393      -909.69774     -2070.6394    
    198000   198000         625.58396     -2382.1981      31892.655      34156.048      11223.912      22932.136      5601.9685      7920.3826     -1171.3576      300.48604      454.76216      27850.331     -18024.437     -385.77052      65148.768      40.237909      40.237909      40.237909      1.0212567     -2066.1423     -3206.2813     -1874.1708    
    199000   199000         630.34867     -328.02996      33915.789      34230.805      11309.398      22921.407      5392.3668      7812.9676     -1097.2368      274.49223      692.56382      27869.077     -18022.823     -381.67325      65848.142      40.381382      40.381382      40.381382      1.0104099     -897.18796      518.10939     -605.01132    
    200000   200000         627.02332      2208.113       36167.827      34065.125      11249.736      22815.389      5291.7463      7890.0282     -1183.1126      280.81845      679.76109      27875.979     -18019.832     -384.90601      65295.095      40.268012      40.268012      40.268012      1.0189681      2162.9723      2564.9362      1896.4304    
    201000   201000         613.32375     -217.69254      33535.663      33742.811      11003.945      22738.865      5324.794       7838.2949     -1216.3735      300.69611      650.16899      27860.831     -18019.546     -385.1901       65246.937      40.258109      40.258109      40.258109      1.0197201     -1001.622      -449.88927      798.43368    
    202000   202000         619.67332     -948.53113      32921.97       33819.521      11117.866      22701.655      5433.7178      7770.1702     -1163.5245      285.70445      533.15316      27863.411     -18020.977     -387.35013      64883.093      40.183138      40.183138      40.183138      1.0254384      167.30047     -1206.436      -1806.4578    
    203000   203000         630.18625      531.08848      34557.187      34056.739      11306.484      22750.255      5356.2553      7895.6953     -1220.7448      269.4517       582.95706      27890.787     -18024.146     -388.97244      64612.481      40.127195      40.127195      40.127195      1.0297332      304.93412      55.001488      1233.3298    
    204000   204000         625.20866     -130.24813      33976.609      34101.518      11217.178      22884.339      5660.0858      7770.5352     -1215.662       286.40818      589.76356      27822.502     -18029.293     -382.19861      65757.63       40.362871      40.362871      40.362871      1.0118007      1179.7524     -1925.9999      355.5031     
    205000   205000         620.53708      1306.3038      35265.338      34017.848      11133.363      22884.485      5431.2541      7747.2883     -1123.9187      310.51436      678.2856       27858.21      -18017.149     -383.81165      65481.271      40.306247      40.306247      40.306247      1.0160709      697.18297      3562.3597     -340.63119    
    206000   206000         623.56091      131.80464      34234.016      34107.349      11187.615      22919.734      5510.2756      7859.7972     -1197.398       279.65835      614.63391      27875.556     -18022.789     -381.39753      65895.745      40.39111       40.39111       40.39111       1.00968       -1819.445       922.06332      1292.7956    
    207000   207000         615.60488      1981.5173      35743.095      33889.546      11044.872      22844.674      5501.7703      7758.8046     -1152.8092      300.84426      619.04181      27841.282     -18024.26      -391.83661      64140.19       40.029185      40.029185      40.029185      1.0373155      2492.7196      1698.0954      1753.7369    
    208000   208000         618.90993     -263.87133      33612.881      33863.761      11104.17       22759.592      5391.1879      7835.0232     -1157.1707      288.2736       575.12714      27855.067     -18027.916     -385.5104       65192.727      40.246957      40.246957      40.246957      1.0205681     -436.53343      515.75931     -870.83986    
[...]
   1952000   1952000        549.72262      808.33255      31853.844      31111.399      9862.846       21248.553      4790.0601      7238.3613     -1231.8444      284.2675       342.3096       27849.49      -18024.091     -399.05877      62979.381      39.786231      39.786231      39.786231      1.0564349     -204.13239      1886.2399      742.89016    
   1953000   1953000        553.86605      1423.5388      32637.785      31338.374      9937.1854      21401.189      4909.297       7244.9838     -1250.7123      271.22712      414.71173      27833.442     -18021.761     -401.54472      62589.478      39.703956      39.703956      39.703956      1.063016       2293.7947     -412.92621      2389.748     
   1954000   1954000        550.45541      502.32597      31882.249      31416.156      9875.9934      21540.163      4955.0018      7308.1421     -1214.1967      267.51598      401.0809       27843.632     -18021.013     -395.02537      63622.431      39.921185      39.921185      39.921185      1.0457572     -1005.788       2492.6791      20.086792    
   1955000   1955000        547.32983      705.36811      31815.915      31168.582      9819.9158      21348.666      4868.9935      7202.8051     -1253.4291      267.02798      427.52243      27860.021     -18024.275     -399.39167      62926.887      39.775173      39.775173      39.775173      1.0573162      1327.6071      1031.9564     -243.45916    
   1956000   1956000        542.00162     -1672.5611      29477.739      31020.595      9724.3197      21296.276      4909.919       7287.3961     -1249.1551      248.61219      282.96172      27842.945     -18026.403     -397.34499      63251.016      39.843349      39.843349      39.843349      1.051898      -1717.9829     -2069.6501     -1230.0503    
   1957000   1957000        559.81658      1199.1515      32389.657      31281.837      10043.947      21237.89       4865.9128      7166.9323     -1271.1706      249.80282      392.91149      27852.414     -18018.913     -396.7491       63346.014      39.863286      39.863286      39.863286      1.0503205      1781.2461      1849.1977     -32.989375    
   1958000   1958000        548.9601      -244.48452      30911.879      31138.623      9849.1653      21289.457      4932.9811      7138.3363     -1216.8403      239.30266      339.1725       27874.779     -18018.274     -395.20938      63592.808      39.914988      39.914988      39.914988      1.0462444     -351.90094     -588.47925      206.92661    
   1959000   1959000        553.88941     -1072.6547      30338.158      31321.552      9937.6044      21383.947      5056.2136      7111.7377     -1202.653       299.54779      282.92046      27859.128     -18022.948     -399.80091      62862.473      39.761597      39.761597      39.761597      1.0583996     -1794.4202      380.31632     -1803.8603    
   1960000   1960000        548.57311      1231.5964      32297.586      31165.257      9842.222       21323.035      4835.7781      7190.9292     -1219.273       243.03366      435.4546       27858.662     -18021.549     -398.66413      63041.724      39.799354      39.799354      39.799354      1.0553902      2772.103      -1388.8079      2311.4941    
   1961000   1961000        546.42145      1389.437       32492.106      31221.435      9803.6181      21417.817      5051.3031      7197.146      -1290.7217      243.0506       400.76126      27840.889     -18024.611     -400.79017      62707.312      39.728856      39.728856      39.728856      1.0610185      1957.1156      1572.9878      638.20759    
   1962000   1962000        551.34415     -1475.4451      29689.649      31053.678      9891.9386      21161.74       4911.3521      7141.1483     -1311.9267      265.81313      361.79254      27820.273     -18026.713     -396.47011      63390.59       39.872635      39.872635      39.872635      1.0495819     -521.48556     -1867.2011     -2037.6487    
   1963000   1963000        547.08323     -317.62158      30982.663      31275.632      9815.4914      21460.14       5009.2494      7145.7064     -1174.7874      254.60469      375.07439      27871.446     -18021.153     -397.37396      63246.404      39.842381      39.842381      39.842381      1.0519747      670.2098      -1759.7992      136.72467    
   1964000   1964000        542.26343      864.34012      31878.567      31082.686      9729.017       21353.669      4885.7305      7144.247      -1236.9813      258.52198      449.36147      27874.554     -18021.764     -398.05924      63137.523      39.819504      39.819504      39.819504      1.0537888      710.74475      1032.3462      849.92936    
   1965000   1965000        555.76506     -267.11195      31025.275      31271.842      9971.2564      21300.585      5013.0383      7150.3355     -1217.2074      236.36411      292.99868      27853.424     -18028.368     -397.07261      63294.405      39.852457      39.852457      39.852457      1.0511769      2167.5364     -2084.5198     -884.35247    
   1966000   1966000        542.51064      978.5978       31840.607      30938.919      9733.4523      21205.467      4678.2508      7213.3662     -1259.5055      261.62542      492.93808      27847.693     -18028.901     -397.79465      63179.517      39.82833       39.82833       39.82833       1.0530884      1337.1788      45.024369      1553.5903    
   1967000   1967000        554.24484      1930.1972      33103.287      31319.93       9943.9813      21375.949      4947.3081      7264.1558     -1344.0265      278.24792      389.6116       27863.846     -18023.194     -396.7113       63352.05       39.864552      39.864552      39.864552      1.0502204      2502.5438      1682.0166      1606.0311    
   1968000   1968000        553.771        1500.6632      32674.352      31282.111      9935.48        21346.631      4781.2296      7226.7397     -1223.7865      273.99778      453.03642      27858.054     -18022.64      -395.07526      63614.397      39.919504      39.919504      39.919504      1.0458893      2422.9896      3006.8183     -927.81842    
   1969000   1969000        551.08255      1137.2902      32409.832      31354.176      9887.2452      21466.931      4885.4224      7326.7004     -1253.2039      253.26128      397.78792      27879.061     -18022.098     -394.87557      63646.567      39.926232      39.926232      39.926232      1.0453606      1513.0519      1709.2307      189.58807    
   1970000   1970000        555.55899      717.19895      32027.295      31364.889      9967.5593      21397.33       4902.2717      7212.4231     -1171.5934      260.55899      332.63026      27878.556     -18017.517     -396.84995      63329.917      39.859909      39.859909      39.859909      1.0505874      2059.894       308.21377     -216.51096    
   1971000   1971000        548.60299      406.58843      31451.896      31071.77       9842.7582      21229.011      4797.7006      7223.0107     -1303.9801      296.16257      371.70535      27868.009     -18023.597     -392.04709      64105.753      40.02202       40.02202       40.02202       1.0378728     -155.0679      -22.462739      1397.2959    
   1972000   1972000        551.09334      1328.0905      32309.998      31087.853      9887.4388      21200.414      4887.0835      7136.9008     -1233.53        245.741        345.43945      27841.07      -18022.291     -398.30533      63098.514      39.811302      39.811302      39.811302      1.0544403      2976.4813      380.14309      627.64694    
   1973000   1973000        553.66543      1110.0854      32409.017      31379.693      9933.5859      21446.107      4828.9707      7390.5349     -1286.5643      265.16245      382.50112      27882.685     -18017.183     -395.28954      63579.913      39.91229       39.91229       39.91229       1.0464565      2386.0246      847.02262      97.208897    
   1974000   1974000        539.076       -527.09408      30572.115      31063.185      9671.8297      21391.355      4978.2405      7249.837      -1270.2074      271.0036       353.31834      27830.966     -18021.803     -393.42003      63882.04       39.97541       39.97541       39.97541       1.0415074     -2354.6978      577.49603      195.91951    
   1975000   1975000        552.80731     -920.32589      30393.293      31257.705      9918.19        21339.515      4903.5721      7296.0555     -1227.6281      254.03895      297.23052      27839.67      -18023.424     -390.24031      64402.559      40.083691      40.083691      40.083691      1.0330896     -2084.7957     -1407.4024      731.22039    
   1976000   1976000        551.94851     -1179.9792      30298.356      31390.715      9902.7819      21487.934      5038.9519      7247.1475     -1243.8935      264.11463      360.32804      27842.976     -18021.691     -395.93148      63476.828      39.890708      39.890708      39.890708      1.048156       1212.2061     -2832.7847     -1919.359     
   1977000   1977000        539.79131      637.79604      31662.196      31072.132      9684.6635      21387.469      4930.0573      7222.4411     -1250.7453      270.84653      382.99986      27855.934     -18024.065     -396.18091      63436.863      39.882334      39.882334      39.882334      1.0488163      486.27293      1890.4688     -463.35362    
   1978000   1978000        542.91158     -701.33345      30270.036      30912.931      9740.6458      21172.285      4894.3116      7164.2037     -1254.9014      272.85895      316.4836       27813.137     -18033.808     -399.84892      62854.926      39.760006      39.760006      39.760006      1.0585267     -439.87345      323.59539     -1987.7223    
   1979000   1979000        536.54851     -828.26933      30344.079      31120.609      9626.4828      21494.126      5045.4653      7324.3147     -1351.7872      266.13458      411.82151      27821.556     -18023.378     -390.95297      64285.16       40.05932       40.05932       40.05932       1.0349763     -2329.5147      96.932476     -252.22574    
   1980000   1980000        545.517        2325.9023      33202.683      31063.089      9787.391       21275.698      4771.0443      7232.5473     -1204.2981      249.48128      390.28839      27863.933     -18027.298     -398.44766      63075.974      39.806561      39.806561      39.806561      1.0548171      3098.4895      1723.8922      2155.3252    
   1981000   1981000        553.53368      1242.7724      32408.398      31252.726      9931.2222      21321.503      4902.1445      7143.0903     -1278.0804      247.67708      471.82306      27856.765     -18021.916     -394.15586      63762.782      39.950518      39.950518      39.950518      1.0434553      2971.8038      1797.4682     -1040.9549    
   1982000   1982000        546.55101      137.55702      31161.382      31033.427      9805.9425      21227.485      4967.3498      7130.6888     -1180.4969      257.22825      256.64259      27821.912     -18025.84      -394.03857      63781.762      39.954482      39.954482      39.954482      1.0431448     -153.95445     -120.71364      687.33915    
   1983000   1983000        552.55043     -2478.2655      29021.206      31335.499      9913.5811      21421.918      4981.285       7219.3363     -1235.9175      261.33123      360.44238      27859.69      -18024.249     -392.50096      64031.625      40.006588      40.006588      40.006588      1.0390743     -2724.4072     -2824.9305     -1885.4587    
   1984000   1984000        542.75837     -269.21466      30851.645      31104.541      9737.897       21366.644      4828.3947      7216.9164     -1317.2332      270.5903       533.06121      27856.862     -18021.947     -390.18286      64412.041      40.085658      40.085658      40.085658      1.0329375     -513.32992     -946.59461      652.28054    
   1985000   1985000        546.91288     -517.54139      30774.227      31254.884      9812.435       21442.449      5014.1555      7280.6534     -1281.2674      234.44031      371.5921       27844.686     -18021.811     -394.65792      63681.667      39.93357       39.93357       39.93357       1.0447845      696.40817     -697.42819     -1551.6041    
   1986000   1986000        560.38022      156.16677      31607.152      31461.715      10054.059      21407.656      5005.1722      7164.8964     -1241.3594      234.09983      430.40422      27839.786     -18025.344     -393.57146      63857.461      39.970282      39.970282      39.970282      1.0419083      2076.8281     -436.435       -1171.8928    
   1987000   1987000        546.58018     -399.05796      30843.716      31213.992      9806.4659      21407.526      4930.4229      7222.2661     -1238.8033      252.47807      401.8687       27859.771     -18020.477     -395.02218      63622.944      39.921292      39.921292      39.921292      1.0457488      757.56114     -2328.5668      373.83179    
   1988000   1988000        549.16641      1032.5461      32138.689      31175.571      9852.8668      21322.705      4718.844       7287.3789     -1200.0017      259.01434      460.83316      27825.549     -18028.913     -392.95357      63957.872      39.991221      39.991221      39.991221      1.0402725      26.000127     -229.85012      3301.4883    
   1989000   1989000        544.04807      1390.5991      32286.959      31015.091      9761.0361      21254.055      4685.3579      7276.7341     -1189.4226      261.69517      395.18603      27844.119     -18019.615     -400.74759      62713.974      39.730263      39.730263      39.730263      1.0609057      781.67892      3227.1432      162.97504    
   1990000   1990000        547.89516      1760.3028      32892.518      31256.157      9830.0587      21426.099      4767.7816      7276.9934     -1226.6679      273.2619       487.95243      27866.962     -18020.185     -394.29333      63740.551      39.945875      39.945875      39.945875      1.0438193      2551.8103      701.56416      2027.534     
   1991000   1991000        552.70037      1740.9708      32786.36       31188.764      9916.2714      21272.492      4824.7897      7157.2168     -1234.1193      266.30686      471.47915      27816.546     -18029.727     -399.42532      62921.585      39.774056      39.774056      39.774056      1.0574053      2461.0214      973.91209      1787.979     
   1992000   1992000        548.98179     -787.24314      30665.717      31400.974      9849.5545      21551.42       5022.1333      7221.9568     -1213.4669      265.368        395.05875      27884.147     -18023.777     -392.44682      64040.458      40.008427      40.008427      40.008427      1.038931      -350.42872     -1042.3533     -968.94735    
   1993000   1993000        556.03321      724.28926      31981.477      31313.189      9976.0675      21337.121      4852.1715      7274.6502     -1274.179       259.34216      379.28591      27867.514     -18021.664     -397.24542      63266.87       39.846678      39.846678      39.846678      1.0516344     -778.67187      2793.0908      158.44883    
   1994000   1994000        549.69614     -465.1583       30808.3        31240.286      9862.3709      21377.915      4967.3163      7254.3706     -1214.0328      253.80953      326.53268      27820.915     -18030.997     -394.67725      63678.548      39.932918      39.932918      39.932918      1.0448356      823.63836     -494.43958     -1724.6737    
   1995000   1995000        561.75518     -618.09748      30819.107      31390.689      10078.728      21311.961      4953.6467      7201.4091     -1299.2303      284.72546      352.7455       27846.241     -18027.577     -396.35924      63408.322      39.876352      39.876352      39.876352      1.0492884     -343.67427     -1300.4635     -210.15472    
   1996000   1996000        558.07564      3.7314804      31296.388      31292.948      10012.712      21280.236      4887.6932      7279.189      -1289.7744      250.86517      306.23732      27869.022     -18022.996     -397.55359      63217.828      39.836379      39.836379      39.836379      1.0524502     -552.90761     -448.75599      1012.858     
   1997000   1997000        539.00781     -720.63548      30430.992      31104.828      9670.6063      21434.221      4960.2002      7159.2156     -1175.4545      277.45934      398.57602      27841.455     -18027.23      -391.98767      64115.471      40.024042      40.024042      40.024042      1.0377155     -2048.9438      2232.9421     -2345.9047    
   1998000   1998000        547.81551      587.86245      31545.438      31009.304      9828.6295      21180.674      4843.2107      7126.0846     -1306.1888      287.98704      399.1899       27854.043     -18023.652     -401.89561      62534.832      39.692397      39.692397      39.692397      1.0639449      832.62654     -1053.3566      1984.3174    
   1999000   1999000        554.65736     -1351.033       30131.862      31393.905      9951.3826      21442.522      5062.4951      7190.4952     -1214.3068      262.61531      313.17534      27850.572     -18022.524     -392.37647      64051.941      40.010818      40.010818      40.010818      1.0387447     -776.65158      64.129578     -3340.5769    
   2000000   2000000        541.64362      528.44948      31439.331      30953.668      9717.8968      21235.771      4860.9613      7133.1317     -1221.4015      273.75998      361.06695      27855.671     -18027.419     -398.82195      63016.778      39.794104      39.794104      39.794104      1.055808      -1961.0526      2080.6         1465.801     
Loop time of 14238.1 on 8 procs for 2000000 steps with 6020 atoms

Performance: 12.136 ns/day, 1.978 hours/ns, 140.468 timesteps/s, 845.616 katom-step/s
97.6% CPU use with 8 MPI tasks x 1 OpenMP threads

MPI task timing breakdown:
Section |  min time  |  avg time  |  max time  |%varavg| %total
---------------------------------------------------------------
Pair    | 4660.9     | 4775.2     | 4919.4     | 137.5 | 33.54
Bond    | 3045.1     | 3268.6     | 3472.4     | 209.7 | 22.96
Kspace  | 1736.4     | 1941.3     | 2160.5     | 269.9 | 13.63
Neigh   | 2195.1     | 2271       | 2365.5     | 105.1 | 15.95
Comm    | 537.52     | 547.71     | 553.45     |  22.5 |  3.85
Output  | 8.6272     | 9.1192     | 9.53       |   9.8 |  0.06
Modify  | 1210       | 1325.3     | 1416.6     | 200.5 |  9.31
Other   |            | 99.96      |            |       |  0.70

Nlocal:          752.5 ave         780 max         700 min
Histogram: 1 0 0 0 0 1 2 2 1 1
Nghost:        6821.38 ave        6899 max        6781 min
Histogram: 2 1 1 2 0 0 1 0 0 1
Neighs:              0 ave           0 max           0 min
Histogram: 8 0 0 0 0 0 0 0 0 0
FullNghs:       457842 ave      476612 max      417791 min
Histogram: 1 0 0 0 0 1 2 1 1 2

Total # of neighbors = 3662734
Ave neighs/atom = 608.42757
Ave special neighs/atom = 5.717608
Neighbor list builds = 111989
Dangerous builds = 0

# --- Cleanup ---
unfix npt_fix

undump dump_npt

# --- Write Output ---
write_dump all custom npt_cool_last.dump id type mol x y z xu yu zu vx vy vz modify sort id
write_data /home/arz2/PolyJarvis/data/PMMA1/lammps/npt_cool/npt_cool_out.data
System init for write_data ...
PPPM initialization ...
  using 12-bit tables for long-range coulomb
  G vector (1/distance) = 0.2432956
  grid = 15 15 15
  stencil order = 5
  estimated absolute RMS force accuracy = 0.029808552
  estimated relative force accuracy = 8.976757e-05
  using double precision KISS FFT
  3d grid and FFT values/proc = 2197 512
Generated 15 of 15 mixed pair_coeff terms from sixthpower/sixthpower mixing rule

print "STAGE COMPLETE: NPT T=630.0->550.0K P=1.0->1.0atm steps=2000000"
STAGE COMPLETE: NPT T=630.0->550.0K P=1.0->1.0atm steps=2000000
quit
