LAMMPS data file via write_data, version 22 Jul 2025, timestep = 2000000, units = real

6420 atoms
4 atom types
6810 bonds
8 bond types
12000 angles
15 angle types
19110 dihedrals
24 dihedral types
5600 impropers
14 improper types

4.719437914371763 46.01524711561126 xlo xhi
4.719437914371763 46.01524711561126 ylo yhi
4.719437914371763 46.01524711561126 zlo zhi

Masses

1 12.01115
2 12.01115
3 12.01115
4 1.00797

Pair Coeffs # lj/class2/coul/long/gpu

1 0.054 4.01
2 0.054 4.01
3 0.064 4.01
4 0.02 2.995

Bond Coeffs # class2

1 1.53 299.67 -501.77 679.81
2 1.53 299.67 -501.77 679.81
3 1.501 321.902 -521.821 572.163
4 1.101 345 -691.89 844.6
5 1.501 321.902 -521.821 572.163
6 1.101 345 -691.89 844.6
7 1.417 470.836 -627.618 1327.63
8 1.0982 372.825 -803.453 894.317

Angle Coeffs # class2

1 112.67 39.516 -7.443 -9.5583
2 108.4 43.9594 -8.3924 -9.3379
3 110.77 41.453 -10.604 5.129
4 112.67 39.516 -7.443 -9.5583
5 108.4 43.9594 -8.3924 -9.3379
6 110.77 41.453 -10.604 5.129
7 120.05 44.7148 -22.7352 0
8 112.67 39.516 -7.443 -9.5583
9 110.77 41.453 -10.604 5.129
10 120.05 44.7148 -22.7352 0
11 111 44.3234 -9.4454 0
12 111 44.3234 -9.4454 0
13 118.9 61.0226 -34.9931 0
14 117.94 35.1558 -12.4682 0
15 107.66 39.641 -12.921 -2.4318

BondBond Coeffs

1 0 1.53 1.53
2 0 1.53 1.501
3 3.3872 1.53 1.101
4 0 1.53 1.53
5 0 1.53 1.501
6 3.3872 1.53 1.101
7 12.0676 1.501 1.417
8 0 1.53 1.53
9 3.3872 1.53 1.101
10 12.0676 1.501 1.417
11 2.9168 1.501 1.101
12 2.9168 1.501 1.101
13 68.2856 1.417 1.417
14 1.0795 1.417 1.0982
15 5.3316 1.101 1.101

BondAngle Coeffs

1 8.016 8.016 1.53 1.53
2 0 0 1.53 1.501
3 20.754 11.421 1.53 1.101
4 8.016 8.016 1.53 1.53
5 0 0 1.53 1.501
6 20.754 11.421 1.53 1.101
7 47.0579 31.0771 1.501 1.417
8 8.016 8.016 1.53 1.53
9 20.754 11.421 1.53 1.101
10 47.0579 31.0771 1.501 1.417
11 26.4608 11.7717 1.501 1.101
12 26.4608 11.7717 1.501 1.101
13 28.8708 28.8708 1.417 1.417
14 20.0033 24.2183 1.417 1.0982
15 18.103 18.103 1.101 1.101

Dihedral Coeffs # class2

1 0 0 0.0514 0 -0.143 0
2 0 0 0 0 0.158 180
3 0 0 0.0316 0 -0.1681 0
4 -0.2802 0 -0.0678 0 -0.0122 0
5 0 0 0.0514 0 -0.143 0
6 0 0 0.0316 0 -0.1681 0
7 -0.2802 0 -0.0678 0 -0.0122 0
8 0 0 4.4072 0 0 0
9 0 0 1.559 0 0 0
10 0 0 0 0 0.158 180
11 0 0 0.0316 0 -0.1681 0
12 0 0 0 0 0.158 180
13 0 0 0.0316 0 -0.1681 0
14 0 0 4.4072 0 0 0
15 0 0 1.559 0 0 0
16 -0.0228 0 0.028 0 -0.1863 0
17 -0.0228 0 0.028 0 -0.1863 0
18 -0.2801 0 -0.0678 0 -0.0122 0
19 -0.2801 0 -0.0678 0 -0.0122 0
20 8.3667 0 1.1932 0 0 0
21 0 0 3.9661 0 0 0
22 -0.1432 0 0.0617 0 -0.1083 0
23 -0.1432 0 0.0617 0 -0.1083 0
24 0 0 1.8769 0 0 0

AngleAngleTorsion Coeffs

1 -22.045 112.67 112.67
2 0 112.67 108.4
3 -16.164 112.67 110.77
4 0 108.4 120.05
5 -22.045 112.67 112.67
6 -16.164 112.67 110.77
7 0 108.4 120.05
8 -14.4097 120.05 118.9
9 4.4444 120.05 117.94
10 0 112.67 108.4
11 -16.164 112.67 110.77
12 0 112.67 108.4
13 -16.164 112.67 110.77
14 -14.4097 120.05 118.9
15 4.4444 120.05 117.94
16 0 108.4 110.77
17 0 108.4 110.77
18 -5.8888 120.05 111
19 -5.8888 120.05 111
20 0 118.9 118.9
21 -4.8141 118.9 117.94
22 -12.564 110.77 110.77
23 -12.564 110.77 110.77
24 0.3598 117.94 117.94

EndBondTorsion Coeffs

1 -0.0732 0 0 -0.0732 0 0 1.53 1.53
2 0 0 0 0 0 0 1.53 1.501
3 0.2486 0.2422 -0.0925 0.0814 0.0591 0.2219 1.53 1.101
4 0 0 0 0 0 0 1.53 1.417
5 -0.0732 0 0 -0.0732 0 0 1.53 1.53
6 0.2486 0.2422 -0.0925 0.0814 0.0591 0.2219 1.53 1.101
7 0 0 0 0 0 0 1.53 1.417
8 0 0.2421 0 0 -0.6918 0 1.501 1.417
9 0 -1.797 0 0 -0.4879 0 1.501 1.0982
10 0 0 0 0 0 0 1.53 1.501
11 0.2486 0.2422 -0.0925 0.0814 0.0591 0.2219 1.53 1.101
12 0 0 0 0 0 0 1.53 1.501
13 0.2486 0.2422 -0.0925 0.0814 0.0591 0.2219 1.53 1.101
14 0 0.2421 0 0 -0.6918 0 1.501 1.417
15 0 -1.797 0 0 -0.4879 0 1.501 1.0982
16 0 0 0 0 0 0 1.501 1.101
17 0 0 0 0 0 0 1.501 1.101
18 -0.5835 1.122 0.3978 1.3997 0.7756 0 1.417 1.101
19 -0.5835 1.122 0.3978 1.3997 0.7756 0 1.417 1.101
20 -0.1185 6.3204 0 -0.1185 6.3204 0 1.417 1.417
21 0 -6.8958 0 0 -0.4669 0 1.417 1.0982
22 0.213 0.312 0.0777 0.213 0.312 0.0777 1.101 1.101
23 0.213 0.312 0.0777 0.213 0.312 0.0777 1.101 1.101
24 0 -0.689 0 0 -0.689 0 1.0982 1.0982

MiddleBondTorsion Coeffs

1 -17.787 -7.1877 0 1.53
2 0 0 0 1.53
3 -14.879 -3.6581 -0.3138 1.53
4 0 0 0 1.501
5 -17.787 -7.1877 0 1.53
6 -14.879 -3.6581 -0.3138 1.53
7 0 0 0 1.501
8 0 9.1792 0 1.417
9 0 3.9421 0 1.417
10 0 0 0 1.53
11 -14.879 -3.6581 -0.3138 1.53
12 0 0 0 1.53
13 -14.879 -3.6581 -0.3138 1.53
14 0 9.1792 0 1.417
15 0 3.9421 0 1.417
16 0 0 0 1.53
17 0 0 0 1.53
18 -5.5679 1.4083 0.301 1.501
19 -5.5679 1.4083 0.301 1.501
20 27.5989 -2.312 0 1.417
21 0 -1.1521 0 1.417
22 -14.261 -0.5322 -0.4864 1.53
23 -14.261 -0.5322 -0.4864 1.53
24 0 4.8228 0 1.417

BondBond13 Coeffs

1 0 1.53 1.53
2 0 1.53 1.501
3 0 1.53 1.101
4 0 1.53 1.417
5 0 1.53 1.53
6 0 1.53 1.101
7 0 1.53 1.417
8 2.5085 1.501 1.417
9 0.8743 1.501 1.0982
10 0 1.53 1.501
11 0 1.53 1.101
12 0 1.53 1.501
13 0 1.53 1.101
14 2.5085 1.501 1.417
15 0.8743 1.501 1.0982
16 0 1.501 1.101
17 0 1.501 1.101
18 -3.4826 1.417 1.101
19 -3.4826 1.417 1.101
20 53 1.417 1.417
21 -6.2741 1.417 1.0982
22 0 1.101 1.101
23 0 1.101 1.101
24 -1.7077 1.0982 1.0982

AngleTorsion Coeffs

1 0.3886 -0.3139 0.1389 0.3886 -0.3139 0.1389 112.67 112.67
2 0 0 0 0 0 0 112.67 108.4
3 -0.2454 0 -0.1136 0.3113 0.4516 -0.1988 112.67 110.77
4 0 0 0 0 0 0 108.4 120.05
5 0.3886 -0.3139 0.1389 0.3886 -0.3139 0.1389 112.67 112.67
6 -0.2454 0 -0.1136 0.3113 0.4516 -0.1988 112.67 110.77
7 0 0 0 0 0 0 108.4 120.05
8 0 -4.4683 0 0 3.8987 0 120.05 118.9
9 0 -0.1242 0 0 3.4601 0 120.05 117.94
10 0 0 0 0 0 0 112.67 108.4
11 -0.2454 0 -0.1136 0.3113 0.4516 -0.1988 112.67 110.77
12 0 0 0 0 0 0 112.67 108.4
13 -0.2454 0 -0.1136 0.3113 0.4516 -0.1988 112.67 110.77
14 0 -4.4683 0 0 3.8987 0 120.05 118.9
15 0 -0.1242 0 0 3.4601 0 120.05 117.94
16 0 0 0 0 0 0 108.4 110.77
17 0 0 0 0 0 0 108.4 110.77
18 0.2251 0.6548 0.1237 4.6266 0.1632 0.0461 120.05 111
19 0.2251 0.6548 0.1237 4.6266 0.1632 0.0461 120.05 111
20 1.9767 1.0239 0 1.9767 1.0239 0 118.9 118.9
21 0 2.5014 0 0 2.7147 0 118.9 117.94
22 -0.8085 0.5569 -0.2466 -0.8085 0.5569 -0.2466 110.77 110.77
23 -0.8085 0.5569 -0.2466 -0.8085 0.5569 -0.2466 110.77 110.77
24 0 2.4501 0 0 2.4501 0 117.94 117.94

Improper Coeffs # class2

1 0 0
2 0 0
3 0 0
4 0 0
5 0 0
6 0 0
7 0 0
8 0 0
9 0 0
10 0 0
11 0 0
12 7.8153 0
13 7.8153 0
14 4.8912 0

AngleAngle Coeffs

1 2.0403 -1.8202 1.0827 108.4 110.77 111
2 0.1184 -1.3199 -1.3199 110.77 112.67 110.77
3 1.0827 -1.8202 2.0403 110.77 108.4 111
4 0.2738 -0.4825 0.2738 110.77 110.77 107.66
5 -1.3199 -1.3199 0.1184 112.67 110.77 110.77
6 0.2738 -0.4825 0.2738 110.77 110.77 107.66
7 2.3794 3.0118 2.3794 111 111 107.66
8 -0.3157 -0.3157 -0.3157 107.66 107.66 107.66
9 0 0 0 112.67 108.4 108.4
10 -1.3199 -1.3199 0.1184 112.67 110.77 110.77
11 2.0403 -1.8202 1.0827 108.4 110.77 111
12 0 0 0 120.05 120.05 118.9
13 0 0 0 120.05 120.05 118.9
14 0 0 0 118.9 117.94 117.94

Atoms # full

5053 8 3 -0.1268 9.566331751860439 7.549958904617929 9.778794747556372 0 1 0
5049 8 3 -0.1268 8.467633176154436 5.489320811755049 9.10892223356004 0 1 0
5530 9 4 0.1268 5.667460211113058 5.65893377142102 6.014778428216453 0 1 0
5051 8 3 -0.1268 8.459302140566837 6.688784412320124 9.888804333624307 0 1 0
5047 8 3 -0.1268 9.528732252182667 5.315281530982208 8.161687395128673 0 1 0
39 1 3 -0.1268 4.834529525117034 8.786533847937703 5.697423438123916 1 0 0
40 1 4 0.1268 45.669879269173066 7.708959814910775 5.34271217721877 0 0 0
42 1 4 0.1268 5.940641148141734 7.7742763584246255 7.23924440206507 1 0 0
41 1 3 -0.1268 5.741537418916853 8.796165169315746 6.73214988611954 1 0 0
74 1 4 0.1268 8.83317964990022 9.637446700020838 6.024219418744906 1 0 0
800 2 4 0.1268 42.26576289731135 25.23971380805927 10.681371926715904 0 0 0
3362 6 4 0.1268 30.660958595233964 20.222842236207576 5.127106088034917 0 1 1
3360 6 3 0 32.58096576134862 19.3541860795964 5.1562994424811075 0 1 1
5054 8 4 0.1268 9.558633281095588 8.446003313654453 10.473711501878576 0 1 0
5052 8 4 0.1268 7.790477299360048 6.70761095875079 10.766036299990521 0 1 0
4409 7 3 -0.1268 20.27503391504723 24.972899680794583 9.581625412510668 0 0 1
6009 10 3 -0.1268 21.674868759578068 5.7245593745309264 4.754328211687423 0 1 0
5044 8 3 0 10.726958868140837 7.287744958388906 8.994289021702254 0 1 0
5045 8 3 -0.1268 10.629501415073278 6.158603946261526 8.176951520867911 0 1 0
5056 8 4 0.053 11.130829556597998 9.212777962445987 7.239344865178058 0 1 0
5057 8 4 0.053 12.52904100707809 8.069224972586564 6.927374110278765 0 1 0
5042 8 2 -0.053 11.95993268983283 8.199229855336077 9.028650352255529 0 1 0
5055 8 1 -0.106 12.12904183442669 8.862642314919478 7.62963144089314 0 1 0
5040 8 4 0.053 13.301869353467332 6.426262023223882 8.693208196500198 0 1 0
5039 8 1 -0.106 13.124347528857175 7.268930873009252 9.428581228635466 0 1 0
5041 8 4 0.053 14.124882655651698 7.807637801392867 9.384086872421992 0 1 0
5043 8 4 0.053 11.749683336372758 8.966708931090679 9.767275650985692 0 1 0
5996 10 4 0.1268 14.91003930949301 7.406194190162913 7.079961520022967 0 1 0
5059 8 4 0.053 14.18902123044696 9.586074514841878 7.837102486484476 0 1 0
5046 8 4 0.1268 11.396312613827051 6.003526123859344 7.465246642722358 0 1 0
5995 10 3 -0.1268 15.730900682385347 6.788759559870041 7.303667813913563 0 1 0
5997 10 3 -0.1268 15.672891567014833 5.4277797352855455 6.995654810556315 0 1 0
5058 8 2 -0.053 13.198634965370381 9.98996588563644 7.5528695506014145 0 1 0
5998 10 4 0.1268 14.792127106452092 5.006134368175515 6.5182514160402425 0 1 0
76 1 4 0.1268 10.244717266335481 7.734826208449782 5.574114152789595 1 0 0
5876 10 4 0.053 22.005083696956653 4.860992021360559 23.14684658555491 0 1 0
5993 10 3 -0.1268 16.922274868422534 7.312082373681163 7.851733595949685 0 1 0
5994 10 4 0.1268 16.978313469015745 8.423255694204396 7.885978595757521 0 1 0
5992 10 3 0 18.04766524973109 6.440094781700369 8.158337871860336 0 1 0
5990 10 2 -0.053 19.24865595651971 7.089336861695056 8.835668693434494 0 1 0
5991 10 4 0.053 19.196871880195253 8.157599029931081 8.714062087175533 0 1 0
6021 10 4 0.053 20.42384117888706 9.169226765629702 7.036173316789248 0 1 0
6003 10 1 -0.106 20.53763471013696 6.729511770519885 8.129238314344011 0 1 0
6006 10 2 -0.053 20.772449103764526 7.129173093745882 6.648801104406193 0 1 0
6019 10 1 -0.106 21.195402117242317 8.642536236604906 6.39188652731637 0 1 0
6007 10 4 0.053 19.871930723896824 6.926887836465708 6.1129895061106225 0 1 0
5987 10 1 -0.106 19.124829259002983 6.828754778773263 10.317163981588667 0 1 0
6005 10 4 0.053 21.450412692688328 7.110952533665074 8.601571682289968 0 1 0
5988 10 4 0.053 19.12604185092269 5.700706031596775 10.479937135543924 0 1 0
6022 10 2 -0.053 21.194149342359342 9.242637174997153 4.9284917614970505 0 1 0
5079 8 3 -0.1268 17.027900526718433 10.575590014359936 9.919270435600723 0 1 0
6026 10 4 0.1268 18.588509631765234 9.440218091724734 5.856158921269328 0 1 0
5082 8 4 0.1268 19.047821683119395 10.979016678559802 9.305898774776491 0 1 0
6008 10 3 0 21.891270535237677 6.244031805169989 6.002054357635926 0 1 0
6035 10 1 -0.106 21.531835386328353 10.763601381076619 4.88891456775389 0 1 0
6001 10 3 -0.1268 17.77406374657977 5.036663621404123 8.08805098920331 0 1 0
960 2 4 0.1268 24.90208200670766 12.589534791325764 24.872338617560487 0 0 0
1928 4 4 0.053 5.6939351052370375 4.797547833453066 14.442755190244725 1 0 0
6020 10 4 0.053 22.127312656435684 8.98181435020219 6.887577078891254 0 1 0
6018 10 4 0.1268 23.359515759985467 6.384886671424602 7.696572747672237 0 1 0
6017 10 3 -0.1268 23.110896053945723 5.994559757659784 6.672691500008715 0 1 0
3254 6 4 0.1268 21.897308748239436 10.723732292920928 8.427732444582418 0 1 1
332 1 4 0.1268 26.282925065276217 10.243845108483093 7.9911968039683305 0 0 0
6037 10 4 0.053 22.18022401895662 11.001287696714733 5.765779852970828 0 1 0
331 1 3 -0.1268 27.02150241332309 10.817961243289126 8.54289773812565 0 0 0
295 1 3 -0.1268 32.30824647727931 13.262142581977773 4.992966890908457 0 0 0
5659 9 3 -0.1268 31.21474946531372 6.301974601356179 7.733577957981838 -1 1 0
5661 9 3 -0.1268 30.949686885268143 7.209638943810255 6.700885287877931 -1 1 0
5662 9 4 0.1268 30.08606649916475 7.944471245756344 6.614759729515296 -1 1 0
5660 9 4 0.1268 30.428972070491294 6.3019312357430834 8.546158152462867 -1 1 0
5654 9 3 0 32.71424662051986 6.221017360037129 5.364074502745212 -1 1 0
5663 9 3 -0.1268 31.6899360434773 7.10219042832623 5.567715750958172 -1 1 0
318 1 4 0.1268 32.83243656250633 8.728299769625876 10.391705592052626 0 0 0
317 1 3 -0.1268 32.97692260921859 9.803930306372365 10.480828405972037 0 0 0
333 1 3 -0.1268 27.89390680196412 10.18133222705081 9.40188594532999 0 0 0
5655 9 3 -0.1268 32.99315165573073 5.3364727117226405 6.401314373939177 -1 1 0
5657 9 3 -0.1268 32.30262397608721 5.434935734843381 7.58909041455672 -1 1 0
320 1 4 0.1268 31.70616642402332 10.28449080548367 8.724159755289396 0 0 0
319 1 3 -0.1268 32.325209304888446 10.661152820494122 9.599023932625986 0 0 0
335 1 3 -0.1268 28.722128633171454 10.961839519157547 10.206753321651274 0 0 0
334 1 4 0.1268 27.841536361122618 9.178118109159925 9.73839154776563 0 0 0
3371 6 1 -0.106 33.624340702287576 21.581114098066585 5.013957928847888 0 1 1
636 1 4 0.1268 35.41963843692142 6.865422339350346 7.261917064126324 0 0 0
635 1 3 -0.1268 35.83252102559617 6.366030814323297 8.16913846992967 0 0 0
5641 9 3 -0.1268 37.757654884609025 9.27047070102228 5.25620420555515 -1 1 0
5650 9 4 0.053 35.29950737055978 6.327742173997495 5.13496529999595 -1 1 0
633 1 3 -0.1268 35.938787003398055 7.082264890847899 9.359654792858052 0 0 0
5642 9 4 0.1268 38.39672870856754 9.308828946246226 6.208116155577864 -1 1 0
304 1 4 0.1268 33.92464930118196 10.48026746719797 6.2046453762738505 0 0 0
270 1 4 0.1268 38.52499853966148 9.146558854897387 9.86793410989394 0 0 0
6061 10 3 -0.1268 18.07272015997438 14.41169879246229 5.252547761796454 0 1 0
5640 9 4 0.1268 37.681263941941864 7.095839009751915 5.2857400519539794 -1 1 0
4410 7 4 0.1268 21.36310664697516 24.689927447975975 9.62614992759193 0 0 1
316 1 4 0.1268 34.26194745124035 9.5336230192772 12.214569012070822 0 0 0
315 1 3 -0.1268 33.82101996787825 10.25124215925856 11.525620883875513 0 0 0
637 1 3 -0.1268 36.20917308400709 5.047247453934795 8.154280092821717 0 0 0
184 1 4 0.1268 43.98044595631785 18.244206575640806 4.8775856142556595 0 0 0
3394 6 4 0.1268 38.62391397563516 23.554142447925745 5.156828473028302 0 1 1
792 2 3 0 42.14148094708807 25.256533666328597 14.150120579649908 0 0 0
29 1 3 -0.1268 41.7441516471808 6.743918452902582 5.272471428657324 0 0 0
30 1 4 0.1268 41.75002862703745 6.3848632651863815 6.309893170157765 0 0 0
32 1 4 0.1268 42.39634609808803 8.567031497879055 5.894083906247339 0 0 0
31 1 3 -0.1268 42.090264903597514 8.057515388740258 5.042417788231627 0 0 0
1974 4 4 0.1268 39.869109985275216 6.885480058837333 10.287846306002479 0 0 0
1942 4 4 0.1268 4.9412864906376655 5.433696273789069 10.729817464213873 1 0 0
1957 4 3 -0.1268 43.73719461443693 7.997893964804412 9.814274692028558 0 0 0
5189 9 4 0.053 5.950445145297626 25.343432182004754 8.465138913605072 0 0 0
268 1 4 0.1268 40.83397429805731 8.791793061855822 8.627741774469005 0 0 0
1953 4 3 -0.1268 43.198497572484285 10.27135893525245 9.414549584873967 0 0 0
3374 6 2 -0.053 35.0805797514383 22.084117026189297 4.8833086709935944 0 1 1
1973 4 3 -0.1268 40.189373624948345 5.868095784822871 10.222376845771226 0 0 0
1955 4 3 -0.1268 43.689732627847704 9.071154575563504 8.961668210167883 0 0 0
1958 4 4 0.1268 44.11874950663342 7.039015625469481 9.413857754730994 0 0 0
1956 4 4 0.1268 44.33856236058021 9.090664727305537 7.992226557707346 0 0 0
6004 10 4 0.053 20.605909577435735 5.604742257691425 8.304588116853177 0 1 0
2635 5 4 0.053 29.68407003609722 24.721800473945127 11.813005756201921 0 0 1
4334 7 4 0.053 23.591217423001844 24.83158264958793 18.35827513170226 0 0 1
38 1 3 0 45.892254283470166 9.950279413534904 4.940210046106647 0 0 0
43 1 3 -0.1268 6.272444673183081 10.029234498643225 7.169779138261442 1 0 0
44 1 4 0.1268 6.898342388770034 9.911597485514594 8.0459812097673 1 0 0
45 1 3 -0.1268 5.928860484875075 11.201968796501308 6.533271855563645 1 0 0
5094 8 4 0.1268 9.644059497850211 13.35931309559367 8.52184312951044 0 1 0
205 1 3 -0.1268 5.717115145854435 13.158996066801397 10.343756558835214 1 0 0
47 1 3 -0.1268 5.097749047834617 11.144263203747785 5.4270790357956 1 0 0
46 1 4 0.1268 6.245263450393535 12.148878783135515 6.882409160111838 1 0 0
199 1 3 -0.1268 6.145597270828975 15.614823607444176 9.05610748820327 1 0 0
195 1 4 0.053 5.438540547493366 14.843237604681118 6.415334712300591 1 0 0
5096 8 4 0.1268 7.886286866819837 11.989783621750771 9.193582118059357 0 1 0
5093 8 3 -0.1268 9.71795591749612 12.823075902956647 9.458560583042715 0 1 0
5062 8 4 0.1268 15.300746495154884 10.48476561024798 6.086067776749292 0 1 0
5073 8 4 0.053 12.715302501314095 10.656980335883997 9.476740403724797 0 1 0
5070 8 4 0.1268 11.014577527330385 10.657113085585681 5.846907064713667 0 1 0
5060 8 3 0 13.15511320168022 10.50329401143804 6.060871237481395 0 1 0
5061 8 3 -0.1268 14.399332541130407 10.792576520451306 5.5002499458423175 0 1 0
5071 8 1 -0.106 12.85286016173645 11.072654529417566 8.5043288833384 0 1 0
5091 8 4 0.053 11.627678505228037 14.099785070259571 8.532465424730473 0 1 0
5072 8 4 0.053 11.918588735063846 11.453036910870422 8.126761483335006 0 1 0
5075 8 4 0.053 13.767718137779235 12.862157090043322 7.440859147398923 0 1 0
5074 8 2 -0.053 13.817654003064268 12.304000374912013 8.468603057443882 0 1 0
5076 8 3 0 15.270877809805109 11.813777777193687 8.698838927652325 0 1 0
5069 8 3 -0.1268 11.998109715142814 10.946035983573147 5.439299511337042 0 1 0
5090 8 2 -0.053 11.971590432028325 13.858808174145247 9.575979359246672 0 1 0
5087 8 1 -0.106 13.46700880844209 13.362287215324379 9.579142441234897 0 1 0
5077 8 3 -0.1268 15.68950995951464 10.929719657529187 9.6882992059617 0 1 0
5110 8 4 0.1268 13.109762481351003 15.94982400555597 7.301114186433585 0 1 0
5107 8 4 0.053 13.5078635077895 15.916910412715081 9.408293367231105 0 1 0
303 1 3 -0.1268 33.295807783407874 11.190911540875272 5.580897794839587 0 0 0
4320 7 2 -0.053 23.828393551408624 25.049222724501618 20.49088720436734 0 0 1
1931 4 4 0.053 44.60195894362015 5.365839152479303 14.072092723084047 0 0 0
5086 8 4 0.1268 15.952624462232636 12.970081566447627 6.980965338602193 0 1 0
5085 8 3 -0.1268 16.279908600672062 12.311254977877836 7.868798111379365 0 1 0
3252 6 4 0.1268 20.75054631695581 12.419916984602423 7.186695884751503 0 1 1
5081 8 3 -0.1268 18.02196729398169 11.103059815913834 9.07081912341439 0 1 0
5083 8 3 -0.1268 17.656430058791763 11.981966854361946 8.070726821159553 0 1 0
5084 8 4 0.1268 18.441470924763436 12.496395754717533 7.469011401180232 0 1 0
3250 6 4 0.1268 21.444682042823814 14.728836107332578 7.142457401445425 0 1 1
6036 10 4 0.053 20.635541776038686 11.369153796562731 4.962955322071493 0 1 0
5130 8 4 0.1268 18.11554248612294 15.240887985272831 8.876034659549846 0 1 0
5129 8 3 -0.1268 17.410240261186097 15.580136994866132 9.608001045325452 0 1 0
6062 10 4 0.1268 17.136230850630348 14.638331176828947 5.790165301215752 0 1 0
3251 6 3 -0.1268 21.54797854834647 12.728879565459799 7.86528315219897 0 1 1
3245 6 4 0.053 21.503006998963286 16.8080336606873 8.809429767426506 0 1 1
6063 10 3 -0.1268 19.16233051191041 15.270869945765934 5.312741571375329 0 1 0
6015 10 3 -0.1268 24.065048687554732 5.12094452922095 6.174919004558601 0 1 0
6016 10 4 0.1268 24.924116043093136 4.75290617940985 6.778835086996353 0 1 0
3249 6 3 -0.1268 22.004886414308967 14.070218127319768 7.836800408558097 0 1 1
3256 6 4 0.1268 23.956486564960173 11.395161512753223 9.848329727412072 0 1 1
3253 6 3 -0.1268 22.283239319761464 11.77963481413735 8.542854606365466 0 1 1
3248 6 3 0 23.09887924669687 14.482563131530465 8.529966775056074 0 1 1
3263 6 4 0.053 25.255741285553277 15.167924813138288 6.733180981585654 0 1 1
3257 6 3 -0.1268 23.765196138016623 13.54062596458457 9.306907653607496 0 1 1
3246 6 2 -0.053 23.406755773817576 15.941404876722746 8.65504522635934 0 1 1
3260 6 4 0.053 22.855510531450015 16.304084670783347 6.549014010544424 0 1 1
3247 6 4 0.053 24.449855200546555 15.981642328866076 9.064864183435905 0 1 1
3255 6 3 -0.1268 23.40308641375705 12.171292883810308 9.27541598205782 0 1 1
3262 6 2 -0.053 25.023955544203577 16.233685797717662 6.608002977437363 0 1 1
3258 6 4 0.1268 24.738473909338044 13.85170173038754 9.762256739820735 0 1 1
3259 6 1 -0.106 23.6265525654225 16.56517023797351 7.2649678974224745 0 1 1
3266 6 4 0.1268 26.992201194717005 15.61205460058742 8.389835907999775 0 1 1
330 1 4 0.1268 26.538846318279855 12.609708388258209 7.567502892494489 0 0 0
3243 6 1 -0.106 22.290817096433543 16.606118944092273 9.533033632083988 0 1 1
329 1 3 -0.1268 27.14922217385862 12.151338270856455 8.36614471252489 0 0 0
3286 6 4 0.1268 29.528779216738737 12.133113273475605 5.627585289495434 0 1 1
3281 6 3 -0.1268 28.397136131774452 15.412676741472298 5.6096693136061955 0 1 1
328 1 4 0.1268 28.201809547964 13.927756128550572 8.671526761598768 0 0 0
327 1 3 -0.1268 28.107362503285547 12.894953974077293 9.009214096330673 0 0 0
309 1 4 0.053 31.383893902834522 12.573868021671434 8.097425770194679 0 0 0
323 1 4 0.053 30.443367996391103 14.587274341866584 9.175308782299993 0 0 0
308 1 2 -0.053 31.918840540448087 13.059180491695846 8.896932924937639 0 0 0
307 1 4 0.053 32.24994000211923 14.691485429996435 7.337435374231857 0 0 0
321 1 1 -0.106 30.980692239440053 13.919603410239919 9.782516811534352 0 0 0
326 1 3 0 28.913474333240746 12.34096014165552 9.93661581966391 0 0 0
322 1 4 0.053 31.686885710579833 14.56753509358224 10.333868542792224 0 0 0
3284 6 4 0.1268 30.15399883143135 14.465464105172005 6.476180520586478 0 1 1
3283 6 3 -0.1268 29.158155235457304 14.281060142406652 5.992919487557041 0 1 1
310 1 3 0 32.563986740151165 12.039159324584439 9.742464184862342 0 0 0
324 1 2 -0.053 29.919891463566763 13.157694914802319 10.763523965605717 0 0 0
338 1 4 0.053 28.707302252034573 15.052075402499522 10.810161792706992 0 0 0
3282 6 4 0.1268 28.722609456039013 16.448899737039348 5.903225195973116 0 1 1
305 1 1 -0.106 32.791013597588446 13.989266537872789 7.997036050988763 0 0 0
294 1 3 0 33.134887154982835 12.571593728766864 5.897300427167924 0 0 0
306 1 4 0.053 33.30672693414898 14.663739879876887 8.72692826254199 0 0 0
3285 6 3 -0.1268 28.87049625557981 13.041725219857836 5.412116538290969 0 1 1
183 1 3 -0.1268 45.08799930859122 18.27080244421318 4.79288191957626 0 0 0
290 1 4 0.053 35.18638873739541 13.691836215857643 5.637474111049141 0 0 0
292 1 2 -0.053 33.79434203191785 13.220679601957864 7.069269387553488 0 0 0
293 1 4 0.053 34.22164603112411 12.328995165775439 7.620751960481371 0 0 0
274 1 4 0.053 36.2368191297241 12.50142265133691 8.423308199053869 0 0 0
273 1 1 -0.106 36.83777457694762 13.285732514096914 7.8627269302996154 0 0 0
275 1 4 0.053 37.241118552519296 12.766675873300098 6.882985992426338 0 0 0
276 1 2 -0.053 35.93171477600085 14.454285874063686 7.53189994256865 0 0 0
289 1 1 -0.106 34.812697376186705 14.174170677810022 6.497051415570823 0 0 0
277 1 4 0.053 35.39964527903658 14.756994457931128 8.459189973993329 0 0 0
260 1 2 -0.053 38.134949282642694 13.568886109438978 8.682154588100751 0 0 0
259 1 4 0.053 37.04416089643516 14.692321386221945 10.2061932538282 0 0 0
261 1 4 0.053 38.757699496767614 14.339075165648548 8.219737067897167 0 0 0
291 1 4 0.053 34.46113759274881 15.10728267432744 6.106317079991858 0 0 0
272 1 4 0.1268 37.43230489471132 11.216548349835326 9.769528508471126 0 0 0
271 1 3 -0.1268 38.441466648985966 11.18496675259232 9.320691142069673 0 0 0
262 1 3 0 38.99506784615616 12.308031125005385 8.75550591307088 0 0 0
278 1 3 0 36.71188198394915 15.684817817110908 7.001823890339693 0 0 0
311 1 3 -0.1268 33.417140877483305 12.441762473283127 10.76421961243759 0 0 0
312 1 4 0.1268 33.61112127158311 13.518136986165272 10.744951792183418 0 0 0
287 1 3 -0.1268 37.27483232609602 15.668604064649422 5.723398062939709 0 0 0
257 1 1 -0.106 37.839821738442 13.943677862048688 10.137571055889843 0 0 0
258 1 4 0.053 37.30391765272911 13.143380703235486 10.686947828595498 0 0 0
244 1 2 -0.053 39.03981022684957 14.657300948235841 10.822604094945735 0 0 0
313 1 3 -0.1268 34.09521182099995 11.612974640825769 11.638812975341276 0 0 0
267 1 3 -0.1268 40.21535661331386 9.751553788736716 8.5475945591827 0 0 0
269 1 3 -0.1268 39.04663368147027 9.932385963922803 9.30146463096057 0 0 0
35 1 4 0.053 43.47849256369484 10.712063664456762 5.060301891528129 0 0 0
266 1 4 0.1268 41.62225709668688 10.697676929688868 7.166135407542148 0 0 0
263 1 3 -0.1268 40.108606781687186 12.091022709014212 7.9443805525812055 0 0 0
265 1 3 -0.1268 40.698587978639054 10.835424577677983 7.8049204579428455 0 0 0
210 1 4 0.053 43.60421007537987 14.268512320654299 8.170775290362965 0 0 0
264 1 4 0.1268 40.40265911232005 12.968348122486466 7.388097937481001 0 0 0
227 1 4 0.053 41.30348307688209 14.75557385078711 9.463044514692193 0 0 0
1954 4 4 0.1268 43.375268460257644 11.153872204985525 8.801393571614316 0 0 0
209 1 1 -0.106 43.76603686508477 15.337177242470323 8.106570441232678 0 0 0
208 1 4 0.1268 45.33196363127426 12.933513347811155 8.972006539343987 0 0 0
211 1 4 0.053 43.2329187389885 15.65822716264622 7.220308001148266 0 0 0
225 1 1 -0.106 41.574388472044845 15.872826731728697 9.216421871685142 0 0 0
245 1 4 0.053 39.881155166265316 14.01764355632883 10.559719403926056 0 0 0
214 1 3 0 43.65447212178276 15.626616156416427 10.645862391110434 0 0 0
2646 5 4 0.1268 25.209762655004003 24.74798559648839 16.2556168134792 0 0 1
1217 2 3 -0.1268 11.21692554406776 23.14990166353535 22.991794570793836 0 0 0
193 1 1 -0.106 45.631936011803504 15.056156964774038 6.4156037250926214 0 0 0
194 1 4 0.053 45.223013996446 14.028061941800578 6.275255952360787 0 0 0
196 1 2 -0.053 45.30244353770199 15.57807935765878 7.851310904912235 0 0 0
198 1 3 0 4.970183618985002 14.921247853396512 8.835106128215156 1 0 0
207 1 3 -0.1268 4.775648405209108 13.645150955310086 9.384474931347786 1 0 0
5113 8 3 -0.1268 10.229291634734402 17.157601496364492 6.344044962879982 0 1 0
5115 8 3 -0.1268 9.776695880681883 17.587759173245974 7.617875881144214 0 1 0
5116 8 4 0.1268 8.763722612827802 17.92865380033087 7.66994003331342 0 1 0
200 1 4 0.1268 6.294694470832461 16.643146699539756 8.596019926392486 1 0 0
5232 9 4 0.1268 7.387586116672469 20.348336376870133 8.013838972185418 0 0 0
5231 9 3 -0.1268 7.614601099902249 20.10021782254539 9.093608887834897 0 0 0
5114 8 4 0.1268 9.538014263347527 17.233157290330098 5.414867143292701 0 1 0
5221 9 4 0.053 9.131804947599633 21.816270543780774 7.9358299272779735 0 0 0
5220 9 2 -0.053 9.543964540233464 21.702072885222098 8.919123059513478 0 0 0
5192 9 4 0.1268 5.503670792610276 21.942673088892796 6.833372096813719 0 0 0
5222 9 3 0 8.720036108755934 20.659282157379295 9.682074698203555 0 0 0
5230 9 4 0.1268 6.042279648597797 18.633539868118607 9.21312189144253 0 0 0
5229 9 3 -0.1268 6.845839027573657 19.112976638147092 9.732143927425206 0 0 0
5213 9 3 -0.1268 6.8640041907575675 24.81153617801938 13.000630048236955 0 0 0
5919 10 3 -0.1268 17.543454831576977 4.801194221547803 19.32711314197825 0 1 0
48 1 4 0.1268 4.91350698531018 12.092377492337551 4.867355817891685 1 0 0
182 1 3 0 45.85910298483191 17.096933935458324 4.983994295737043 0 0 0
5239 9 3 -0.1268 10.455382758266074 21.336733478452338 5.756891622435109 0 0 0
6050 10 4 0.1268 24.402582562917296 11.571819268760958 5.635968475656775 0 1 0
3319 6 3 -0.1268 25.91430786416984 20.79868949965773 4.746808354953328 0 1 1
5235 9 4 0.053 10.976783477366169 20.284692230901562 8.396953871684566 0 0 0
5240 9 4 0.1268 10.697464735763688 20.311417074138976 5.957890687011038 0 0 0
5112 8 4 0.1268 11.934850426463893 16.171700720540024 5.280037250986725 0 1 0
5109 8 3 -0.1268 12.190804230327458 16.469825480567067 7.407159687895151 0 1 0
5111 8 3 -0.1268 11.493046778760295 16.595306449501038 6.237265154113757 0 1 0
5117 8 3 -0.1268 10.509139902323103 17.40380860600947 8.797936106024217 0 1 0
5108 8 3 0 11.739772395926298 16.787693252644463 8.651703672262407 0 1 0
5251 9 4 0.053 12.927165333079946 20.333452384512654 7.133887879781379 0 0 0
5256 9 4 0.1268 14.946352772494425 19.335327285415705 6.211951941499999 0 0 0
5255 9 3 -0.1268 15.882112895701841 19.823323919754223 6.564021973890039 0 0 0
5249 9 1 -0.106 13.209300730990433 21.291426410331482 7.606830672187048 0 0 0
5233 9 1 -0.106 10.993424509311316 21.298407478255115 8.829610565932182 0 0 0
5250 9 4 0.053 13.658778226696183 20.944547538924905 8.555726368677764 0 0 0
5254 9 3 0 15.653878223033828 21.204751600787713 6.952720437254694 0 0 0
5234 9 4 0.053 11.460056249507417 21.32211222974896 9.850576032045677 0 0 0
4394 7 4 0.1268 15.471022976242224 21.31722514754696 9.850229921636714 0 0 1
5252 9 2 -0.053 14.271811057737983 21.887334406335956 6.72596481070808 0 0 0
5236 9 2 -0.053 11.935956142638704 22.09572904716537 7.860674105838636 0 0 0
5306 9 4 0.1268 14.667476901432385 16.071198353825935 5.1347501208445285 0 0 0
5106 8 2 -0.053 12.511774895564717 16.246372366816423 9.8588073343876 0 1 0
5120 8 4 0.053 13.1023592094492 18.217088162127947 10.06419367551397 0 1 0
5118 8 4 0.1268 10.258520195370018 17.64330485042121 9.833574505485313 0 1 0
6064 10 4 0.1268 19.119567553036603 16.16626776714085 5.9876546514978015 0 1 0
5126 8 4 0.1268 15.580764011198863 18.515146800146383 10.030509610523051 0 1 0
5128 8 4 0.1268 17.34888801762498 17.427622183863917 8.615542554602108 0 1 0
5257 9 3 -0.1268 17.15639468424846 19.257372565002584 6.599706883519588 0 0 0
5258 9 4 0.1268 17.314866555396126 18.161169576190435 6.293240465118773 0 0 0
5260 9 4 0.1268 19.223220136860924 19.67112464473903 7.265689757775918 0 0 0
5259 9 3 -0.1268 18.18788349183718 20.018379604174562 7.203275816502572 0 0 0
5127 8 3 -0.1268 16.866462446504535 16.869448279977853 9.370786443509854 0 1 0