units real
atom_style full
boundary p p p

# --- Force Field Styles ---
pair_style lj/class2/coul/long 9.5 9.5
kspace_style pppm 1e-6
dielectric 1.000000
bond_style class2
angle_style class2
dihedral_style class2
improper_style class2
special_bonds lj/coul 0 0 1
pair_modify mix sixthpower tail yes
neighbor 2.0 bin
neigh_modify delay 0 every 1 check yes
neigh_modify one 4000
package gpu 1 neigh no

read_data /home/alexzhao/PolyJarvis/data/PS1/lammps/equil/npt_cool300/npt_cool300_out.data
Reading data file ...
  orthogonal box = (4.6993525 4.6993525 4.6993525) to (46.035333 46.035333 46.035333)
  1 by 2 by 2 MPI processor grid
  reading atoms ...
  6420 atoms
  reading velocities ...
  6420 velocities
  scanning bonds ...
  4 = max bonds/atom
  scanning angles ...
  6 = max angles/atom
  scanning dihedrals ...
  15 = max dihedrals/atom
  scanning impropers ...
  4 = max impropers/atom
  orthogonal box = (4.6993525 4.6993525 4.6993525) to (46.035333 46.035333 46.035333)
  1 by 2 by 2 MPI processor grid
  reading bonds ...
  6810 bonds
  reading angles ...
  12000 angles
  reading dihedrals ...
  19110 dihedrals
  reading impropers ...
  5600 impropers
Finding 1-2 1-3 1-4 neighbors ...
  special bond factors lj:    0        0        1       
  special bond factors coul:  0        0        1       
     4 = max # of 1-2 neighbors
     8 = max # of 1-3 neighbors
    12 = max # of special neighbors
  special bonds CPU = 0.001 seconds
  read_data CPU = 0.165 seconds
include /home/alexzhao/PolyJarvis/data/PS1/lammps/equil/emc_build.params
# LAMMPS parameters created by EMC v9.4.4, build Jul 31 2025 20:33:44

# Variables

variable	seed		index	-1
variable	ntotal		index	6420
variable	fshape		index	1
variable	output		index	emc_build
variable	field		index	pcff/pcff
variable	location1	index	~/emc/field/
variable	nav		index	0.6022141179
variable	temperature	index	300
variable	radius		index	5
variable	nrelax		index	100
variable	weight_nonbond	index	0.0001
variable	weight_bond	index	0.0001
variable	weight_focus	index	1
variable	cutoff		index	9.5
variable	charge_cutoff	index	9.5
variable	kappa		index	4
variable	density1	index	0.53
variable	lprevious	index	0
variable	lphase		index	50.7346850343
variable	f_poly		index	10
variable	chem_repeat	index	*CC(c1ccccc1)*
variable	chem_cap	index	*[H]
variable	lg_repeat	index	16
variable	lg_cap		index	1
variable	norm_poly	index	100
variable	l_poly		index	642
variable	mg_repeat	index	92.14181
variable	mg_cap		index	1.00797
variable	m_poly		index	3687.68834
variable	n_poly		index	10
variable	mtotal		index	41681.3434
variable	nphase1		index	6420
variable	mphase1		index	41681.3434
variable	vphase1		index	130591.498627
variable	lbox		index	50.7346850343
variable	lphase1		index	50.7346850343
variable	lxx		index	50.7346850343
variable	lyy		index	50.7346850343
variable	lzz		index	50.7346850343
variable	lzy		index	0
variable	lzx		index	0
variable	lyx		index	0
variable	vtotal		index	130591.498627
variable	nl_poly		index	10

# Types

variable	type_c		index	1
variable	type_c1		index	2
variable	type_cp		index	3
variable	type_hc		index	4

variable	type_bond_c_c	index	1
variable	type_bond_c_c1	index	2
variable	type_bond_c_cp	index	3
variable	type_bond_c_hc	index	4
variable	type_bond_c1_cp	index	5
variable	type_bond_c1_hc	index	6
variable	type_bond_cp_cp	index	7
variable	type_bond_cp_hc	index	8

variable	type_angle_c_c_c1 index	1
variable	type_angle_c_c_cp index	2
variable	type_angle_c_c_hc index	3
variable	type_angle_c_c1_c index	4
variable	type_angle_c_c1_cp index	5
variable	type_angle_c_c1_hc index	6
variable	type_angle_c_cp_cp index	7
variable	type_angle_c1_c_c1 index	8
variable	type_angle_c1_c_hc index	9
variable	type_angle_c1_cp_cp index	10
variable	type_angle_cp_c_hc index	11
variable	type_angle_cp_c1_hc index	12
variable	type_angle_cp_cp_cp index	13
variable	type_angle_cp_cp_hc index	14
variable	type_angle_hc_c_hc index	15

# Clusters

variable	n0_poly		index	1
variable	n1_poly		index	10
variable	nl_poly		index	10

# Flags

variable	flag_charged	index	1

# Masses

mass		1    12.01115  # c
mass		2    12.01115  # c1
mass		3    12.01115  # cp
mass		4     1.00797  # hc

# Potentials

pair_modify	mix sixthpower tail yes
special_bonds	lj/coul 0 0 1

# Pair Coeffs

pair_coeff	 1  1    0.05400    4.01000  # c,c
pair_coeff	 2  2    0.05400    4.01000  # c1,c1
pair_coeff	 3  3    0.06400    4.01000  # cp,cp
pair_coeff	 4  4    0.02000    2.99500  # hc,hc

# Bond Coeffs

bond_coeff	1    1.53000  299.67000 -501.77000  679.81000  # c,c
bond_coeff	2    1.53000  299.67000 -501.77000  679.81000  # c,c1
bond_coeff	3    1.50100  321.90210 -521.82080  572.16280  # c,cp
bond_coeff	4    1.10100  345.00000 -691.89000  844.60000  # c,hc
bond_coeff	5    1.50100  321.90210 -521.82080  572.16280  # c1,cp
bond_coeff	6    1.10100  345.00000 -691.89000  844.60000  # c1,hc
bond_coeff	7    1.41700  470.83610 -627.61790 1327.63450  # cp,cp
bond_coeff	8    1.09820  372.82510 -803.45260  894.31730  # cp,hc

# Angle Coeffs

angle_coeff	 1  112.67000   39.51600   -7.44300   -9.55830  # c,c,c1
angle_coeff	 2  108.40000   43.95940   -8.39240   -9.33790  # c,c,cp
angle_coeff	 3  110.77000   41.45300  -10.60400    5.12900  # c,c,hc
angle_coeff	 4  112.67000   39.51600   -7.44300   -9.55830  # c,c1,c
angle_coeff	 5  108.40000   43.95940   -8.39240   -9.33790  # c,c1,cp
angle_coeff	 6  110.77000   41.45300  -10.60400    5.12900  # c,c1,hc
angle_coeff	 7  120.05000   44.71480  -22.73520    0.00000  # c,cp,cp
angle_coeff	 8  112.67000   39.51600   -7.44300   -9.55830  # c1,c,c1
angle_coeff	 9  110.77000   41.45300  -10.60400    5.12900  # c1,c,hc
angle_coeff	10  120.05000   44.71480  -22.73520    0.00000  # c1,cp,cp
angle_coeff	11  111.00000   44.32340   -9.44540    0.00000  # cp,c,hc
angle_coeff	12  111.00000   44.32340   -9.44540    0.00000  # cp,c1,hc
angle_coeff	13  118.90000   61.02260  -34.99310    0.00000  # cp,cp,cp
angle_coeff	14  117.94000   35.15580  -12.46820    0.00000  # cp,cp,hc
angle_coeff	15  107.66000   39.64100  -12.92100   -2.43180  # hc,c,hc

# BondBond Coeffs

angle_coeff	 1 bb    0.00000    1.53000    1.53000  # c,c,c1
angle_coeff	 2 bb    0.00000    1.53000    1.50100  # c,c,cp
angle_coeff	 3 bb    3.38720    1.53000    1.10100  # c,c,hc
angle_coeff	 4 bb    0.00000    1.53000    1.53000  # c,c1,c
angle_coeff	 5 bb    0.00000    1.53000    1.50100  # c,c1,cp
angle_coeff	 6 bb    3.38720    1.53000    1.10100  # c,c1,hc
angle_coeff	 7 bb   12.06760    1.50100    1.41700  # c,cp,cp
angle_coeff	 8 bb    0.00000    1.53000    1.53000  # c1,c,c1
angle_coeff	 9 bb    3.38720    1.53000    1.10100  # c1,c,hc
angle_coeff	10 bb   12.06760    1.50100    1.41700  # c1,cp,cp
angle_coeff	11 bb    2.91680    1.50100    1.10100  # cp,c,hc
angle_coeff	12 bb    2.91680    1.50100    1.10100  # cp,c1,hc
angle_coeff	13 bb   68.28560    1.41700    1.41700  # cp,cp,cp
angle_coeff	14 bb    1.07950    1.41700    1.09820  # cp,cp,hc
angle_coeff	15 bb    5.33160    1.10100    1.10100  # hc,c,hc

# BondAngle Coeffs

angle_coeff	 1 ba    8.01600    8.01600    1.53000    1.53000  # c,c,c1
angle_coeff	 2 ba    0.00000    0.00000    1.53000    1.50100  # c,c,cp
angle_coeff	 3 ba   20.75400   11.42100    1.53000    1.10100  # c,c,hc
angle_coeff	 4 ba    8.01600    8.01600    1.53000    1.53000  # c,c1,c
angle_coeff	 5 ba    0.00000    0.00000    1.53000    1.50100  # c,c1,cp
angle_coeff	 6 ba   20.75400   11.42100    1.53000    1.10100  # c,c1,hc
angle_coeff	 7 ba   47.05790   31.07710    1.50100    1.41700  # c,cp,cp
angle_coeff	 8 ba    8.01600    8.01600    1.53000    1.53000  # c1,c,c1
angle_coeff	 9 ba   20.75400   11.42100    1.53000    1.10100  # c1,c,hc
angle_coeff	10 ba   47.05790   31.07710    1.50100    1.41700  # c1,cp,cp
angle_coeff	11 ba   26.46080   11.77170    1.50100    1.10100  # cp,c,hc
angle_coeff	12 ba   26.46080   11.77170    1.50100    1.10100  # cp,c1,hc
angle_coeff	13 ba   28.87080   28.87080    1.41700    1.41700  # cp,cp,cp
angle_coeff	14 ba   20.00330   24.21830    1.41700    1.09820  # cp,cp,hc
angle_coeff	15 ba   18.10300   18.10300    1.10100    1.10100  # hc,c,hc

# Dihedral Coeffs

dihedral_coeff	 1    0.00000    0.00000    0.05140    0.00000   -0.14300    0.00000  # c,c,c1,c
dihedral_coeff	 2    0.00000    0.00000    0.00000    0.00000    0.15800  180.00000  # c,c,c1,cp
dihedral_coeff	 3    0.00000    0.00000    0.03160    0.00000   -0.16810    0.00000  # c,c,c1,hc
dihedral_coeff	 4   -0.28020    0.00000   -0.06780    0.00000   -0.01220    0.00000  # c,c,cp,cp
dihedral_coeff	 5    0.00000    0.00000    0.05140    0.00000   -0.14300    0.00000  # c,c1,c,c1
dihedral_coeff	 6    0.00000    0.00000    0.03160    0.00000   -0.16810    0.00000  # c,c1,c,hc
dihedral_coeff	 7   -0.28020    0.00000   -0.06780    0.00000   -0.01220    0.00000  # c,c1,cp,cp
dihedral_coeff	 8    0.00000    0.00000    4.40720    0.00000    0.00000    0.00000  # c,cp,cp,cp
dihedral_coeff	 9    0.00000    0.00000    1.55900    0.00000    0.00000    0.00000  # c,cp,cp,hc
dihedral_coeff	10    0.00000    0.00000    0.00000    0.00000    0.15800  180.00000  # c1,c,c,cp
dihedral_coeff	11    0.00000    0.00000    0.03160    0.00000   -0.16810    0.00000  # c1,c,c,hc
dihedral_coeff	12    0.00000    0.00000    0.00000    0.00000    0.15800  180.00000  # c1,c,c1,cp
dihedral_coeff	13    0.00000    0.00000    0.03160    0.00000   -0.16810    0.00000  # c1,c,c1,hc
dihedral_coeff	14    0.00000    0.00000    4.40720    0.00000    0.00000    0.00000  # c1,cp,cp,cp
dihedral_coeff	15    0.00000    0.00000    1.55900    0.00000    0.00000    0.00000  # c1,cp,cp,hc
dihedral_coeff	16   -0.02280    0.00000    0.02800    0.00000   -0.18630    0.00000  # cp,c,c,hc
dihedral_coeff	17   -0.02280    0.00000    0.02800    0.00000   -0.18630    0.00000  # cp,c1,c,hc
dihedral_coeff	18   -0.28010    0.00000   -0.06780    0.00000   -0.01220    0.00000  # cp,cp,c,hc
dihedral_coeff	19   -0.28010    0.00000   -0.06780    0.00000   -0.01220    0.00000  # cp,cp,c1,hc
dihedral_coeff	20    8.36670    0.00000    1.19320    0.00000    0.00000    0.00000  # cp,cp,cp,cp
dihedral_coeff	21    0.00000    0.00000    3.96610    0.00000    0.00000    0.00000  # cp,cp,cp,hc
dihedral_coeff	22   -0.14320    0.00000    0.06170    0.00000   -0.10830    0.00000  # hc,c,c,hc
dihedral_coeff	23   -0.14320    0.00000    0.06170    0.00000   -0.10830    0.00000  # hc,c,c1,hc
dihedral_coeff	24    0.00000    0.00000    1.87690    0.00000    0.00000    0.00000  # hc,cp,cp,hc

# MiddleBondTorsion Coeffs

dihedral_coeff	 1 mbt  -17.78700   -7.18770    0.00000    1.53000  # c,c,c1,c
dihedral_coeff	 2 mbt    0.00000    0.00000    0.00000    1.53000  # c,c,c1,cp
dihedral_coeff	 3 mbt  -14.87900   -3.65810   -0.31380    1.53000  # c,c,c1,hc
dihedral_coeff	 4 mbt    0.00000    0.00000    0.00000    1.50100  # c,c,cp,cp
dihedral_coeff	 5 mbt  -17.78700   -7.18770    0.00000    1.53000  # c,c1,c,c1
dihedral_coeff	 6 mbt  -14.87900   -3.65810   -0.31380    1.53000  # c,c1,c,hc
dihedral_coeff	 7 mbt    0.00000    0.00000    0.00000    1.50100  # c,c1,cp,cp
dihedral_coeff	 8 mbt    0.00000    9.17920    0.00000    1.41700  # c,cp,cp,cp
dihedral_coeff	 9 mbt    0.00000    3.94210    0.00000    1.41700  # c,cp,cp,hc
dihedral_coeff	10 mbt    0.00000    0.00000    0.00000    1.53000  # c1,c,c,cp
dihedral_coeff	11 mbt  -14.87900   -3.65810   -0.31380    1.53000  # c1,c,c,hc
dihedral_coeff	12 mbt    0.00000    0.00000    0.00000    1.53000  # c1,c,c1,cp
dihedral_coeff	13 mbt  -14.87900   -3.65810   -0.31380    1.53000  # c1,c,c1,hc
dihedral_coeff	14 mbt    0.00000    9.17920    0.00000    1.41700  # c1,cp,cp,cp
dihedral_coeff	15 mbt    0.00000    3.94210    0.00000    1.41700  # c1,cp,cp,hc
dihedral_coeff	16 mbt    0.00000    0.00000    0.00000    1.53000  # cp,c,c,hc
dihedral_coeff	17 mbt    0.00000    0.00000    0.00000    1.53000  # cp,c1,c,hc
dihedral_coeff	18 mbt   -5.56790    1.40830    0.30100    1.50100  # cp,cp,c,hc
dihedral_coeff	19 mbt   -5.56790    1.40830    0.30100    1.50100  # cp,cp,c1,hc
dihedral_coeff	20 mbt   27.59890   -2.31200    0.00000    1.41700  # cp,cp,cp,cp
dihedral_coeff	21 mbt    0.00000   -1.15210    0.00000    1.41700  # cp,cp,cp,hc
dihedral_coeff	22 mbt  -14.26100   -0.53220   -0.48640    1.53000  # hc,c,c,hc
dihedral_coeff	23 mbt  -14.26100   -0.53220   -0.48640    1.53000  # hc,c,c1,hc
dihedral_coeff	24 mbt    0.00000    4.82280    0.00000    1.41700  # hc,cp,cp,hc

# EndBondTorsion Coeffs

dihedral_coeff	 1 ebt   -0.07320    0.00000    0.00000   -0.07320    0.00000    0.00000    1.53000    1.53000  # c,c,c1,c
dihedral_coeff	 2 ebt    0.00000    0.00000    0.00000    0.00000    0.00000    0.00000    1.53000    1.50100  # c,c,c1,cp
dihedral_coeff	 3 ebt    0.24860    0.24220   -0.09250    0.08140    0.05910    0.22190    1.53000    1.10100  # c,c,c1,hc
dihedral_coeff	 4 ebt    0.00000    0.00000    0.00000    0.00000    0.00000    0.00000    1.53000    1.41700  # c,c,cp,cp
dihedral_coeff	 5 ebt   -0.07320    0.00000    0.00000   -0.07320    0.00000    0.00000    1.53000    1.53000  # c,c1,c,c1
dihedral_coeff	 6 ebt    0.24860    0.24220   -0.09250    0.08140    0.05910    0.22190    1.53000    1.10100  # c,c1,c,hc
dihedral_coeff	 7 ebt    0.00000    0.00000    0.00000    0.00000    0.00000    0.00000    1.53000    1.41700  # c,c1,cp,cp
dihedral_coeff	 8 ebt    0.00000    0.24210    0.00000    0.00000   -0.69180    0.00000    1.50100    1.41700  # c,cp,cp,cp
dihedral_coeff	 9 ebt    0.00000   -1.79700    0.00000    0.00000   -0.48790    0.00000    1.50100    1.09820  # c,cp,cp,hc
dihedral_coeff	10 ebt    0.00000    0.00000    0.00000    0.00000    0.00000    0.00000    1.53000    1.50100  # c1,c,c,cp
dihedral_coeff	11 ebt    0.24860    0.24220   -0.09250    0.08140    0.05910    0.22190    1.53000    1.10100  # c1,c,c,hc
dihedral_coeff	12 ebt    0.00000    0.00000    0.00000    0.00000    0.00000    0.00000    1.53000    1.50100  # c1,c,c1,cp
dihedral_coeff	13 ebt    0.24860    0.24220   -0.09250    0.08140    0.05910    0.22190    1.53000    1.10100  # c1,c,c1,hc
dihedral_coeff	14 ebt    0.00000    0.24210    0.00000    0.00000   -0.69180    0.00000    1.50100    1.41700  # c1,cp,cp,cp
dihedral_coeff	15 ebt    0.00000   -1.79700    0.00000    0.00000   -0.48790    0.00000    1.50100    1.09820  # c1,cp,cp,hc
dihedral_coeff	16 ebt    0.00000    0.00000    0.00000    0.00000    0.00000    0.00000    1.50100    1.10100  # cp,c,c,hc
dihedral_coeff	17 ebt    0.00000    0.00000    0.00000    0.00000    0.00000    0.00000    1.50100    1.10100  # cp,c1,c,hc
dihedral_coeff	18 ebt   -0.58350    1.12200    0.39780    1.39970    0.77560    0.00000    1.41700    1.10100  # cp,cp,c,hc
dihedral_coeff	19 ebt   -0.58350    1.12200    0.39780    1.39970    0.77560    0.00000    1.41700    1.10100  # cp,cp,c1,hc
dihedral_coeff	20 ebt   -0.11850    6.32040    0.00000   -0.11850    6.32040    0.00000    1.41700    1.41700  # cp,cp,cp,cp
dihedral_coeff	21 ebt    0.00000   -6.89580    0.00000    0.00000   -0.46690    0.00000    1.41700    1.09820  # cp,cp,cp,hc
dihedral_coeff	22 ebt    0.21300    0.31200    0.07770    0.21300    0.31200    0.07770    1.10100    1.10100  # hc,c,c,hc
dihedral_coeff	23 ebt    0.21300    0.31200    0.07770    0.21300    0.31200    0.07770    1.10100    1.10100  # hc,c,c1,hc
dihedral_coeff	24 ebt    0.00000   -0.68900    0.00000    0.00000   -0.68900    0.00000    1.09820    1.09820  # hc,cp,cp,hc

# AngleTorsion Coeffs

dihedral_coeff	 1 at    0.38860   -0.31390    0.13890    0.38860   -0.31390    0.13890  112.67000  112.67000  # c,c,c1,c
dihedral_coeff	 2 at    0.00000    0.00000    0.00000    0.00000    0.00000    0.00000  112.67000  108.40000  # c,c,c1,cp
dihedral_coeff	 3 at   -0.24540    0.00000   -0.11360    0.31130    0.45160   -0.19880  112.67000  110.77000  # c,c,c1,hc
dihedral_coeff	 4 at    0.00000    0.00000    0.00000    0.00000    0.00000    0.00000  108.40000  120.05000  # c,c,cp,cp
dihedral_coeff	 5 at    0.38860   -0.31390    0.13890    0.38860   -0.31390    0.13890  112.67000  112.67000  # c,c1,c,c1
dihedral_coeff	 6 at   -0.24540    0.00000   -0.11360    0.31130    0.45160   -0.19880  112.67000  110.77000  # c,c1,c,hc
dihedral_coeff	 7 at    0.00000    0.00000    0.00000    0.00000    0.00000    0.00000  108.40000  120.05000  # c,c1,cp,cp
dihedral_coeff	 8 at    0.00000   -4.46830    0.00000    0.00000    3.89870    0.00000  120.05000  118.90000  # c,cp,cp,cp
dihedral_coeff	 9 at    0.00000   -0.12420    0.00000    0.00000    3.46010    0.00000  120.05000  117.94000  # c,cp,cp,hc
dihedral_coeff	10 at    0.00000    0.00000    0.00000    0.00000    0.00000    0.00000  112.67000  108.40000  # c1,c,c,cp
dihedral_coeff	11 at   -0.24540    0.00000   -0.11360    0.31130    0.45160   -0.19880  112.67000  110.77000  # c1,c,c,hc
dihedral_coeff	12 at    0.00000    0.00000    0.00000    0.00000    0.00000    0.00000  112.67000  108.40000  # c1,c,c1,cp
dihedral_coeff	13 at   -0.24540    0.00000   -0.11360    0.31130    0.45160   -0.19880  112.67000  110.77000  # c1,c,c1,hc
dihedral_coeff	14 at    0.00000   -4.46830    0.00000    0.00000    3.89870    0.00000  120.05000  118.90000  # c1,cp,cp,cp
dihedral_coeff	15 at    0.00000   -0.12420    0.00000    0.00000    3.46010    0.00000  120.05000  117.94000  # c1,cp,cp,hc
dihedral_coeff	16 at    0.00000    0.00000    0.00000    0.00000    0.00000    0.00000  108.40000  110.77000  # cp,c,c,hc
dihedral_coeff	17 at    0.00000    0.00000    0.00000    0.00000    0.00000    0.00000  108.40000  110.77000  # cp,c1,c,hc
dihedral_coeff	18 at    0.22510    0.65480    0.12370    4.62660    0.16320    0.04610  120.05000  111.00000  # cp,cp,c,hc
dihedral_coeff	19 at    0.22510    0.65480    0.12370    4.62660    0.16320    0.04610  120.05000  111.00000  # cp,cp,c1,hc
dihedral_coeff	20 at    1.97670    1.02390    0.00000    1.97670    1.02390    0.00000  118.90000  118.90000  # cp,cp,cp,cp
dihedral_coeff	21 at    0.00000    2.50140    0.00000    0.00000    2.71470    0.00000  118.90000  117.94000  # cp,cp,cp,hc
dihedral_coeff	22 at   -0.80850    0.55690   -0.24660   -0.80850    0.55690   -0.24660  110.77000  110.77000  # hc,c,c,hc
dihedral_coeff	23 at   -0.80850    0.55690   -0.24660   -0.80850    0.55690   -0.24660  110.77000  110.77000  # hc,c,c1,hc
dihedral_coeff	24 at    0.00000    2.45010    0.00000    0.00000    2.45010    0.00000  117.94000  117.94000  # hc,cp,cp,hc

# AngleAngleTorsion Coeffs

dihedral_coeff	 1 aat  -22.04500  112.67000  112.67000  # c,c,c1,c
dihedral_coeff	 2 aat    0.00000  112.67000  108.40000  # c,c,c1,cp
dihedral_coeff	 3 aat  -16.16400  112.67000  110.77000  # c,c,c1,hc
dihedral_coeff	 4 aat    0.00000  108.40000  120.05000  # c,c,cp,cp
dihedral_coeff	 5 aat  -22.04500  112.67000  112.67000  # c,c1,c,c1
dihedral_coeff	 6 aat  -16.16400  112.67000  110.77000  # c,c1,c,hc
dihedral_coeff	 7 aat    0.00000  108.40000  120.05000  # c,c1,cp,cp
dihedral_coeff	 8 aat  -14.40970  120.05000  118.90000  # c,cp,cp,cp
dihedral_coeff	 9 aat    4.44440  120.05000  117.94000  # c,cp,cp,hc
dihedral_coeff	10 aat    0.00000  112.67000  108.40000  # c1,c,c,cp
dihedral_coeff	11 aat  -16.16400  112.67000  110.77000  # c1,c,c,hc
dihedral_coeff	12 aat    0.00000  112.67000  108.40000  # c1,c,c1,cp
dihedral_coeff	13 aat  -16.16400  112.67000  110.77000  # c1,c,c1,hc
dihedral_coeff	14 aat  -14.40970  120.05000  118.90000  # c1,cp,cp,cp
dihedral_coeff	15 aat    4.44440  120.05000  117.94000  # c1,cp,cp,hc
dihedral_coeff	16 aat    0.00000  108.40000  110.77000  # cp,c,c,hc
dihedral_coeff	17 aat    0.00000  108.40000  110.77000  # cp,c1,c,hc
dihedral_coeff	18 aat   -5.88880  120.05000  111.00000  # cp,cp,c,hc
dihedral_coeff	19 aat   -5.88880  120.05000  111.00000  # cp,cp,c1,hc
dihedral_coeff	20 aat    0.00000  118.90000  118.90000  # cp,cp,cp,cp
dihedral_coeff	21 aat   -4.81410  118.90000  117.94000  # cp,cp,cp,hc
dihedral_coeff	22 aat  -12.56400  110.77000  110.77000  # hc,c,c,hc
dihedral_coeff	23 aat  -12.56400  110.77000  110.77000  # hc,c,c1,hc
dihedral_coeff	24 aat    0.35980  117.94000  117.94000  # hc,cp,cp,hc

# BondBond13 Coeffs

dihedral_coeff	 1 bb13    0.00000    1.53000    1.53000  # c,c,c1,c
dihedral_coeff	 2 bb13    0.00000    1.53000    1.50100  # c,c,c1,cp
dihedral_coeff	 3 bb13    0.00000    1.53000    1.10100  # c,c,c1,hc
dihedral_coeff	 4 bb13    0.00000    1.53000    1.41700  # c,c,cp,cp
dihedral_coeff	 5 bb13    0.00000    1.53000    1.53000  # c,c1,c,c1
dihedral_coeff	 6 bb13    0.00000    1.53000    1.10100  # c,c1,c,hc
dihedral_coeff	 7 bb13    0.00000    1.53000    1.41700  # c,c1,cp,cp
dihedral_coeff	 8 bb13    2.50850    1.50100    1.41700  # c,cp,cp,cp
dihedral_coeff	 9 bb13    0.87430    1.50100    1.09820  # c,cp,cp,hc
dihedral_coeff	10 bb13    0.00000    1.53000    1.50100  # c1,c,c,cp
dihedral_coeff	11 bb13    0.00000    1.53000    1.10100  # c1,c,c,hc
dihedral_coeff	12 bb13    0.00000    1.53000    1.50100  # c1,c,c1,cp
dihedral_coeff	13 bb13    0.00000    1.53000    1.10100  # c1,c,c1,hc
dihedral_coeff	14 bb13    2.50850    1.50100    1.41700  # c1,cp,cp,cp
dihedral_coeff	15 bb13    0.87430    1.50100    1.09820  # c1,cp,cp,hc
dihedral_coeff	16 bb13    0.00000    1.50100    1.10100  # cp,c,c,hc
dihedral_coeff	17 bb13    0.00000    1.50100    1.10100  # cp,c1,c,hc
dihedral_coeff	18 bb13   -3.48260    1.41700    1.10100  # cp,cp,c,hc
dihedral_coeff	19 bb13   -3.48260    1.41700    1.10100  # cp,cp,c1,hc
dihedral_coeff	20 bb13   53.00000    1.41700    1.41700  # cp,cp,cp,cp
dihedral_coeff	21 bb13   -6.27410    1.41700    1.09820  # cp,cp,cp,hc
dihedral_coeff	22 bb13    0.00000    1.10100    1.10100  # hc,c,c,hc
dihedral_coeff	23 bb13    0.00000    1.10100    1.10100  # hc,c,c1,hc
dihedral_coeff	24 bb13   -1.70770    1.09820    1.09820  # hc,cp,cp,hc

# Improper Coeffs

improper_coeff	 1    0.00000    0.00000  # c,c,cp,hc
improper_coeff	 2    0.00000    0.00000  # c,c,hc,c1
improper_coeff	 3    0.00000    0.00000  # c,c,hc,cp
improper_coeff	 4    0.00000    0.00000  # c,c,hc,hc
improper_coeff	 5    0.00000    0.00000  # c,c1,c1,hc
improper_coeff	 6    0.00000    0.00000  # c,c1,hc,hc
improper_coeff	 7    0.00000    0.00000  # c,cp,hc,hc
improper_coeff	 8    0.00000    0.00000  # c,hc,hc,hc
improper_coeff	 9    0.00000    0.00000  # c1,c,c,cp
improper_coeff	10    0.00000    0.00000  # c1,c,c,hc
improper_coeff	11    0.00000    0.00000  # c1,c,cp,hc
improper_coeff	12    7.81530    0.00000  # cp,c,cp,cp
improper_coeff	13    7.81530    0.00000  # cp,c1,cp,cp
improper_coeff	14    4.89120    0.00000  # cp,cp,cp,hc

# AngleAngle Coeffs

improper_coeff	 1 aa    2.04030   -1.82020    1.08270  108.40000  110.77000  111.00000  # c,c,cp,hc
improper_coeff	 2 aa    0.11840   -1.31990   -1.31990  110.77000  112.67000  110.77000  # c,c,hc,c1
improper_coeff	 3 aa    1.08270   -1.82020    2.04030  110.77000  108.40000  111.00000  # c,c,hc,cp
improper_coeff	 4 aa    0.27380   -0.48250    0.27380  110.77000  110.77000  107.66000  # c,c,hc,hc
improper_coeff	 5 aa   -1.31990   -1.31990    0.11840  112.67000  110.77000  110.77000  # c,c1,c1,hc
improper_coeff	 6 aa    0.27380   -0.48250    0.27380  110.77000  110.77000  107.66000  # c,c1,hc,hc
improper_coeff	 7 aa    2.37940    3.01180    2.37940  111.00000  111.00000  107.66000  # c,cp,hc,hc
improper_coeff	 8 aa   -0.31570   -0.31570   -0.31570  107.66000  107.66000  107.66000  # c,hc,hc,hc
improper_coeff	 9 aa    0.00000    0.00000    0.00000  112.67000  108.40000  108.40000  # c1,c,c,cp
improper_coeff	10 aa   -1.31990   -1.31990    0.11840  112.67000  110.77000  110.77000  # c1,c,c,hc
improper_coeff	11 aa    2.04030   -1.82020    1.08270  108.40000  110.77000  111.00000  # c1,c,cp,hc
improper_coeff	12 aa    0.00000    0.00000    0.00000  120.05000  120.05000  118.90000  # cp,c,cp,cp
improper_coeff	13 aa    0.00000    0.00000    0.00000  120.05000  120.05000  118.90000  # cp,c1,cp,cp
improper_coeff	14 aa    0.00000    0.00000    0.00000  118.90000  117.94000  117.94000  # cp,cp,cp,hc


# --- Thermo Output ---
thermo_style custom step time temp press enthalpy etotal ke pe ebond eangle edihed eimp evdwl ecoul elong etail vol lx ly lz density pxx pyy pzz
thermo_modify flush yes
thermo 1000

# --- Trajectory ---
dump dump_npt all custom 1000 npt_prod300.dump id type mol x y z ix iy iz vx vy vz

# --- Restart Checkpointing ---
# No restart checkpointing

# --- Initial Velocities (optional) ---
# Velocities read from data file

# --- SHAKE Constraints ---
# SHAKE disabled

# --- NPT Thermostat + Barostat (Nose-Hoover) ---
# T_damp = 100.0 fs  (heat bath coupling)
# P_damp = 1000.0 fs  (pressure bath coupling, ~10x T_damp typical)
# Ramp: T=300.0->300.0K  P=1.0->1.0atm
timestep 1.0
fix npt_fix all npt temp 300.0 300.0 100.0 iso 1.0 1.0 1000.0

run 2000000

CITE-CITE-CITE-CITE-CITE-CITE-CITE-CITE-CITE-CITE-CITE-CITE-CITE

Your simulation uses code contributions which should be cited:

- GPU package (short-range, long-range and three-body potentials): doi:10.1016/j.cpc.2010.12.021, doi:10.1016/j.cpc.2011.10.012, doi:10.1016/j.cpc.2013.08.002, doi:10.1016/j.commatsci.2014.10.068, doi:10.1016/j.cpc.2016.10.020, doi:10.3233/APC200086

@Article{Brown11,
 author = {W. M. Brown and P. Wang and S. J. Plimpton and A. N. Tharrington},
 title = {Implementing Molecular Dynamics on Hybrid High Performance Computers---Short Range Forces},
 journal = {Comput.\ Phys.\ Commun.},
 year =    2011,
 volume =  182,
 pages =   {898--911},
 doi =     {10.1016/j.cpc.2010.12.021}
}

@Article{Brown12,
 author = {W. M. Brown and A. Kohlmeyer and S. J. Plimpton and A. N. Tharrington},
 title = {Implementing Molecular Dynamics on Hybrid High Performance Computers - Particle-Particle Particle-Mesh},
 journal = {Comput.\ Phys.\ Commun.},
 year =    2012,
 volume =  183,
 doi =     {10.1016/j.cpc.2011.10.012},
 pages =   {449--459}
}

@Article{Brown13,
 author = {W. M. Brown and Y. Masako},
 title = {Implementing Molecular Dynamics on Hybrid High Performance Computers---Three-Body Potentials},
 journal = {Comput.\ Phys.\ Commun.},
 year =    2013,
 volume =  184,
 pages =   {2785--2793},
 doi =     {10.1016/j.cpc.2013.08.002},
}

@Article{Trung15,
 author = {T. D. Nguyen and S. J. Plimpton},
 title = {Accelerating Dissipative Particle Dynamics Simulations for Soft Matter Systems},
 journal = {Comput.\ Mater.\ Sci.},
 year =    2015,
 doi =     {10.1016/j.commatsci.2014.10.068},
 volume =  100,
 pages =   {173--180}
}

@Article{Trung17,
 author = {T. D. Nguyen},
 title = {{GPU}-Accelerated {T}ersoff Potentials for Massively Parallel
    Molecular Dynamics Simulations},
 journal = {Comput.\ Phys.\ Commun.},
 year =    2017,
 doi =     {10.1016/j.cpc.2016.10.020},
 volume =  212,
 pages =   {113--122}
}

@inproceedings{Nikolskiy19,
 author = {V. Nikolskiy and V. Stegailov},
 title = {{GPU} Acceleration of Four-Site Water Models in {LAMMPS}},
 booktitle = {Proceedings of the International Conference on Parallel
    Computing (ParCo 2019), Prague, Czech Republic},
 doi =     {10.3233/APC200086},
 year =    2019
}

CITE-CITE-CITE-CITE-CITE-CITE-CITE-CITE-CITE-CITE-CITE-CITE-CITE

PPPM initialization ...
  using 12-bit tables for long-range coulomb
  G vector (1/distance) = 0.30244401
  grid = 30 30 30
  stencil order = 5
  estimated absolute RMS force accuracy = 0.00027320613
  estimated relative force accuracy = 8.2275215e-07
  using double precision KISS FFT
  3d grid and FFT values/proc = 17908 6750
Generated 6 of 6 mixed pair_coeff terms from sixthpower/sixthpower mixing rule
Neighbor list info ...
  update: every = 1 steps, delay = 0 steps, check = yes
  max neighbors/atom: 4000, page size: 100000
  master list distance cutoff = 11.5
  ghost atom cutoff = 11.5
  binsize = 5.75, bins = 8 8 8
  1 neighbor lists, perpetual/occasional/extra = 1 0 0
  (1) pair lj/class2/coul/long/gpu, perpetual
      attributes: full, newton on
      pair build: full/bin
      stencil: full/bin/3d
      bin: standard
Per MPI rank memory allocation (min/avg/max) = 21.89 | 21.9 | 21.9 Mbytes
   Step          Time           Temp          Press         Enthalpy        TotEng         KinEng         PotEng         E_bond        E_angle        E_dihed        E_impro         E_vdwl         E_coul         E_long         E_tail         Volume           Lx             Ly             Lz          Density          Pxx            Pyy            Pzz      
         0   0              302.10133     -110.70804      9408.8247      9522.8601      5780.3524      3742.5077      2797.5302      2634.1424     -1943.5294      209.84134      152.27521      3850.3772     -3958.1293     -407.22914      70629.27       41.33598       41.33598       41.33598       0.97995482    -570.4546       204.28571      34.044782    
      1000   1000           295.4027      -1072.4696      8332.9651      9429.1591      5652.1819      3776.9772      2809.4085      2725.8993     -1959.0073      207.34002      120.96021      3837.0063     -3964.6298     -410.39026      70085.232      41.229573      41.229573      41.229573      0.98756173    -1740.2282      115.57898     -1592.7597    
      2000   2000           300.90778      542.81909      10047.432      9491.0123      5757.5153      3733.497       2816.9595      2656.9217     -1968.5825      202.93431      140.17616      3843.9333     -3958.8455     -409.21528      70286.468      41.268996      41.268996      41.268996      0.98473426     364.97204      895.05981      368.42542    
      3000   3000           301.89314      283.98126      9951.2543      9659.4298      5776.3689      3883.0609      2890.1341      2650.6781     -1933.1956      210.90689      178.62546      3845.3502     -3959.4384     -408.19476      70462.19       41.30336       41.30336       41.30336       0.98227848     548.48915     -459.40354      762.85818    
      4000   4000           301.26215      908.77653      10529.54       9592.4018      5764.2957      3828.1061      2914.0146      2661.7204     -2044.8656      206.96597      204.99297      3842.8798     -3957.6022     -406.77375      70708.34       41.3514        41.3514        41.3514        0.97885897    -348.62517      2963.4496      111.50521    
      5000   5000           295.10378      493.72448      9977.4277      9471.3652      5646.4624      3824.9028      2936.2735      2645.613      -2001.9362      204.76031      144.41164      3851.3854     -3955.6048     -409.24181      70281.911      41.268104      41.268104      41.268104      0.98479811    -718.41556      1816.7798      382.80923    
      6000   6000           298.77007     -1037.212       8387.844       9456.9662      5716.6126      3740.3537      2827.2767      2628.1598     -1948.1579      204.0775       138.87336      3849.6038     -3959.4795     -406.94863      70677.954      41.345475      41.345475      41.345475      0.9792798     -140.00298     -1142.6228     -1829.0101    
      7000   7000           290.9345      -200.86448      9162.6827      9371.6988      5566.6883      3805.0105      2889.6751      2617.0257     -1977.4071      206.98975      199.51789      3831.9864     -3962.7773     -403.10927      71351.117      41.476324      41.476324      41.476324      0.97004077     2091.4682     -929.08106     -1764.9806    
      8000   8000           300.34406     -294.35858      9239.5327      9541.9194      5746.729       3795.1903      2812.0732      2684.7452     -1919.6536      206.53223      137.62357      3835.546      -3961.6763     -408.33217      70438.477      41.298726      41.298726      41.298726      0.98260916    -293.91147     -142.6893      -446.47498    
      9000   9000           296.05612      1113.2132      10533.703      9387.0652      5664.6844      3722.3808      2854.8595      2634.9735     -2033.3918      202.54936      193.03092      3831.6262     -3961.2668     -407.24092      70627.225      41.335581      41.335581      41.335581      0.97998318     1795.5551      303.63491      1240.4496    
     10000   10000          299.41366      511.45905      9951.3704      9425.6162      5728.9271      3696.6892      2865.7564      2622.1056     -2036.6292      197.16049      158.92199      3846.1588     -3956.785      -408.06332      70484.887      41.307794      41.307794      41.307794      0.98196218    -4.1315052      500.62375      1037.8849    
     11000   11000          303.71465     -723.02223      8849.9294      9598.9051      5811.2214      3787.6837      2849.7175      2629.2942     -1960.302       216.71014      162.92865      3846.8112     -3957.4761     -404.93318      71029.734      41.413957      41.413957      41.413957      0.97442984     35.33469      -787.85971     -1416.5417    
     12000   12000          297.23163      1129.2719      10525.66       9360.3404      5687.1764      3673.1639      2850.3173      2564.6918     -2010.197       200.56806      179.20529      3847.5085     -3958.9299     -406.49276      70757.216      41.360925      41.360925      41.360925      0.97818281     3370.9616      35.905458     -19.051196    
     13000   13000          303.24448      317.1409       9922.6979      9594.8936      5802.2251      3792.6684      2908.0659      2603.4046     -2012.308       202.67404      203.0353       3845.8001     -3958.0035     -405.82336      70873.93       41.383654      41.383654      41.383654      0.97657197    -465.48535     -278.50765      1695.4157    
     14000   14000          297.21325     -209.56941      9256.1348      9471.969       5686.8248      3785.1441      2900.2173      2589.9801     -1966.304       205.24997      172.29965      3837.8479     -3954.1467     -407.29316      70618.167      41.333814      41.333814      41.333814      0.98010889    -597.63611     -83.629593      52.557487    
     15000   15000          300.54334      1386.2977      10939.527      9511.4978      5750.542       3760.9558      2929.0954      2621.8393     -2046.9233      202.32576      181.24615      3833.4879     -3960.1155     -407.21052      70632.499      41.33661       41.33661       41.33661       0.97991001     2717.4753      496.42834      944.9894     
     16000   16000          299.42987      249.14733      9795.5192      9536.6897      5729.2371      3807.4526      2860.0598      2637.1825     -2000.1415      212.68216      200.70706      3850.3562     -3953.3937     -403.77735      71233.061      41.453436      41.453436      41.453436      0.97164845    -1151.9062      1013.4233      885.92497    
     17000   17000          296.85008      187.77717      9622.4468      9428.8483      5679.876       3748.9723      2848.1748      2574.8629     -1949.0433      209.62068      180.748        3841.7732     -3957.1639     -406.85556      70694.121      41.348628      41.348628      41.348628      0.97905585     269.83209      905.4708      -611.9714     
     18000   18000          297.43056      936.45486      10436.506      9474.9874      5690.9826      3784.0047      2887.0236      2626.6397     -2012.8991      212.24417      196.92785      3836.3736     -3962.3051     -408.53445      70403.601      41.291909      41.291909      41.291909      0.98309592     2935.1854      395.49208     -521.31289    
     19000   19000          299.77121     -416.05476      9142.3819      9574.2335      5735.7682      3838.4653      2869.5492      2644.3123     -1959.3442      216.42487      183.70127      3841.4323     -3957.6103     -404.12462      71171.849      41.441559      41.441559      41.441559      0.97248412     444.84553     -2211.4168      518.40703    
     20000   20000          301.98655     -502.64113      9165.4895      9687.064       5778.1562      3908.9079      2886.6357      2697.8596     -1958.1168      215.28487      185.35429      3837.9936     -3956.1035     -404.24168      71151.239      41.437558      41.437558      41.437558      0.97276582    -538.51612     -508.0764      -461.33086    
     21000   21000          298.30425     -2296.823       7070.5447      9436.883       5707.6997      3729.1834      2868.6569      2604.8922     -1924.3921      210.68172      84.516597      3844.5772     -3959.749      -407.14597      70643.697      41.338794      41.338794      41.338794      0.97975469    -3872.5714     -1694.0749     -1323.8228    
     22000   22000          299.03127      1281.9775      10681.606      9359.4928      5721.6105      3637.8823      2791.4114      2607.3976     -2037.3383      202.43903      189.6892       3843.2635     -3958.9802     -406.73456      70715.152      41.352728      41.352728      41.352728      0.97876467     41.671329      1529.5844      2274.6767    
     23000   23000          296.68086      640.45352      10113.507      9448.4255      5676.6381      3771.7874      2858.5704      2693.212      -2044.7679      204.59539      182.56283      3835.5297     -3957.915      -403.93559      71205.155      41.448022      41.448022      41.448022      0.97202925     1060.4802      983.13776     -122.25736    
     24000   24000          302.07379     -546.42989      9075.6023      9640.9269      5779.8254      3861.1014      2919.0263      2661.8186     -1996.6192      197.00752      198.71788      3840.4866     -3959.3362     -405.44882      70939.401      41.396393      41.396393      41.396393      0.97567067    -1861.7673      666.45275     -443.97512    
     25000   25000          299.37282     -814.36449      8719.0844      9562.6176      5728.1457      3834.4719      2892.7296      2619.1936     -1966.0885      204.00084      202.58856      3838.7215     -3956.6737     -404.96374      71024.376      41.412916      41.412916      41.412916      0.97450336    -1877.8351     -266.41136     -298.84702    
     26000   26000          297.31124      1007.4027      10439.861      9404.5981      5688.6997      3715.8984      2846.9616      2630.888      -2030.904       209.92321      174.21382      3844.6042     -3959.7883     -408.18009      70464.721      41.303854      41.303854      41.303854      0.9822432      403.38945      895.09235      1723.7262    
     27000   27000          296.17828     -405.92272      9047.0294      9464.5883      5667.0218      3797.5664      2812.067       2626.7476     -1909.1322      207.32346      187.06677      3833.2901     -3959.7963     -407.77923      70533.991      41.317384      41.317384      41.317384      0.98127856    -209.19612     -508.65438     -499.91767    
     28000   28000          307.9586       598.43044      10333.01       9719.6805      5892.4244      3827.2561      2974.4655      2582.4961     -1966.7303      213.42608      140.05707      3846.572      -3963.0303     -409.27892      70275.539      41.266857      41.266857      41.266857      0.9848874      591.77792     -34.383098      1237.8965    
     29000   29000          294.797       -267.99818      9127.9133      9402.7968      5640.5927      3762.2041      2786.0782      2636.364      -1930.0214      203.21971      187.25055      3839.2625     -3959.9494     -408.9616       70330.067      41.277528      41.277528      41.277528      0.9841238     -734.68506     -576.9814       507.67193    
     30000   30000          301.15961      163.07883      9755.538       9587.1267      5762.3336      3824.7931      2867.3557      2648.2021     -1988.6213      206.29175      193.74307      3852.1756     -3954.3539     -406.18667      70810.538      41.371312      41.371312      41.371312      0.97744622     1026.1946     -352.40898     -184.54919    
     31000   31000          306.09744      1623.6955      11416.513      9740.4003      5856.8133      3883.587       2914.3965      2702.3551     -2036.0602      213.58187      225.85695      3823.782      -3960.3252     -406.35062      70781.967      41.365747      41.365747      41.365747      0.97784077     1074.0959      2020.1184      1776.8721    
     32000   32000          300.55394     -610.95546      8941.5471      9571.5937      5750.7448      3820.8488      2864.6729      2662.531      -1970.6881      205.1627       178.99094      3841.1771     -3960.9978     -406.75822      70711.039      41.351926      41.351926      41.351926      0.9788216     -2064.2313      1133.6885     -902.3236     
     33000   33000          299.05858     -633.4532       8877.9603      9531.2518      5722.133       3809.1188      2852.381       2641.3755     -1926.7247      207.10737      148.28357      3841.7568     -3955.0608     -406.73067      70715.829      41.352859      41.352859      41.352859      0.97875531     179.98441     -1870.873      -209.47102    
     34000   34000          299.9938       198.52602      9751.8088      9547.2458      5740.0273      3807.2185      2909.769       2598.8272     -1976.7807      205.93911      190.7537       3839.6347     -3960.9246     -407.08941      70653.512      41.340709      41.340709      41.340709      0.97961858     283.39752      358.65947     -46.478925    
     35000   35000          295.74524      555.8105       9980.4337      9405.9475      5658.7361      3747.2113      2838.2842      2690.6945     -2020.5627      194.35633      161.79163      3839.798      -3957.1506     -405.83229      70872.371      41.383351      41.383351      41.383351      0.97659344    -35.762503      1369.2087      333.98532    
     36000   36000          303.63337      47.505577      9652.3285      9603.3037      5809.6662      3793.6375      2846.6032      2613.5533     -1932.2466      205.09102      176.73085      3840.4615     -3956.5559     -406.46945      70761.275      41.361716      41.361716      41.361716      0.97812671     588.95705     -549.03133      102.59101    
     37000   37000          297.62907      546.09683      10094.341      9537.6026      5694.7809      3842.8217      2931.2546      2617.8818     -1991.2899      210.75984      196.57132      3843.3152     -3965.6711     -411.451        69904.548      41.194112      41.194112      41.194112      0.9901143      1643.5683      928.16913     -933.44693    
     38000   38000          298.96715     -847.04871      8537.2459      9412.3868      5720.3836      3692.0032      2813.2948      2590.0395     -1954.2062      205.8586       156.68677      3839.0641     -3958.7344     -406.00358      70842.469      41.37753       41.37753       41.37753       0.97700565    -609.81973      36.713098     -1968.0395    
     39000   39000          304.96457     -221.00281      9405.9295      9635.7172      5835.1371      3800.5801      2851.0713      2650.5671     -1952.5938      203.76075      173.67681      3836.1689     -3962.071      -403.43212      71294.018      41.465257      41.465257      41.465257      0.97081768     1292.1893     -458.69099     -1496.5068    
     40000   40000          301.59372      274.15806      9875.9346      9594.0136      5770.6399      3823.3737      2971.5092      2636.7087     -2019.6682      204.61448      157.67587      3832.8827     -3960.3492     -407.91819      70509.964      41.312692      41.312692      41.312692      0.98161294     634.41794      407.84211     -219.78588    
     41000   41000          300.23763      413.5162       9984.8552      9556.8245      5744.6927      3812.1318      2928.9591      2689.8978     -2042.8134      203.14653      146.30109      3844.3263     -3957.6856     -405.24449      70975.17       41.40335       41.40335       41.40335       0.97517897     2178.7031     -713.98714     -224.16738    
     42000   42000          299.67132     -352.15701      9099.964       9461.32        5733.8569      3727.4631      2847.6891      2602.8304     -1952.712       208.90881      142.71597      3839.6339     -3961.603      -408.79018      70359.558      41.283296      41.283296      41.283296      0.98371131    -1669.175       557.44933      55.254681    
     43000   43000          297.22119      120.49489      9716.9112      9591.2604      5686.9767      3904.2837      2935.9076      2701.2149     -1998.0144      206.10133      181.08741      3835.1641     -3957.1773     -402.2564       71502.397      41.505616      41.505616      41.505616      0.96798843    -103.77684      536.55184     -71.290344    
     44000   44000          304.1963      -266.79391      9252.5495      9527.2557      5820.4372      3706.8185      2909.5832      2605.2249     -1989.9592      198.25425      105.46273      3837.211      -3958.9583     -407.38671      70601.95       41.33065       41.33065       41.33065       0.98033401    -1977.9356      682.66698      494.8869     
     45000   45000          296.81034     -716.76371      8679.9492      9420.3146      5679.1155      3741.1991      2873.6485      2555.0859     -1944.6129      201.13449      176.48639      3838.3636     -3958.9069     -406.09659      70826.244      41.374371      41.374371      41.374371      0.97722947    -271.16053     -889.35142     -989.77916    
     46000   46000          301.17204      681.2583       10260.623      9554.8791      5762.5715      3792.3076      2960.136       2632.2919     -2048.9909      205.36739      159.69954      3842.1536     -3958.3499     -404.91536      71032.86       41.414565      41.414565      41.414565      0.97438696    -266.04857      1991.9762      317.84729    
     47000   47000          301.66667     -166.55089      9437.9783      9609.0952      5772.0357      3837.0595      2914.2372      2646.202      -1985.3807      206.1624       175.41722      3841.1362     -3960.7148     -408.27551      70448.253      41.300636      41.300636      41.300636      0.98247281    -276.82332     -318.36149      95.532161    
     48000   48000          301.19768     -2738.0912      6693.9042      9529.9728      5763.062       3766.9108      2822.9567      2617.1614     -1914.3645      201.01538      160.26395      3836.4941     -3956.6162     -404.97726      71022.005      41.412455      41.412455      41.412455      0.9745359     -3125.4836     -2973.7058     -2115.0843    
     49000   49000          298.93841      499.9647       10087.308      9572.6129      5719.8336      3852.7793      2978.6065      2596.5446     -1973.2898      207.56037      165.66703      3837.5415     -3959.8509     -407.46361      70588.626      41.32805       41.32805       41.32805       0.98051905    -249.24195      840.6171       908.51894    
     50000   50000          298.16602     -355.52539      9057.4881      9423.762       5705.0548      3718.7072      2826.0885      2627.6393     -1991.222       205.84443      178.53202      3829.801      -3957.9761     -407.1591       70641.419      41.33835       41.33835       41.33835       0.97978628     816.06035     -925.97772     -956.65881    
     51000   51000          301.30462      960.69474      10595.673      9603.3094      5765.1084      3838.201       2946.3808      2595.6082     -2013.9416      215.24201      209.98676      3841.9407     -3957.0158     -406.08235      70828.728      41.374855      41.374855      41.374855      0.97719521    -393.93957      893.10452      2382.9193    
     52000   52000          296.43922     -1335.2964      8038.6161      9414.9427      5672.0146      3742.9281      2908.2103      2584.4663     -1938.2144      209.14944      87.854453      3851.0866     -3959.6246     -406.96366      70675.344      41.344967      41.344967      41.344967      0.97931596    -1916.3818     -986.75275     -1102.7548    
     53000   53000          299.9895      -564.2796       8939.0309      9524.0684      5739.945       3784.1233      2869.4305      2647.0708     -1973.7203      205.1672       162.15623      3836.1909     -3962.172      -404.58532      71090.806      41.425823      41.425823      41.425823      0.97359274    -1262.9574     -762.0808       332.19935    
     54000   54000          304.93742     -1443.4404      8083.4504      9564.3971      5834.6175      3729.7796      2897.4669      2588.3555     -1971.1267      207.95356      131.45184      3834.1402     -3958.4617     -408.84517      70350.096      41.281446      41.281446      41.281446      0.98384362    -1121.3014     -2183.3555     -1025.6643    
     55000   55000          307.02512      597.08099      10311.415      9697.214       5874.5633      3822.6507      2849.384       2691.7619     -1984.3038      209.21469      170.61127      3847.3699     -3961.3872     -407.77679      70534.414      41.317467      41.317467      41.317467      0.98127268     47.369714      973.64625      770.22701    
     56000   56000          299.09983     -883.27719      8628.1338      9543.9946      5722.9222      3821.0725      2887.6639      2681.3988     -1970.0622      210.30933      135.87693      3832.5582     -3956.6725     -404.54511      71097.872      41.427196      41.427196      41.427196      0.97349598    -3012.4419     -154.77768      517.38801    
     57000   57000          296.30192      32.155884      9504.5433      9471.2516      5669.3876      3801.864       2862.163       2589.444      -1911.773       203.52082      181.45709      3834.9851     -3957.933      -405.15767      70990.379      41.406307      41.406307      41.406307      0.97497004    -1078.2855     -310.93858      1485.6917    
     58000   58000          304.47474     -756.12926      8814.1167      9594.7752      5825.7647      3769.0105      2853.9322      2594.043      -1928.7988      203.5481       165.94286      3838.1003     -3957.7572     -406.28836      70792.814      41.36786       41.36786       41.36786       0.97769094     13.225185     -733.11377     -1548.4992    
     59000   59000          295.3193       634.66203      10034.58       9377.469       5650.5862      3726.8829      2792.3077      2610.7759     -1972.7334      210.845        203.05401      3841.1573     -3958.5236     -405.13804      70993.818      41.406976      41.406976      41.406976      0.97492281     1822.3516      496.5631      -414.92859    
     60000   60000          297.48391      2683.2204      12298.799      9540.7316      5692.0034      3848.7282      2974.2326      2595.3553     -2024.3547      210.16072      217.86253      3836.3954     -3960.9237     -408.0852       70481.107      41.307055      41.307055      41.307055      0.98201485     3602.5371      2436.8466      2010.2776    
     61000   61000          303.79568     -1904.9543      7606.0183      9575.4141      5812.7717      3762.6424      2869.4797      2591.051      -1923.0691      213.5187       136.57144      3836.9579     -3961.8672     -405.74297      70887.972      41.386387      41.386387      41.386387      0.97637852    -1763.4994     -1823.068      -2128.2955    
     62000   62000          296.17358      283.88423      9615.5439      9325.7365      5666.9319      3658.8046      2848.6996      2610.6552     -2003.6115      206.58516      120.2325       3840.5065     -3964.2628     -410.89531      69999.087      41.212674      41.212674      41.212674      0.98877708    -132.86718      1087.4694     -102.94952    
     63000   63000          303.82165      131.881        9670.2195      9534.1504      5813.2687      3720.8817      2906.5639      2572.566      -1987.5196      206.74951      142.48854      3841.8972     -3961.8639     -406.55773      70745.909      41.358722      41.358722      41.358722      0.97833915    -292.80407      1009.5408     -321.09376    
     64000   64000          301.40239     -1252.7893      8285.589       9585.0011      5766.9789      3818.0222      2833.9199      2636.0846     -1921.0807      215.25952      187.1732       3827.4926     -3960.8269     -404.41808      71120.204      41.431532      41.431532      41.431532      0.97319031    -1426.7745      184.54865     -2516.1419    
     65000   65000          295.89874     -686.92623      8668.424       9370.8785      5661.6731      3709.2054      2843.1281      2611.4061     -1974.5518      219.29128      130.17068      3841.4565     -3961.6955     -410.19592      70118.436      41.236083      41.236083      41.236083      0.98709408    -1061.2056     -702.40649     -297.16661    
     66000   66000          300.32165      12.43906       9644.3375      9631.5652      5746.3003      3885.2648      2918.933       2651.6764     -1921.83        220.14905      136.14305      3841.0636     -3960.8702     -408.52372      70405.45       41.29227       41.29227       41.29227       0.9830701      349.14403     -859.00584      547.17898    
     67000   67000          301.53508     -651.14942      8852.3853      9522.1295      5769.5178      3752.6117      2901.9149      2591.3208     -1991.0612      205.21481      156.06231      3845.8563     -3956.6963     -407.82248      70526.511      41.315924      41.315924      41.315924      0.98138264     1501.0279     -1481.1496     -1973.3266    
     68000   68000          300.66957     -803.09572      8801.2938      9624.5891      5752.9573      3871.6319      2862.7423      2655.2502     -1877.8408      213.45355      148.39686      3831.2545     -3961.6247     -409.17691      70293.058      41.270286      41.270286      41.270286      0.98464194    -563.51817     -874.96617     -970.8028     
     69000   69000          299.29337     -18.118799      9417.722       9436.3661      5726.6253      3709.7407      2775.8364      2630.6927     -1952.0856      211.68909      157.1105       3842.5535     -3956.0559     -407.65033      70556.294      41.321739      41.321739      41.321739      0.98096837    -359.05875      262.2081       42.494258    
     70000   70000          301.75973      111.54045      9650.6849      9535.781       5773.8164      3761.9646      2914.6198      2617.386      -1989.6172      200.56681      135.90635      3843.4133     -3960.3106     -407.1897       70636.11       41.337315      41.337315      41.337315      0.97985991    -390.42568      965.15481     -240.10777    
     71000   71000          292.2399       9.9528679      9258.9921      9248.7592      5591.6656      3657.0936      2844.2855      2570.5773     -1960.2488      203.2285       123.89955      3838.2836     -3962.932      -407.98978      70497.59       41.310275      41.310275      41.310275      0.98178524    -178.06949      522.21586     -314.28777    
     72000   72000          300.34556     -615.49092      8900.3452      9537.1833      5746.7578      3790.4256      2867.3488      2565.6587     -1910.3894      213.68996      172.95807      3841.6623     -3960.5029     -405.40777      70946.584      41.397791      41.397791      41.397791      0.97557189    -1116.902      -813.14784      83.577132    
     73000   73000          307.94607      2025.5698      11715.062      9638.1707      5892.1846      3745.9861      2938.8594      2565.096      -2017.2216      208.53778      165.29534      3845.4405     -3960.0212     -409.10322      70305.721      41.272764      41.272764      41.272764      0.98446459     2464.5882      2246.435       1365.6862    
     74000   74000          299.86853     -838.937        8744.8364      9610.4704      5737.6304      3872.84        2907.4646      2596.8863     -1893.6803      215.30686      160.41566      3844.5872     -3958.1403     -406.53181      70750.421      41.359601      41.359601      41.359601      0.97827677    -368.09354     -943.33167     -1205.3858    
     75000   75000          294.06848     -93.271725      9276.2035      9372.7339      5626.6532      3746.0807      2909.9964      2614.2884     -1986.5719      211.07923      101.88226      3847.7112     -3952.3049     -405.30803      70964.043      41.401186      41.401186      41.401186      0.97533188     1090.4861      625.02082     -1995.3221    
     76000   76000          299.45584      982.17597      10584.599      9574.4029      5729.734       3844.6689      2929.8654      2638.6855     -2002.0798      206.33702      184.61411      3843.2034     -3955.9568     -407.83356      70524.595      41.315549      41.315549      41.315549      0.9814093      935.27182      440.72409      1570.532     
     77000   77000          301.88078      1301.9499      10935.489      9585.2754      5776.1325      3809.1429      2878.9954      2584.2123     -1960.3802      211.32896      207.57931      3842.8936     -3955.4866     -404.47455      71110.275      41.429604      41.429604      41.429604      0.97332619     1759.9007      922.57895      1223.3699    
     78000   78000          303.32429      828.79742      10508.554      9653.7372      5803.7522      3849.985       2941.5403      2661.2473     -1998.2082      211.9858       158.72472      3835.328      -3960.6329     -406.70055      70721.066      41.35388       41.35388       41.35388       0.97868283     1298.2644      728.81946      459.30839    
     79000   79000          301.07412     -1137.6984      8295.31        9471.0505      5760.698       3710.3525      2739.5768      2631.1282     -1896.2782      209.94972      146.03317      3837.7906     -3957.8478     -405.89634      70861.187      41.381174      41.381174      41.381174      0.97674758    -1647.9895     -135.45033     -1629.6555    
     80000   80000          304.21478      1106.3352      10758.667      9623.3032      5820.7908      3802.5123      2957.5458      2597.7627     -2016.9284      204.31008      194.29381      3829.4685     -3963.9402     -408.74393      70367.52       41.284853      41.284853      41.284853      0.98360001     290.37305      1516.2793      1512.3532    
     81000   81000          302.69897     -551.95559      8994.6381      9563.1151      5791.7876      3771.3275      2872.3271      2626.3073     -1955.6404      214.4794       135.1761       3837.5695     -3958.8914     -407.27773      70620.843      41.334336      41.334336      41.334336      0.98007174    -1690.0254      201.64706     -167.48848    
     82000   82000          293.44349      385.75964      9872.1753      9473.0895      5614.6948      3858.3947      2843.5471      2684.7599     -1961.3341      210.26087      196.61589      3842.4561     -3957.9111     -405.46186      70937.12       41.39595       41.39595       41.39595       0.97570204     1668.235      -1501.8853      990.92926    
     83000   83000          300.5327      -2749.7494      6768.6255      9625.0387      5750.3386      3874.7002      2915.3113      2633.0539     -1879.1613      217.26031      110.08308      3836.4322     -3958.2793     -403.80484      71228.211      41.452495      41.452495      41.452495      0.97171461    -3353.4916     -2242.4642     -2653.2923    
     84000   84000          301.00118      331.47847      9910.3532      9567.4253      5759.3023      3808.1229      2828.6499      2659.4817     -1956.4035      202.12538      199.42825      3833.1635     -3958.3223     -405.46362      70936.812      41.39589       41.39589       41.39589       0.97570628     1320.3797     -626.81541      300.87114    
     85000   85000          300.28793     -42.238474      9396.8208      9440.4883      5745.6551      3694.8332      2846.8889      2601.9913     -2013.4923      197.03554      180.61752      3841.5198     -3959.7274     -405.7415       70888.229      41.386437      41.386437      41.386437      0.97637498    -749.02249      654.06508     -31.758007    
     86000   86000          295.15691      433.75655      9917.6636      9469.3608      5647.4791      3821.8817      2858.3607      2649.599      -2014.0491      204.98067      245.185        3836.4356     -3958.6302     -405.85788      70867.902      41.382481      41.382481      41.382481      0.97665503     658.03794      1899.0987     -1255.867     
     87000   87000          299.11643     -168.37233      9303.0064      9476.6781      5723.2399      3753.4382      2871.7142      2626.4867     -1961.1481      205.36414      133.11135      3839.3901     -3961.4801     -406.66904      70726.546      41.354948      41.354948      41.354948      0.978607       1616.6896     -1828.0774     -293.72919    
     88000   88000          301.19806      599.48088      10243.267      9627.3871      5763.0694      3864.3177      2896.0524      2697.5911     -1998.7843      208.47698      200.92373      3825.3361     -3965.2783     -408.29971      70444.077      41.29982       41.29982       41.29982       0.98253105    -421.33961      739.11881      1480.6634    
     89000   89000          306.43601      1193.358       10843.583      9617.6048      5863.2914      3754.3134      2810.2472      2597.5653     -1947.6373      206.54628      204.67997      3842.8548     -3959.9429     -408.30766      70442.707      41.299552      41.299552      41.299552      0.98255016     940.77921      2156.8517      482.44298    
     90000   90000          296.62758     -1161.5791      8358.1888      9559.0466      5675.6186      3883.4279      2928.5709      2652.7231     -1963.7436      211.72192      172.23854      3841.5786     -3959.6615     -405.74825      70887.049      41.386208      41.386208      41.386208      0.97639123    -2045.2314      367.6901      -1807.1961    
     91000   91000          301.57099      197.04845      9714.3402      9509.7419      5770.205       3739.537       2767.1979      2644.7224     -1972.1777      205.27476      207.21511      3846.5272     -3959.2227     -403.98987      71195.588      41.446166      41.446166      41.446166      0.97215986    -1580.9952      1286.8066      885.33385    
     92000   92000          298.48046     -748.81882      8842.7953      9618.4638      5711.0714      3907.3924      2867.5437      2676.8511     -1939.2738      210.12056      206.12415      3845.6511     -3959.6244     -404.9487       71027.014      41.413428      41.413428      41.413428      0.97446717    -2226.5494      190.27971     -210.18681    
     93000   93000          296.53505     -39.498195      9399.715       9440.1148      5673.8481      3766.2667      2851.9003      2673.4938     -2003.5316      202.87468      164.67536      3835.9862     -3959.1319     -410.10695      70133.649      41.239065      41.239065      41.239065      0.98687997     1480.1382     -1372.6034     -226.02938    
     94000   94000          298.61466     -407.80753      9104.27        9523.9603      5713.639       3810.3212      2828.6216      2668.6407     -1927.3264      206.72112      157.14833      3840.1683     -3963.6524     -407.59216      70566.363      41.323704      41.323704      41.323704      0.9808284     -277.36292     -1503.8961      557.83644    
     95000   95000          298.33273      771.54693      10219.244      9419.7765      5708.2446      3711.5319      2854.3489      2594.641      -1999.4719      204.53278      175.80312      3842.3069     -3960.6288     -404.81899      71049.771      41.417851      41.417851      41.417851      0.97415504     784.23203      268.85627      1261.5525    
     96000   96000          298.73924     -521.20337      9006.1552      9545.9723      5716.0227      3829.9496      2884.6485      2670.0763     -2000.6279      211.52568      190.13482      3836.0572     -3961.865      -405.00463      71017.203      41.411522      41.411522      41.411522      0.97460178    -677.27494     -44.235715     -842.09946    
     97000   97000          304.46756      216.50032      9758.2773      9535.7552      5825.6274      3710.1278      2858.4532      2586.226      -1986.306       210.41731      163.74997      3838.7436     -3961.1563     -408.11713      70475.592      41.305978      41.305978      41.305978      0.98209168     1457.6311     -554.81752     -253.31258    
     98000   98000          302.42667      1868.953       11367.324      9446.764       5786.5774      3660.1866      2831.0313      2571.6461     -2027.9737      207.58641      208.18655      3831.0322     -3961.3223     -408.19707      70461.791      41.303282      41.303282      41.303282      0.98228405     1614.8838      1820.8611      2171.114     
     99000   99000          305.38201     -1071.1397      8451.4968      9554.7959      5843.1244      3711.6715      2808.1912      2596.9162     -1962.8497      201.41346      186.50478      3843.5261     -3962.0305     -407.24175      70627.082      41.335553      41.335553      41.335553      0.97998517     17.241742     -1821.952      -1408.7089    
    100000   100000         296.9515       348.01137      9743.1974      9383.3975      5681.8165      3701.581       2819.072       2584.1496     -1973.9926      207.44241      191.61963      3837.3259     -3964.0361     -405.72513      70891.09       41.386994      41.386994      41.386994      0.97633558     845.14423     -244.54891      443.43878    
    101000   101000         298.54182      989.16968      10597.503      9575.4134      5712.2454      3863.1681      2934.8142      2654.573      -2022.715       206.38619      210.95224      3837.4186     -3958.2612     -405.95813      70850.402      41.379074      41.379074      41.379074      0.97689627     1422.2523     -259.86568      1805.1224    
    102000   102000         297.25506      10.904593      9485.8883      9474.5663      5687.6248      3786.9415      2792.4177      2685.3563     -1947.9848      213.46277      158.69749      3843.1495     -3958.1575     -404.00441      71193.027      41.445669      41.445669      41.445669      0.97219484     1071.5381     -1285.8773      247.05298    
    103000   103000         299.32306     -1665.2129      7873.2696      9596.4601      5727.1934      3869.2666      2876.5318      2670.7617     -1922.4449      205.16171      154.59929      3845.1862     -3960.5291     -405.35537      70955.755      41.399574      41.399574      41.399574      0.9754458     -729.79672     -1509.7934     -2756.0486    
    104000   104000         299.9044       144.68043      9745.9675      9596.3653      5738.3167      3858.0486      2885.6272      2653.7445     -1950.9133      209.38742      190.41774      3830.7938     -3961.0087     -405.66851      70900.983      41.388919      41.388919      41.388919      0.97619934     596.58385      744.82446     -907.36701    
    105000   105000         295.6422      -918.97354      8374.8269      9319.0233      5656.7646      3662.2587      2904.6074      2602.2717     -2043.5756      201.92436      126.7049       3830.9208     -3960.5949     -408.2631       70450.395      41.301055      41.301055      41.301055      0.98244293    -1757.4731      2.4083593     -1001.8559    
    106000   106000         299.2012      -1595.0929      7901.639       9564.6906      5724.8619      3839.8287      2928.271       2651.8471     -1976.6905      206.99251      149.5198       3837.318      -3957.4293     -402.3275       71489.761      41.503171      41.503171      41.503171      0.96815953    -1684.7099     -1884.2446     -1216.3242    
    107000   107000         294.12656      921.87521      10451.995      9503.9706      5627.7646      3876.2059      2894.1006      2699.4508     -2001.3949      208.27955      193.64993      3839.878      -3957.758      -407.89841      70513.383      41.31336       41.31336       41.31336       0.98156535     756.98894      497.16982      1511.4669    
    108000   108000         306.65837     -1343.2217      8247.8861      9633.6086      5867.546       3766.0627      2882.5728      2613.8161     -1952.6916      197.95115      149.94823      3836.717      -3962.251      -406.60329      70737.982      41.357177      41.357177      41.357177      0.97844879    -839.79253     -1868.8861     -1320.9865    
    109000   109000         302.25292     -643.07089      8884.724       9550.4929      5783.2529      3767.2399      2910.5629      2610.9837     -1986.9929      204.92345      151.83952      3835.4037     -3959.4805     -405.16772      70988.617      41.405964      41.405964      41.405964      0.97499424    -1066.1075      246.90545     -1110.0107    
    110000   110000         297.68942     -215.88908      9267.2874      9489.4142      5695.9357      3793.4784      2882.6549      2630.814      -1977.0665      204.32441      183.38931      3831.881      -3962.5186     -407.68928      70549.554      41.320423      41.320423      41.320423      0.9810621      691.40164     -1241.6225     -97.446394    
    111000   111000         306.49421      60.682859      9808.2471      9745.5941      5864.405       3881.1891      2894.2448      2651.5606     -1949.3715      214.03152      189.15228      3839.1348     -3957.5634     -406.27841      70794.548      41.368198      41.368198      41.368198      0.97766699    -732.07135      1329.6085     -415.48857    
    112000   112000         300.3072      -583.59019      8887.579       9487.3906      5746.0238      3741.3668      2852.1634      2620.2214     -1983.0272      205.99033      171.48412      3837.1324     -3962.5977     -408.12443      70474.332      41.305732      41.305732      41.305732      0.98210925    -708.75855     -1293.5833      251.57129    
    113000   113000         294.63769      979.64529      10352.957      9342.6356      5637.5445      3705.0911      2810.3077      2604.9724     -2024.8948      209.49045      220.26304      3844.4375     -3959.4852     -406.73237      70715.533      41.352802      41.352802      41.352802      0.9787594      254.71483      1769.5128      914.70825    
    114000   114000         299.48953     -489.57131      8978.0269      9485.0035      5730.3786      3754.6248      2777.0078      2645.343      -1928.4622      208.6659       175.12508      3837.2521     -3960.3068     -405.06759      71006.166      41.409376      41.409376      41.409376      0.97475328    -187.68055     -787.08029     -493.95311    
    115000   115000         302.37735      979.96564      10588.749      9578.2842      5785.6337      3792.6506      2889.0148      2638.6616     -1968.7228      206.19769      154.18644      3833.9539     -3960.641      -406.80774      70702.431      41.350248      41.350248      41.350248      0.97894078     2867.4099      20.647667      51.839393    
    116000   116000         302.49857     -507.28037      9060.0569      9584.7474      5787.9532      3796.7942      2889.9679      2652.6797     -2023.5474      196.2346       211.42861      3828.5913     -3958.5605     -405.54993      70921.716      41.392953      41.392953      41.392953      0.97591397    -1010.8143     -1104.9745      593.94771    
    117000   117000         299.73192      483.16916      10073.884      9579.0534      5735.0165      3844.0369      2975.5301      2646.6073     -2039.6796      201.15066      185.40647      3835.9864     -3960.9644     -409.58337      70223.302      41.25663       41.25663       41.25663       0.98562003     593.33693      811.69682      44.473741    
    118000   118000         296.20885     -728.3447       8684.9142      9433.5998      5667.6067      3765.9932      2877.0494      2691.8242     -2026.8165      196.79111      150.91743      3840.3485     -3964.121      -408.0721       70483.369      41.307498      41.307498      41.307498      0.98198332    -2732.0546      818.43478     -271.41422    
    119000   119000         298.28966     -5.29508        9469.1569      9474.6451      5707.4207      3767.2245      2911.6108      2647.6388     -2020.7628      201.87068      160.11746      3830.2986     -3963.549      -404.70698      71069.436      41.421672      41.421672      41.421672      0.9738855      806.35103      815.21856     -1637.4548    
    120000   120000         297.72925      777.64918      10368.39       9563.7963      5696.6977      3867.0986      2909.393       2689.4287     -2023.3609      203.40811      196.68391      3848.8398     -3957.294      -405.4215       70944.181      41.397323      41.397323      41.397323      0.97560494     391.61583      865.29115      1076.0406    
    121000   121000         300.19242      901.27204      10432.04       9503.3141      5743.8277      3759.4864      2937.8343      2616.1967     -2028.5317      210.65851      145.29155      3839.69       -3961.6529     -407.06872      70657.104      41.341409      41.341409      41.341409      0.97956878     662.30696     -122.13261      2163.6418    
    122000   122000         294.15895     -239.55813      9203.2009      9450.4294      5628.3844      3822.045       2829.0917      2670.6276     -1958.0688      203.68702      211.33436      3829.5246     -3964.1514     -406.45446      70763.884      41.362225      41.362225      41.362225      0.97809064     1168.9709      521.46942     -2409.1147    
    123000   123000         301.34891      477.43611      10017.607      9526.5822      5765.9557      3760.6265      2893.8323      2581.9828     -1969.7474      200.58         179.03498      3837.4309     -3962.487      -407.86034      70519.964      41.314645      41.314645      41.314645      0.98147374     390.08871      438.43716      603.78245    
    124000   124000         297.84339      506.87888      9928.2808      9407.5968      5698.8817      3708.7151      2857.2023      2611.1599     -2018.2219      195.91554      198.39363      3827.2539     -3962.9883     -408.347        70435.919      41.298226      41.298226      41.298226      0.98264485     1175.105       21.380707      324.15095    
    125000   125000         297.57821      100.69751      9599.9781      9496.4218      5693.8078      3802.614       2894.0226      2613.4397     -1997.042       214.07393      198.15575      3840.2796     -3960.3156     -407.88856      70515.085      41.313692      41.313692      41.313692      0.98154165    -515.15236      453.90379      363.34111    
    126000   126000         300.37247      549.08676      10247.9        9683.7425      5747.2727      3936.4698      2953.6963      2668.5157     -1950.4359      210.17995      186.62826      3827.7132     -3959.8278     -408.26309      70450.397      41.301055      41.301055      41.301055      0.98244291     1810.9153     -759.46867      595.81366    
    127000   127000         303.66315     -1389.0122      8163.4886      9600.0818      5810.236       3789.8457      2797.0638      2660.357      -1918.1419      216.52272      159.20276      3833.2569     -3958.4155     -405.5755       70917.244      41.392083      41.392083      41.392083      0.97597551    -737.71909     -978.20066     -2451.1169    
    128000   128000         298.35856      58.642296      9605.4677      9545.3503      5708.739       3836.6114      2873.1665      2682.4919     -1938.4529      201.54474      131.24464      3844.7891     -3958.1725     -409.17638      70293.149      41.270304      41.270304      41.270304      0.98464066     70.229335      552.21833     -446.52078    
    129000   129000         297.09796      66.731233      9522.8179      9454.4763      5684.6188      3769.8575      2866.6129      2657.3108     -1949.1525      216.2471       104.59623      3838.3931     -3964.1501     -409.58473      70223.069      41.256584      41.256584      41.256584      0.9856233     -1024.6554     -196.95211      1421.8012    
    130000   130000         295.1247      -745.07849      8591.6944      9360.9046      5646.8628      3714.0418      2842.5698      2616.5087     -1938.3997      201.42183      127.05442      3830.4972     -3965.6105     -406.30902      70789.215      41.367159      41.367159      41.367159      0.97774065    -817.89974     -852.04394     -565.2918     
    131000   131000         299.73799      301.53861      9876.0338      9567.0447      5735.1327      3831.912       2899.8194      2587.5836     -1924.6469      217.43137      167.05832      3844.7052     -3960.0391     -409.35421      70262.614      41.264327      41.264327      41.264327      0.98506858     333.4975       126.46679      444.65156    
    132000   132000         300.51766     -352.81059      9142.2437      9505.0959      5750.0506      3755.0453      2836.7918      2588.4654     -1949.831       215.85675      186.45731      3837.8711     -3960.5661     -407.8601       70520.006      41.314653      41.314653      41.314653      0.98147316    -1188.4356      743.98735     -613.98358    
    133000   133000         300.77339     -226.80803      9239.4104      9472.7017      5754.9438      3717.7579      2872.4724      2603.2848     -1989.2046      203.6105       148.23604      3839.2944     -3959.9355     -407.81146      70528.417      41.316296      41.316296      41.316296      0.98135612    -337.22927      382.99373     -726.18854    
    134000   134000         300.0519       1137.5773      10630.409      9464.6995      5741.1389      3723.5606      2864.817       2615.0535     -2019.654       209.10558      167.25421      3843.427      -3956.4427     -409.34552      70264.105      41.264619      41.264619      41.264619      0.98504766     2312.8175      1132.7878     -32.873292    
    135000   135000         302.695       -357.29352      9236.6147      9606.6368      5791.7116      3814.9252      2889.8397      2618.6485     -1950.9793      199.93304      174.21288      3842.2311     -3958.9607     -405.03903      71011.173      41.410349      41.410349      41.410349      0.97468455     356.3493      -584.96192     -843.26793    
    136000   136000         304.40784     -409.80009      9154.877       9578.0594      5824.4846      3753.5748      2839.7685      2634.7659     -1962.0126      209.31807      157.68583      3835.3796     -3961.3306     -406.20374      70807.562      41.370733      41.370733      41.370733      0.97748731     294.49781     -1000.7247     -523.1734     
    137000   137000         304.8977      -700.13089      8848.5675      9568.7429      5833.8576      3734.8853      2879.7407      2617.3769     -1985.4744      210.41384      130.22826      3841.1983     -3958.5983     -407.79359      70531.507      41.316899      41.316899      41.316899      0.98131311    -212.27827     -607.51802     -1280.5964    
    138000   138000         298.8953       1027.0279      10512.541      9458.9866      5719.0087      3739.9778      2880.1803      2597.4024     -2000.0255      206.14834      174.33908      3844.5806     -3962.6474     -408.90719      70339.425      41.279358      41.279358      41.279358      0.98399288     465.56382     -260.0393       2875.5593    
    139000   139000         297.78394     -306.21887      9201.6344      9516.4559      5697.7442      3818.7117      2912.1501      2652.9382     -1959.0534      210.84951      109.554        3848.8293     -3956.5561     -408.00644      70494.713      41.309713      41.309713      41.309713      0.98182531     361.52616     -1513.0545      232.8717     
    140000   140000         301.91568      82.233823      9660.3983      9575.6897      5776.8002      3798.8895      2905.657       2630.8284     -1985.8832      209.74389      156.24958      3839.9084     -3957.6146     -407.21362      70631.961      41.336505      41.336505      41.336505      0.97991747    -1560.8732     -16.960844      1824.5355    
    141000   141000         298.1818      -666.2613       8824.2688      9509.6894      5705.3568      3804.3326      2857.4503      2682.3093     -1991.0098      209.90838      156.97981      3847.0808     -3958.3861     -407.74335      70540.198      41.318596      41.318596      41.318596      0.98119222    -17.898495     -609.24837     -1371.637     
    142000   142000         297.89083     -688.09601      8700.8472      9407.8481      5699.7895      3708.0586      2851.8191      2628.5349     -1988.4051      203.47695      128.6486       3843.347      -3959.3629     -408.25223      70452.271      41.301422      41.301422      41.301422      0.98241677    -654.49133     -1338.2029     -71.593769    
    143000   143000         303.18865      141.24551      9795.902       9649.9967      5801.157       3848.8397      2913.9394      2628.0084     -1935.7548      205.39379      168.01005      3829.8543     -3960.6114     -406.072        70830.534      41.375206      41.375206      41.375206      0.97717029    -376.34562     -13.843433      813.92558    
[...]
   1958000   1958000        299.37872     -809.8672       8696.4718      9533.4615      5728.2585      3805.203       2833.4496      2647.5994     -1944.6475      201.09611      185.92815      3838.9243     -3957.1471     -405.8758       70864.774      41.381872      41.381872      41.381872      0.97669814    -1547.5525     -189.94269     -692.10645    
   1959000   1959000        298.3905      -749.9951       8663.9386      9442.518       5709.3499      3733.168       2855.5853      2654.3638     -2039.799       198.53584      179.66068      3842.8256     -3958.0042     -404.0685       71181.734      41.443477      41.443477      41.443477      0.97234907     62.51672      -1651.372      -661.13002    
   1960000   1960000        306.13694      463.36267      9956.4903      9480.7681      5857.569       3623.199       2813.4806      2568.444      -2012.9872      197.91495      177.24836      3838.101      -3959.0026     -408.57053      70397.385      41.290693      41.290693      41.290693      0.98318273    -124.73643     -440.59943      1955.4239    
   1961000   1961000        295.00401      708.12654      10181.813      9447.2846      5644.5535      3802.7312      2910.5268      2694.6719     -2066.6834      202.77924      185.04728      3833.6684     -3957.279      -404.39147      71124.885      41.432441      41.432441      41.432441      0.97312626     1489.2704      1270.6366     -635.52744    
   1962000   1962000        303.62892     -970.13054      8553.3128      9560.4391      5809.581       3750.8581      2862.3962      2594.6984     -1949.8844      192.19369      165.9567       3843.9774     -3958.4799     -404.05986      71183.257      41.443773      41.443773      41.443773      0.97232827    -1848.4394     -416.82072     -645.1315     
   1963000   1963000        297.54493     -2274.044       7162.3387      9504.045       5693.171       3810.874       2898.2872      2609.415      -1906.286       203.56274      130.32949      3839.1292     -3963.5636     -407.34829      70608.611      41.331949      41.331949      41.331949      0.98024154    -2860.1666     -1166.1464     -2795.819     
   1964000   1964000        302.41624     -751.80632      8807.2414      9577.9893      5786.3778      3791.6115      2837.7706      2662.3778     -1941.5689      207.32907      140.61547      3846.7273     -3961.6399     -409.1599       70295.981      41.270858      41.270858      41.270858      0.98460099    -1612.7857     -1044.6583      402.02501    
   1965000   1965000        301.62473      756.64434      10284.728      9499.9407      5771.2332      3728.7075      2827.6413      2665.0039     -2027.7798      205.27694      186.2314       3832.076      -3959.7422     -404.42625      71118.768      41.431254      41.431254      41.431254      0.97320995    -686.77185      2102.714       853.99082    
   1966000   1966000        299.91065      278.67744      9751.0742      9464.5756      5738.4362      3726.1394      2823.4764      2630.3576     -1971.2674      215.00409      156.55534      3832.5037     -3960.4902     -408.0175       70492.8        41.30934       41.30934       41.30934       0.98185194     47.238221      556.59553      232.19857    
   1967000   1967000        298.52374      705.32185      10220.696      9493.0983      5711.8995      3781.1988      2870.1258      2624.7818     -1978.4731      211.98769      174.66398      3834.788      -3956.6752     -406.62637      70733.967      41.356395      41.356395      41.356395      0.97850432     1015.8413      814.41152      285.71268    
   1968000   1968000        299.37287      458.10988      9957.7456      9488.3337      5728.1465      3760.1872      2840.9089      2646.1814     -1993.1827      215.28193      168.80519      3840.9241     -3958.7315     -409.36905      70260.067      41.263828      41.263828      41.263828      0.98510429     1430.7369      711.29809     -767.70538    
   1969000   1969000        296.51125      302.50534      9759.3256      9448.3991      5673.3929      3775.0063      2845.6589      2672.6831     -1983.2426      211.89901      160.07019      3829.1601     -3961.2225     -408.10776      70477.21       41.306294      41.306294      41.306294      0.98206914    -40.655397      1521.1477     -572.97629    
   1970000   1970000        300.67805     -1051.6571      8482.3414      9560.5648      5753.1196      3807.4453      2813.9923      2696.3026     -1940.1574      206.21182      156.43857      3837.4121     -3962.7547     -409.13329      70300.554      41.271753      41.271753      41.271753      0.98453695    -621.52833     -1363.7342     -1169.7086    
   1971000   1971000        298.30558      1229.5374      10722.374      9452.2319      5707.7252      3744.5067      2859.7347      2616.2567     -2029.9845      212.05111      212.77994      3832.6711     -3959.0023     -406.05867      70832.858      41.375659      41.375659      41.375659      0.97713822     1829.6687      958.59293      900.35045    
   1972000   1972000        300.49306     -1678.022       7851.0344      9583.8324      5749.58        3834.2524      2909.9525      2657.8761     -1955.7748      215.93009      139.55396      3826.6154     -3959.901      -406.20864      70806.708      41.370566      41.370566      41.370566      0.9774991     -1951.4014     -2264.5456     -818.11908    
   1973000   1973000        302.63583      749.95093      10338.706      9564.4294      5790.5794      3773.85        2894.8426      2640.9357     -2031.2501      199.94983      189.04802      3836.5032     -3956.1794     -406.29016      70792.501      41.367799      41.367799      41.367799      0.97769527     14.917869      564.85235      1670.0826    
   1974000   1974000        296.22587     -129.33324      9346.753       9480.2255      5667.9324      3812.2931      2878.1024      2661.3587     -2002.0122      204.76838      175.01171      3852.145      -3957.0808     -406.45996      70762.926      41.362038      41.362038      41.362038      0.97810388     879.04592      147.25589     -1414.3015    
   1975000   1975000        299.84046      244.9379       9805.9213      9553.0661      5737.0932      3815.9729      2873.9272      2653.7077     -1984.4332      210.83213      188.50582      3832.4803     -3959.0472     -406.3344       70784.793      41.366298      41.366298      41.366298      0.97780173    -466.01805      371.11925      829.71249    
   1976000   1976000        302.2167      -504.65678      9075.2005      9599.1151      5782.5599      3816.5552      2837.6121      2639.1543     -1936.1454      208.72577      197.64082      3827.1983     -3957.6307     -404.04996      71185          41.444111      41.444111      41.444111      0.97230446    -659.02221     -32.847514     -822.1006     
   1977000   1977000        302.63417     -1234.6562      8248.9924      9527.554       5790.5476      3737.0064      2921.242       2584.9494     -1994.299       207.05117      141.40046      3836.703      -3960.0407     -405.06416      71006.767      41.409493      41.409493      41.409493      0.97474502    -1750.8874     -852.76677     -1100.3143    
   1978000   1978000        301.64512      92.453246      9560.0144      9464.6199      5771.6233      3692.9966      2792.4122      2650.7864     -2005.8497      201.69204      186.19412      3828.4185     -3960.6569     -406.53517      70749.835      41.359487      41.359487      41.359487      0.97828487    -1188.2571      1038.2128      427.40404    
   1979000   1979000        294.58499      1346.3209      10787.382      9406.3174      5636.536       3769.7813      2880.3406      2657.7675     -2009.3618      208.3004       149.74615      3843.0625     -3960.0739     -408.91597      70337.914      41.279063      41.279063      41.279063      0.98401402     1082.4837      1749.9934      1206.4856    
   1980000   1980000        300.27986      407.33887      9963.2867      9543.8742      5745.5007      3798.3735      2909.9613      2655.9528     -1992.9911      203.80978      139.47794      3838.5167     -3956.354      -407.39335      70600.8        41.330425      41.330425      41.330425      0.98034998    -516.93772      805.42534      933.529      
   1981000   1981000        298.08855     -872.29917      8556.7533      9455.7356      5703.5727      3752.1629      2844.141       2626.6253     -1953.28        214.56777      140.69294      3838.3201     -3958.9042     -407.01813      70665.885      41.343122      41.343122      41.343122      0.97944706    -1601.5817     -1266.0404      250.72459    
   1982000   1982000        297.04322     -121.78028      9296.3781      9422.5388      5683.5715      3738.9673      2859.1718      2600.6091     -2005.8755      205.7695       211.86734      3827.0437     -3959.6187     -404.90435      71034.793      41.41494       41.41494       41.41494       0.97436045     585.85293      111.64582     -1062.8396    
   1983000   1983000        297.82522     -278.09888      9269.2123      9557.8658      5698.5341      3859.3317      2876.8442      2690.2196     -1977.9567      205.62556      177.94675      3849.0122     -3962.3599     -404.13066      71170.785      41.441352      41.441352      41.441352      0.97249865    -2116.6196     -26.310044      1308.633     
   1984000   1984000        302.1293       1147.7334      10706.715      9531.2869      5780.8875      3750.3994      2852.6153      2639.5859     -2008.4014      216.84359      176.28355      3837.601      -3964.1285     -409.5854       70222.954      41.256562      41.256562      41.256562      0.98562492     1244.9011      2149.4652      48.834016    
   1985000   1985000        295.89847     -362.7873       9022.5469      9398.4634      5661.668       3736.7954      2820.4671      2677.4604     -2002.264       201.85156      164.69961      3834.2809     -3959.7002     -404.81829      71049.893      41.417875      41.417875      41.417875      0.97415337     255.06296     -119.92184     -1223.503     
   1986000   1986000        301.08366      189.47945      9806.4513      9611.5972      5760.8805      3850.7168      2915.1533      2697.0744     -2005.7502      204.58492      164.25185      3835.09       -3959.6876     -407.89842      70513.38       41.313359      41.313359      41.313359      0.98156539     620.19063     -940.64993      888.89765    
   1987000   1987000        300.43678     -50.816065      9466.1194      9518.1284      5748.5031      3769.6253      2859.2497      2672.1869     -2006.6326      201.75255      175.22373      3829.3599     -3961.5149     -409.8474       70178.063      41.247768      41.247768      41.247768      0.9862554     -645.29081      306.14652      186.69609    
   1988000   1988000        290.31419      69.064641      9373.4455      9302.0069      5554.8193      3747.1876      2907.3868      2664.1852     -2068.5932      199.58117      155.29502      3843.3706     -3954.0381     -405.5297       70925.254      41.393641      41.393641      41.393641      0.97586529     250.97428      68.790773     -112.57113    
   1989000   1989000        303.9359       424.29761      10014.041      9577.8149      5815.4548      3762.3602      2870.0616      2653.6889     -1997.9578      198.99061      167.08492      3830.1564     -3959.6645     -407.99849      70496.086      41.309982      41.309982      41.309982      0.98180619    -326.50383      1918.1281     -318.73142    
   1990000   1990000        305.84773      462.94187      10113.271      9635.2747      5852.0354      3783.2393      2896.1227      2628.0588     -2004.5007      194.36753      180.05931      3846.5695     -3957.4378     -406.25716      70798.251      41.368919      41.368919      41.368919      0.97761585     1419.9945      531.3039      -562.4728     
   1991000   1991000        300.28945      103.6738       9628.4251      9521.1838      5745.6842      3775.4995      2866.5461      2628.7907     -1966.325       209.21123      161.25425      3829.9269     -3953.9047     -405.51418      70927.968      41.394169      41.394169      41.394169      0.97582795     888.43166      367.90271     -945.31296    
   1992000   1992000        298.95496      37.521615      9421.3256      9382.7786      5720.1503      3662.6283      2878.3128      2605.8782     -2021.2605      197.97553      122.02876      3840.8548     -3961.1614     -408.31064      70442.192      41.299452      41.299452      41.299452      0.98255734    -559.15312     -115.12921      786.84717    
   1993000   1993000        303.15938     -1487.1264      8029.6134      9565.1683      5800.5969      3764.5714      2867.2724      2670.8732     -1981.6424      202.71072      138.16009      3828.6289     -3961.4314     -406.23933      70801.358      41.369524      41.369524      41.369524      0.97757296    -3424.9574     -108.54585     -927.87597    
   1994000   1994000        291.90604      641.58717      9960.4209      9302.1339      5585.2776      3716.8563      2817.0093      2654.4366     -1994.5796      210.03533      160.44537      3833.0907     -3963.5814     -408.82729      70353.171      41.282047      41.282047      41.282047      0.98380062    -593.98916      1839.9148      678.83589    
   1995000   1995000        303.88846      514.52461      10135.777      9607.6848      5814.5471      3793.1377      2907.8051      2597.9636     -1971.1773      218.51824      161.31683      3841.2548     -3962.5436     -408.69192      70376.475      41.286605      41.286605      41.286605      0.98347485     703.34551      1072.7923     -232.56393    
   1996000   1996000        302.07469      676.51649      10229.654      9533.6798      5779.8427      3753.8371      2864.3501      2670.2826     -2003.8846      204.64732      148.01824      3832.872      -3962.4486     -407.7413       70540.552      41.318665      41.318665      41.318665      0.98118729     1592.542       439.069       -2.0615504    
   1997000   1997000        301.89824     -1145.8868      8470.9731      9653.6938      5776.4665      3877.2272      2971.1304      2672.6653     -1951.8132      213.31895      96.946037      3834.9623     -3959.9826     -406.40494      70772.508      41.363905      41.363905      41.363905      0.97797147    -795.32137     -626.45111     -2015.8879    
   1998000   1998000        302.28223      864.04375      10443.391      9563.6876      5783.8136      3779.874       2897.5973      2706.2186     -2043.7289      205.05538      143.54826      3835.814      -3964.6307     -412.00176      69811.101      41.175748      41.175748      41.175748      0.99143964     1072.5952      1206.2421      313.29396    
   1999000   1999000        299.33625     -799.3641       8569.7085      9392.9419      5727.4457      3665.4962      2843.4978      2615.6834     -2003.2954      199.45731      142.40615      3831.668      -3963.9211     -407.30629      70615.891      41.33337       41.33337       41.33337       0.98014047     120.99912     -381.34484     -2137.7466    
   2000000   2000000        301.62869     -100.18444      9440.5248      9543.4198      5771.309       3772.1108      2902.9431      2653.6777     -1997.7924      205.20701      132.42469      3837.8141     -3962.1634     -408.4187       70423.555      41.295809      41.295809      41.295809      0.98281737    -1806.9541      371.67308      1134.7277    
Loop time of 14290.8 on 4 procs for 2000000 steps with 6420 atoms

Performance: 12.092 ns/day, 1.985 hours/ns, 139.950 timesteps/s, 898.478 katom-step/s
95.2% CPU use with 4 MPI tasks x 1 OpenMP threads

MPI task timing breakdown:
Section |  min time  |  avg time  |  max time  |%varavg| %total
---------------------------------------------------------------
Pair    | 1128.7     | 1168.2     | 1209       |  92.1 |  8.17
Bond    | 4781.3     | 5258.2     | 5549.1     | 411.1 | 36.79
Kspace  | 3736.7     | 4034.7     | 4518.5     | 476.9 | 28.23
Neigh   | 943.89     | 1074.6     | 1146.9     | 236.4 |  7.52
Comm    | 462.25     | 467.59     | 473.05     |  18.5 |  3.27
Output  | 8.0357     | 8.4041     | 8.7418     |   9.2 |  0.06
Modify  | 1880.8     | 1951.4     | 2045.1     | 144.9 | 13.66
Other   |            | 327.7      |            |       |  2.29

Nlocal:           1605 ave        1660 max        1563 min
Histogram: 1 1 0 0 0 1 0 0 0 1
Nghost:        9551.25 ave        9606 max        9490 min
Histogram: 1 0 1 0 0 0 0 0 1 1
Neighs:              0 ave           0 max           0 min
Histogram: 4 0 0 0 0 0 0 0 0 0
FullNghs:       931776 ave      975345 max      893694 min
Histogram: 1 0 1 0 0 1 0 0 0 1

Total # of neighbors = 3727106
Ave neighs/atom = 580.54611
Ave special neighs/atom = 5.8598131
Neighbor list builds = 47565
Dangerous builds = 0

# --- Cleanup ---
unfix npt_fix

undump dump_npt

# --- Write Output ---
write_dump all custom npt_prod300_last.dump id type mol x y z xu yu zu vx vy vz modify sort id
write_data /home/alexzhao/PolyJarvis/data/PS1/lammps/equil/npt_prod300/npt_prod300_out.data
System init for write_data ...
PPPM initialization ...
  using 12-bit tables for long-range coulomb
  G vector (1/distance) = 0.30252349
  grid = 30 30 30
  stencil order = 5
  estimated absolute RMS force accuracy = 0.00027241044
  estimated relative force accuracy = 8.2035596e-07
  using double precision KISS FFT
  3d grid and FFT values/proc = 17908 6750
Generated 6 of 6 mixed pair_coeff terms from sixthpower/sixthpower mixing rule

print "STAGE COMPLETE: NPT T=300.0->300.0K P=1.0->1.0atm steps=2000000"
STAGE COMPLETE: NPT T=300.0->300.0K P=1.0->1.0atm steps=2000000
quit
values/proc = 17908 6750


---------------------------------------------------------------------
    Device Time Info (average) for kspace: 
---------------------------------------------------------------------
CPU Poisson:     3952.6571 s.
CPU Data Cast:   7.8833 s.
CPU Idle Time:   6.0243 s.
Max Mem / Proc:  4.37 MB.
---------------------------------------------------------------------


--------------------------------------------------------------------------
- Using acceleration for pppm:
-  with 4 proc(s) per device.
-  with 1 thread(s) per proc.
-  Horizontal vector operations: ENABLED
-  Shared memory system: No
--------------------------------------------------------------------------
Device 0: NVIDIA A800 40GB Active, 108 CUs, 38/39 GB, 1.4 GHZ (Mixed Precision)
--------------------------------------------------------------------------

Initializing Device and compiling on process 0...Done.
Initializing Device 0 on core 0...Done.
Initializing Device 0 on core 1...Done.
Initializing Device 0 on core 2...Done.
Initializing Device 0 on core 3...Done.



---------------------------------------------------------------------
      Device Time Info (average): 
---------------------------------------------------------------------
CPU Cast/Pack:   11.6390 s.
CPU Driver_Time: 23.0094 s.
CPU Idle_Time:   4.6265 s.
Average split:   1.0000.
Max Mem / Proc:  5.99 MB.
Prefetch mode:   None.
Vector width:    32.
Lanes / atom:    8.
Pair block:      256.
Neigh block:     128.
Neigh mode:      Host.
---------------------------------------------------------------------


--------------------------------------------------------------------------
- Using acceleration for lj/class2/coul/long:
-  with 4 proc(s) per device.
-  with 1 thread(s) per proc.
-  Horizontal vector operations: ENABLED
-  Shared memory system: No
--------------------------------------------------------------------------
Device 0: NVIDIA A800 40GB Active, 108 CUs, 38/39 GB, 1.4 GHZ (Mixed Precision)
--------------------------------------------------------------------------

Initializing Device and compiling on process 0...Done.
Initializing Device 0 on core 0...Done.
Initializing Device 0 on core 1...Done.
Initializing Device 0 on core 2...Done.
Initializing Device 0 on core 3...Done.

Generated 6 of 6 mixed pair_coeff terms from sixthpower/sixthpower mixing rule
STAGE COMPLETE: NPT T=300.0->300.0K P=1.0->1.0atm steps=2000000
