units real
atom_style full
boundary p p p

# --- Force Field Styles ---
pair_style lj/class2/coul/long 9.5 9.5
kspace_style pppm 1e-6
dielectric 1.000000
bond_style class2
angle_style class2
dihedral_style class2
improper_style class2
special_bonds lj/coul 0 0 1
pair_modify mix sixthpower tail yes
neighbor 2.0 bin
neigh_modify delay 0 every 1 check yes
neigh_modify one 4000
package gpu 1 neigh no

read_data /home/arz2/PolyJarvis/data/PSU1/lammps/npt_production/npt_production_out.data
Reading data file ...
  orthogonal box = (4.4743805 4.4743805 4.4743805) to (52.982531 52.982531 52.982531)
  1 by 2 by 2 MPI processor grid
  reading atoms ...
  8656 atoms
  reading velocities ...
  8656 velocities
  scanning bonds ...
  4 = max bonds/atom
  scanning angles ...
  6 = max angles/atom
  scanning dihedrals ...
  30 = max dihedrals/atom
  scanning impropers ...
  4 = max impropers/atom
  orthogonal box = (4.4743805 4.4743805 4.4743805) to (52.982531 52.982531 52.982531)
  1 by 2 by 2 MPI processor grid
  reading bonds ...
  9288 bonds
  reading angles ...
  15680 angles
  reading dihedrals ...
  23344 dihedrals
  reading impropers ...
  6400 impropers
Finding 1-2 1-3 1-4 neighbors ...
  special bond factors lj:    0        0        1       
  special bond factors coul:  0        0        1       
     4 = max # of 1-2 neighbors
    10 = max # of 1-3 neighbors
    14 = max # of special neighbors
  special bonds CPU = 0.001 seconds
  read_data CPU = 0.411 seconds
include /home/arz2/PolyJarvis/data/PSU1/lammps/emc_build.params
# LAMMPS parameters created by EMC v9.4.4, build Jul 31 2025 20:33:44

# Variables

variable	seed		index	-1
variable	ntotal		index	8656
variable	fshape		index	1
variable	output		index	emc_build
variable	field		index	pcff/pcff
variable	location1	index	/home/arz2/emc/field/
variable	nav		index	0.6022141179
variable	temperature	index	300
variable	radius		index	5
variable	nrelax		index	100
variable	weight_nonbond	index	0.0001
variable	weight_bond	index	0.0001
variable	weight_focus	index	1
variable	cutoff		index	9.5
variable	charge_cutoff	index	9.5
variable	kappa		index	4
variable	density1	index	0.62
variable	lprevious	index	0
variable	lphase		index	57.4569112838
variable	f_poly		index	8
variable	chem_repeat	index	*Oc1ccc(C(C)(C)c2ccc(Oc3ccc(S(=O)(=O)c4ccc(*)cc4)cc3)cc2)cc1
variable	chem_cap	index	*[H]
variable	lg_repeat	index	54
variable	lg_cap		index	1
variable	norm_poly	index	100
variable	l_poly		index	1082
variable	mg_repeat	index	414.52744
variable	mg_cap		index	0
variable	m_poly		index	8290.5488
variable	n_poly		index	8
variable	mtotal		index	70822.20592
variable	nphase1		index	8656
variable	mphase1		index	70822.20592
variable	vphase1		index	189682.308986
variable	lbox		index	57.4569112838
variable	lphase1		index	57.4569112838
variable	lxx		index	57.4569112838
variable	lyy		index	57.4569112838
variable	lzz		index	57.4569112838
variable	lzy		index	0
variable	lzx		index	0
variable	lyx		index	0
variable	vtotal		index	189682.308986
variable	nl_poly		index	8

# Types

variable	type_c		index	1
variable	type_cp		index	2
variable	type_hc		index	3
variable	type_ho		index	4
variable	type_oe		index	5
variable	type_oc		index	6
variable	type_oh		index	7
variable	type_sf		index	8

variable	type_bond_c_c	index	1
variable	type_bond_c_cp	index	2
variable	type_bond_c_hc	index	3
variable	type_bond_cp_cp	index	4
variable	type_bond_cp_hc	index	5
variable	type_bond_cp_oc	index	6
variable	type_bond_cp_oh	index	7
variable	type_bond_cp_sf	index	8
variable	type_bond_ho_oh	index	9
variable	type_bond_oe_sf	index	10

variable	type_angle_c_c_c index	1
variable	type_angle_c_c_cp index	2
variable	type_angle_c_c_hc index	3
variable	type_angle_c_cp_cp index	4
variable	type_angle_cp_c_cp index	5
variable	type_angle_cp_cp_cp index	6
variable	type_angle_cp_cp_hc index	7
variable	type_angle_cp_cp_oc index	8
variable	type_angle_cp_cp_oh index	9
variable	type_angle_cp_cp_sf index	10
variable	type_angle_cp_oc_cp index	11
variable	type_angle_cp_oh_ho index	12
variable	type_angle_cp_sf_cp index	13
variable	type_angle_cp_sf_oe index	14
variable	type_angle_hc_c_hc index	15
variable	type_angle_oe_sf_oe index	16

# Clusters

variable	n0_poly		index	1
variable	n1_poly		index	8
variable	nl_poly		index	8

# Flags

variable	flag_charged	index	1

# Masses

mass		1    12.01115  # c
mass		2    12.01115  # cp
mass		3     1.00797  # hc
mass		4     1.00797  # ho
mass		5    15.99940  # o=
mass		6    15.99940  # oc
mass		7    15.99940  # oh
mass		8    32.06400  # sf

# Potentials

pair_modify	mix sixthpower tail yes
special_bonds	lj/coul 0 0 1

# Pair Coeffs

pair_coeff	 1  1    0.05400    4.01000  # c,c
pair_coeff	 2  2    0.06400    4.01000  # cp,cp
pair_coeff	 3  3    0.02000    2.99500  # hc,hc
pair_coeff	 4  4    0.01300    1.09800  # ho,ho
pair_coeff	 5  5    0.06000    3.53500  # o=,o=
pair_coeff	 6  6    0.24000    3.53500  # oc,oc
pair_coeff	 7  7    0.24000    3.53500  # oh,oh
pair_coeff	 8  8    0.25000    4.02700  # sf,sf

# Bond Coeffs

bond_coeff	 1    1.53000  299.67000 -501.77000  679.81000  # c,c
bond_coeff	 2    1.50100  321.90210 -521.82080  572.16280  # c,cp
bond_coeff	 3    1.10100  345.00000 -691.89000  844.60000  # c,hc
bond_coeff	 4    1.41700  470.83610 -627.61790 1327.63450  # cp,cp
bond_coeff	 5    1.09820  372.82510 -803.45260  894.31730  # cp,hc
bond_coeff	 6    1.37680  428.87980 -738.23510 1114.96550  # cp,oc
bond_coeff	 7    1.37680  428.87980 -738.23510 1114.96550  # cp,oh
bond_coeff	 8    1.72000  239.80240    0.00000    0.00000  # cp,sf
bond_coeff	 9    0.96500  532.50620 -1282.90500 2004.76580  # ho,oh
bond_coeff	10    1.43080  743.76000    0.00000    0.00000  # o=,sf

# Angle Coeffs

angle_coeff	 1  112.67000   39.51600   -7.44300   -9.55830  # c,c,c
angle_coeff	 2  108.40000   43.95940   -8.39240   -9.33790  # c,c,cp
angle_coeff	 3  110.77000   41.45300  -10.60400    5.12900  # c,c,hc
angle_coeff	 4  120.05000   44.71480  -22.73520    0.00000  # c,cp,cp
angle_coeff	 5  111.00000   44.32340   -9.44540    0.00000  # cp,c,cp
angle_coeff	 6  118.90000   61.02260  -34.99310    0.00000  # cp,cp,cp
angle_coeff	 7  117.94000   35.15580  -12.46820    0.00000  # cp,cp,hc
angle_coeff	 8  123.42000   73.67810  -21.67870    0.00000  # cp,cp,oc
angle_coeff	 9  123.42000   73.67810  -21.67870    0.00000  # cp,cp,oh
angle_coeff	10  120.00000   60.00000    0.00000    0.00000  # cp,cp,sf
angle_coeff	11  109.50000   60.00000    0.00000    0.00000  # cp,oc,cp
angle_coeff	12  108.19000   53.12500   -8.50160    0.00000  # cp,oh,ho
angle_coeff	13  102.00000   58.00000    0.00000    0.00000  # cp,sf,cp
angle_coeff	14  113.10000   42.30000    0.00000    0.00000  # cp,sf,o=
angle_coeff	15  107.66000   39.64100  -12.92100   -2.43180  # hc,c,hc
angle_coeff	16  119.32900  135.00000    0.00000    0.00000  # o=,sf,o=

# BondBond Coeffs

angle_coeff	 1 bb    0.00000    1.53000    1.53000  # c,c,c
angle_coeff	 2 bb    0.00000    1.53000    1.50100  # c,c,cp
angle_coeff	 3 bb    3.38720    1.53000    1.10100  # c,c,hc
angle_coeff	 4 bb   12.06760    1.50100    1.41700  # c,cp,cp
angle_coeff	 5 bb    0.00000    1.50100    1.50100  # cp,c,cp
angle_coeff	 6 bb   68.28560    1.41700    1.41700  # cp,cp,cp
angle_coeff	 7 bb    1.07950    1.41700    1.09820  # cp,cp,hc
angle_coeff	 8 bb   48.47540    1.41700    1.37680  # cp,cp,oc
angle_coeff	 9 bb   48.47540    1.41700    1.37680  # cp,cp,oh
angle_coeff	10 bb    0.00000    1.41700    1.72000  # cp,cp,sf
angle_coeff	11 bb    0.00000    1.37680    1.37680  # cp,oc,cp
angle_coeff	12 bb   20.65770    1.37680    0.96500  # cp,oh,ho
angle_coeff	13 bb    0.00000    1.72000    1.72000  # cp,sf,cp
angle_coeff	14 bb    0.00000    1.72000    1.43080  # cp,sf,o=
angle_coeff	15 bb    5.33160    1.10100    1.10100  # hc,c,hc
angle_coeff	16 bb   40.00000    1.43080    1.43080  # o=,sf,o=

# BondAngle Coeffs

angle_coeff	 1 ba    8.01600    8.01600    1.53000    1.53000  # c,c,c
angle_coeff	 2 ba    0.00000    0.00000    1.53000    1.50100  # c,c,cp
angle_coeff	 3 ba   20.75400   11.42100    1.53000    1.10100  # c,c,hc
angle_coeff	 4 ba   47.05790   31.07710    1.50100    1.41700  # c,cp,cp
angle_coeff	 5 ba    0.00000    0.00000    1.50100    1.50100  # cp,c,cp
angle_coeff	 6 ba   28.87080   28.87080    1.41700    1.41700  # cp,cp,cp
angle_coeff	 7 ba   20.00330   24.21830    1.41700    1.09820  # cp,cp,hc
angle_coeff	 8 ba   58.47900  107.68060    1.41700    1.37680  # cp,cp,oc
angle_coeff	 9 ba   58.47900  107.68060    1.41700    1.37680  # cp,cp,oh
angle_coeff	10 ba    0.00000    0.00000    1.41700    1.72000  # cp,cp,sf
angle_coeff	11 ba    0.00000    0.00000    1.37680    1.37680  # cp,oc,cp
angle_coeff	12 ba   53.86140   23.92240    1.37680    0.96500  # cp,oh,ho
angle_coeff	13 ba    0.00000    0.00000    1.72000    1.72000  # cp,sf,cp
angle_coeff	14 ba    0.00000    0.00000    1.72000    1.43080  # cp,sf,o=
angle_coeff	15 ba   18.10300   18.10300    1.10100    1.10100  # hc,c,hc
angle_coeff	16 ba    0.00000    0.00000    1.43080    1.43080  # o=,sf,o=

# Dihedral Coeffs

dihedral_coeff	 1    0.00000    0.00000    0.03160    0.00000   -0.16810    0.00000  # c,c,c,hc
dihedral_coeff	 2   -0.28020    0.00000   -0.06780    0.00000   -0.01220    0.00000  # c,c,cp,cp
dihedral_coeff	 3    0.00000    0.00000    4.40720    0.00000    0.00000    0.00000  # c,cp,cp,cp
dihedral_coeff	 4    0.00000    0.00000    1.55900    0.00000    0.00000    0.00000  # c,cp,cp,hc
dihedral_coeff	 5   -0.02280    0.00000    0.02800    0.00000   -0.18630    0.00000  # cp,c,c,hc
dihedral_coeff	 6   -0.28020    0.00000   -0.06780    0.00000   -0.01220    0.00000  # cp,c,cp,cp
dihedral_coeff	 7    8.36670    0.00000    1.19320    0.00000    0.00000    0.00000  # cp,cp,cp,cp
dihedral_coeff	 8    0.00000    0.00000    3.96610    0.00000    0.00000    0.00000  # cp,cp,cp,hc
dihedral_coeff	 9    0.00000    0.00000    4.84980    0.00000    0.00000    0.00000  # cp,cp,cp,oc
dihedral_coeff	10    0.00000    0.00000    4.84980    0.00000    0.00000    0.00000  # cp,cp,cp,oh
dihedral_coeff	11    0.00000    0.00000    3.00000    0.00000    0.00000    0.00000  # cp,cp,cp,sf
dihedral_coeff	12    0.00000    0.00000    1.80000    0.00000    0.00000    0.00000  # cp,cp,oc,cp
dihedral_coeff	13   -0.69000    0.00000    0.50970    0.00000    0.00950    0.00000  # cp,cp,oh,ho
dihedral_coeff	14    0.00000    0.00000    1.50000    0.00000    0.00000    0.00000  # cp,cp,sf,cp
dihedral_coeff	15    0.00000    0.00000    1.50000    0.00000    0.00000    0.00000  # cp,cp,sf,o=
dihedral_coeff	16    0.00000    0.00000    1.87690    0.00000    0.00000    0.00000  # hc,cp,cp,hc
dihedral_coeff	17    0.00000    0.00000    1.72340    0.00000    0.00000    0.00000  # hc,cp,cp,oc
dihedral_coeff	18    0.00000    0.00000    1.72340    0.00000    0.00000    0.00000  # hc,cp,cp,oh
dihedral_coeff	19    0.00000    0.00000    3.00000    0.00000    0.00000    0.00000  # hc,cp,cp,sf

# MiddleBondTorsion Coeffs

dihedral_coeff	 1 mbt  -14.87900   -3.65810   -0.31380    1.53000  # c,c,c,hc
dihedral_coeff	 2 mbt    0.00000    0.00000    0.00000    1.50100  # c,c,cp,cp
dihedral_coeff	 3 mbt    0.00000    9.17920    0.00000    1.41700  # c,cp,cp,cp
dihedral_coeff	 4 mbt    0.00000    3.94210    0.00000    1.41700  # c,cp,cp,hc
dihedral_coeff	 5 mbt    0.00000    0.00000    0.00000    1.53000  # cp,c,c,hc
dihedral_coeff	 6 mbt    0.00000    0.00000    0.00000    1.50100  # cp,c,cp,cp
dihedral_coeff	 7 mbt   27.59890   -2.31200    0.00000    1.41700  # cp,cp,cp,cp
dihedral_coeff	 8 mbt    0.00000   -1.15210    0.00000    1.41700  # cp,cp,cp,hc
dihedral_coeff	 9 mbt    0.00000    4.82550    0.00000    1.41700  # cp,cp,cp,oc
dihedral_coeff	10 mbt    0.00000    4.82550    0.00000    1.41700  # cp,cp,cp,oh
dihedral_coeff	11 mbt    0.00000    0.00000    0.00000    1.41700  # cp,cp,cp,sf
dihedral_coeff	12 mbt    0.00000    0.00000    0.00000    1.37680  # cp,cp,oc,cp
dihedral_coeff	13 mbt    1.15800    3.26970    3.51320    1.37680  # cp,cp,oh,ho
dihedral_coeff	14 mbt    0.00000    0.00000    0.00000    1.72000  # cp,cp,sf,cp
dihedral_coeff	15 mbt    0.00000    0.00000    0.00000    1.72000  # cp,cp,sf,o=
dihedral_coeff	16 mbt    0.00000    4.82280    0.00000    1.41700  # hc,cp,cp,hc
dihedral_coeff	17 mbt    0.00000    5.54320    0.00000    1.41700  # hc,cp,cp,oc
dihedral_coeff	18 mbt    0.00000    5.54320    0.00000    1.41700  # hc,cp,cp,oh
dihedral_coeff	19 mbt    0.00000    0.00000    0.00000    1.41700  # hc,cp,cp,sf

# EndBondTorsion Coeffs

dihedral_coeff	 1 ebt    0.24860    0.24220   -0.09250    0.08140    0.05910    0.22190    1.53000    1.10100  # c,c,c,hc
dihedral_coeff	 2 ebt    0.00000    0.00000    0.00000    0.00000    0.00000    0.00000    1.53000    1.41700  # c,c,cp,cp
dihedral_coeff	 3 ebt    0.00000    0.24210    0.00000    0.00000   -0.69180    0.00000    1.50100    1.41700  # c,cp,cp,cp
dihedral_coeff	 4 ebt    0.00000   -1.79700    0.00000    0.00000   -0.48790    0.00000    1.50100    1.09820  # c,cp,cp,hc
dihedral_coeff	 5 ebt    0.00000    0.00000    0.00000    0.00000    0.00000    0.00000    1.50100    1.10100  # cp,c,c,hc
dihedral_coeff	 6 ebt    0.00000    0.00000    0.00000    0.00000    0.00000    0.00000    1.50100    1.41700  # cp,c,cp,cp
dihedral_coeff	 7 ebt   -0.11850    6.32040    0.00000   -0.11850    6.32040    0.00000    1.41700    1.41700  # cp,cp,cp,cp
dihedral_coeff	 8 ebt    0.00000   -6.89580    0.00000    0.00000   -0.46690    0.00000    1.41700    1.09820  # cp,cp,cp,hc
dihedral_coeff	 9 ebt    0.00000    0.26550    0.00000    0.00000    4.89050    0.00000    1.41700    1.37680  # cp,cp,cp,oc
dihedral_coeff	10 ebt    0.00000    0.26550    0.00000    0.00000    4.89050    0.00000    1.41700    1.37680  # cp,cp,cp,oh
dihedral_coeff	11 ebt    0.00000    0.00000    0.00000    0.00000    0.00000    0.00000    1.41700    1.72000  # cp,cp,cp,sf
dihedral_coeff	12 ebt    0.00000    0.00000    0.00000    0.00000    0.00000    0.00000    1.41700    1.37680  # cp,cp,oc,cp
dihedral_coeff	13 ebt    0.90000   -1.34560    1.19000    3.41320    0.58730   -0.13230    1.41700    0.96500  # cp,cp,oh,ho
dihedral_coeff	14 ebt    0.00000    0.00000    0.00000    0.00000    0.00000    0.00000    1.41700    1.72000  # cp,cp,sf,cp
dihedral_coeff	15 ebt    0.00000    0.00000    0.00000    0.00000    0.00000    0.00000    1.41700    1.43080  # cp,cp,sf,o=
dihedral_coeff	16 ebt    0.00000   -0.68900    0.00000    0.00000   -0.68900    0.00000    1.09820    1.09820  # hc,cp,cp,hc
dihedral_coeff	17 ebt    0.00000   -1.58670    0.00000    0.00000    4.26410    0.00000    1.09820    1.37680  # hc,cp,cp,oc
dihedral_coeff	18 ebt    0.00000   -1.58670    0.00000    0.00000    4.26410    0.00000    1.09820    1.37680  # hc,cp,cp,oh
dihedral_coeff	19 ebt    0.00000    0.00000    0.00000    0.00000    0.00000    0.00000    1.09820    1.72000  # hc,cp,cp,sf

# AngleTorsion Coeffs

dihedral_coeff	 1 at   -0.24540    0.00000   -0.11360    0.31130    0.45160   -0.19880  112.67000  110.77000  # c,c,c,hc
dihedral_coeff	 2 at    0.00000    0.00000    0.00000    0.00000    0.00000    0.00000  108.40000  120.05000  # c,c,cp,cp
dihedral_coeff	 3 at    0.00000   -4.46830    0.00000    0.00000    3.89870    0.00000  120.05000  118.90000  # c,cp,cp,cp
dihedral_coeff	 4 at    0.00000   -0.12420    0.00000    0.00000    3.46010    0.00000  120.05000  117.94000  # c,cp,cp,hc
dihedral_coeff	 5 at    0.00000    0.00000    0.00000    0.00000    0.00000    0.00000  108.40000  110.77000  # cp,c,c,hc
dihedral_coeff	 6 at    0.00000    0.00000    0.00000    0.00000    0.00000    0.00000  111.00000  120.05000  # cp,c,cp,cp
dihedral_coeff	 7 at    1.97670    1.02390    0.00000    1.97670    1.02390    0.00000  118.90000  118.90000  # cp,cp,cp,cp
dihedral_coeff	 8 at    0.00000    2.50140    0.00000    0.00000    2.71470    0.00000  118.90000  117.94000  # cp,cp,cp,hc
dihedral_coeff	 9 at    0.00000   10.01550    0.00000    0.00000    1.74040    0.00000  118.90000  123.42000  # cp,cp,cp,oc
dihedral_coeff	10 at    0.00000   10.01550    0.00000    0.00000    1.74040    0.00000  118.90000  123.42000  # cp,cp,cp,oh
dihedral_coeff	11 at    0.00000    0.00000    0.00000    0.00000    0.00000    0.00000  118.90000  120.00000  # cp,cp,cp,sf
dihedral_coeff	12 at    0.00000    0.00000    0.00000    0.00000    0.00000    0.00000  123.42000  109.50000  # cp,cp,oc,cp
dihedral_coeff	13 at   -5.13600   -1.01220    0.00000    4.68520    0.02300   -0.59800  123.42000  108.19000  # cp,cp,oh,ho
dihedral_coeff	14 at    0.00000    0.00000    0.00000    0.00000    0.00000    0.00000  120.00000  102.00000  # cp,cp,sf,cp
dihedral_coeff	15 at    0.00000    0.00000    0.00000    0.00000    0.00000    0.00000  120.00000  113.10000  # cp,cp,sf,o=
dihedral_coeff	16 at    0.00000    2.45010    0.00000    0.00000    2.45010    0.00000  117.94000  117.94000  # hc,cp,cp,hc
dihedral_coeff	17 at    0.00000    1.87290    0.00000    0.00000    2.57060    0.00000  117.94000  123.42000  # hc,cp,cp,oc
dihedral_coeff	18 at    0.00000    1.87290    0.00000    0.00000    2.57060    0.00000  117.94000  123.42000  # hc,cp,cp,oh
dihedral_coeff	19 at    0.00000    0.00000    0.00000    0.00000    0.00000    0.00000  117.94000  120.00000  # hc,cp,cp,sf

# AngleAngleTorsion Coeffs

dihedral_coeff	 1 aat  -16.16400  112.67000  110.77000  # c,c,c,hc
dihedral_coeff	 2 aat    0.00000  108.40000  120.05000  # c,c,cp,cp
dihedral_coeff	 3 aat  -14.40970  120.05000  118.90000  # c,cp,cp,cp
dihedral_coeff	 4 aat    4.44440  120.05000  117.94000  # c,cp,cp,hc
dihedral_coeff	 5 aat    0.00000  108.40000  110.77000  # cp,c,c,hc
dihedral_coeff	 6 aat    0.00000  111.00000  120.05000  # cp,c,cp,cp
dihedral_coeff	 7 aat    0.00000  118.90000  118.90000  # cp,cp,cp,cp
dihedral_coeff	 8 aat   -4.81410  118.90000  117.94000  # cp,cp,cp,hc
dihedral_coeff	 9 aat  -21.02470  118.90000  123.42000  # cp,cp,cp,oc
dihedral_coeff	10 aat  -21.02470  118.90000  123.42000  # cp,cp,cp,oh
dihedral_coeff	11 aat    0.00000  118.90000  120.00000  # cp,cp,cp,sf
dihedral_coeff	12 aat    0.00000  123.42000  109.50000  # cp,cp,oc,cp
dihedral_coeff	13 aat   -4.60720  123.42000  108.19000  # cp,cp,oh,ho
dihedral_coeff	14 aat    0.00000  120.00000  102.00000  # cp,cp,sf,cp
dihedral_coeff	15 aat    0.00000  120.00000  113.10000  # cp,cp,sf,o=
dihedral_coeff	16 aat    0.35980  117.94000  117.94000  # hc,cp,cp,hc
dihedral_coeff	17 aat    4.22960  117.94000  123.42000  # hc,cp,cp,oc
dihedral_coeff	18 aat    4.22960  117.94000  123.42000  # hc,cp,cp,oh
dihedral_coeff	19 aat    0.00000  117.94000  120.00000  # hc,cp,cp,sf

# BondBond13 Coeffs

dihedral_coeff	 1 bb13    0.00000    1.53000    1.10100  # c,c,c,hc
dihedral_coeff	 2 bb13    0.00000    1.53000    1.41700  # c,c,cp,cp
dihedral_coeff	 3 bb13    2.50850    1.50100    1.41700  # c,cp,cp,cp
dihedral_coeff	 4 bb13    0.87430    1.50100    1.09820  # c,cp,cp,hc
dihedral_coeff	 5 bb13    0.00000    1.50100    1.10100  # cp,c,c,hc
dihedral_coeff	 6 bb13    0.00000    1.50100    1.41700  # cp,c,cp,cp
dihedral_coeff	 7 bb13   53.00000    1.41700    1.41700  # cp,cp,cp,cp
dihedral_coeff	 8 bb13   -6.27410    1.41700    1.09820  # cp,cp,cp,hc
dihedral_coeff	 9 bb13   -2.24360    1.41700    1.37680  # cp,cp,cp,oc
dihedral_coeff	10 bb13   -2.24360    1.41700    1.37680  # cp,cp,cp,oh
dihedral_coeff	11 bb13    0.00000    1.41700    1.72000  # cp,cp,cp,sf
dihedral_coeff	12 bb13    0.00000    1.41700    1.37680  # cp,cp,oc,cp
dihedral_coeff	13 bb13    1.15900    1.41700    0.96500  # cp,cp,oh,ho
dihedral_coeff	14 bb13    0.00000    1.41700    1.72000  # cp,cp,sf,cp
dihedral_coeff	15 bb13    0.00000    1.41700    1.43080  # cp,cp,sf,o=
dihedral_coeff	16 bb13   -1.70770    1.09820    1.09820  # hc,cp,cp,hc
dihedral_coeff	17 bb13    2.05170    1.09820    1.37680  # hc,cp,cp,oc
dihedral_coeff	18 bb13    2.05170    1.09820    1.37680  # hc,cp,cp,oh
dihedral_coeff	19 bb13    0.00000    1.09820    1.72000  # hc,cp,cp,sf

# Improper Coeffs

improper_coeff	 1    0.00000    0.00000  # c,c,c,cp
improper_coeff	 2    0.00000    0.00000  # c,c,cp,cp
improper_coeff	 3    0.00000    0.00000  # c,c,hc,hc
improper_coeff	 4    0.00000    0.00000  # c,hc,hc,hc
improper_coeff	 5    7.81530    0.00000  # cp,c,cp,cp
improper_coeff	 6    4.89120    0.00000  # cp,cp,cp,hc
improper_coeff	 7   13.04210    0.00000  # cp,cp,cp,oc
improper_coeff	 8   13.04210    0.00000  # cp,cp,cp,oh
improper_coeff	 9    0.00000    0.00000  # cp,cp,cp,sf
improper_coeff	10    0.00000    0.00000  # sf,cp,cp,o=
improper_coeff	11    0.00000    0.00000  # sf,cp,o=,o=

# AngleAngle Coeffs

improper_coeff	 1 aa    0.00000    0.00000    0.00000  112.67000  108.40000  108.40000  # c,c,c,cp
improper_coeff	 2 aa    0.00000    0.00000    0.00000  108.40000  108.40000  111.00000  # c,c,cp,cp
improper_coeff	 3 aa    0.27380   -0.48250    0.27380  110.77000  110.77000  107.66000  # c,c,hc,hc
improper_coeff	 4 aa   -0.31570   -0.31570   -0.31570  107.66000  107.66000  107.66000  # c,hc,hc,hc
improper_coeff	 5 aa    0.00000    0.00000    0.00000  120.05000  120.05000  118.90000  # cp,c,cp,cp
improper_coeff	 6 aa    0.00000    0.00000    0.00000  118.90000  117.94000  117.94000  # cp,cp,cp,hc
improper_coeff	 7 aa    0.00000    0.00000    0.00000  118.90000  123.42000  123.42000  # cp,cp,cp,oc
improper_coeff	 8 aa    0.00000    0.00000    0.00000  118.90000  123.42000  123.42000  # cp,cp,cp,oh
improper_coeff	 9 aa    0.00000    0.00000    0.00000  118.90000  120.00000  120.00000  # cp,cp,cp,sf
improper_coeff	10 aa    0.00000    0.00000    0.00000  102.00000  113.10000  113.10000  # sf,cp,cp,o=
improper_coeff	11 aa    0.00000    0.00000    0.00000  113.10000  113.10000  119.32900  # sf,cp,o=,o=


# --- Thermo Output ---
thermo_style custom step time temp press enthalpy etotal ke pe ebond eangle edihed eimp evdwl ecoul elong etail vol lx ly lz density pxx pyy pzz
thermo_modify flush yes
thermo 1000

# --- Trajectory ---
dump dump_npt all custom 1000 npt_cool300.dump id type mol x y z ix iy iz vx vy vz

# --- Restart Checkpointing ---
# No restart checkpointing

# --- Initial Velocities (optional) ---
# Velocities read from data file

# --- SHAKE Constraints ---
# SHAKE disabled

# --- NPT Thermostat + Barostat (Nose-Hoover) ---
# T_damp = 100.0 fs  (heat bath coupling)
# P_damp = 1000.0 fs  (pressure bath coupling, ~10x T_damp typical)
# Ramp: T=700.0->300.0K  P=1.0->1.0atm
timestep 1.0
fix npt_fix all npt temp 700.0 300.0 100.0 iso 1.0 1.0 1000.0

run 1000000

CITE-CITE-CITE-CITE-CITE-CITE-CITE-CITE-CITE-CITE-CITE-CITE-CITE

Your simulation uses code contributions which should be cited:

- GPU package (short-range, long-range and three-body potentials): doi:10.1016/j.cpc.2010.12.021, doi:10.1016/j.cpc.2011.10.012, doi:10.1016/j.cpc.2013.08.002, doi:10.1016/j.commatsci.2014.10.068, doi:10.1016/j.cpc.2016.10.020, doi:10.3233/APC200086

@Article{Brown11,
 author = {W. M. Brown and P. Wang and S. J. Plimpton and A. N. Tharrington},
 title = {Implementing Molecular Dynamics on Hybrid High Performance Computers---Short Range Forces},
 journal = {Comput.\ Phys.\ Commun.},
 year =    2011,
 volume =  182,
 pages =   {898--911},
 doi =     {10.1016/j.cpc.2010.12.021}
}

@Article{Brown12,
 author = {W. M. Brown and A. Kohlmeyer and S. J. Plimpton and A. N. Tharrington},
 title = {Implementing Molecular Dynamics on Hybrid High Performance Computers - Particle-Particle Particle-Mesh},
 journal = {Comput.\ Phys.\ Commun.},
 year =    2012,
 volume =  183,
 doi =     {10.1016/j.cpc.2011.10.012},
 pages =   {449--459}
}

@Article{Brown13,
 author = {W. M. Brown and Y. Masako},
 title = {Implementing Molecular Dynamics on Hybrid High Performance Computers---Three-Body Potentials},
 journal = {Comput.\ Phys.\ Commun.},
 year =    2013,
 volume =  184,
 pages =   {2785--2793},
 doi =     {10.1016/j.cpc.2013.08.002},
}

@Article{Trung15,
 author = {T. D. Nguyen and S. J. Plimpton},
 title = {Accelerating Dissipative Particle Dynamics Simulations for Soft Matter Systems},
 journal = {Comput.\ Mater.\ Sci.},
 year =    2015,
 doi =     {10.1016/j.commatsci.2014.10.068},
 volume =  100,
 pages =   {173--180}
}

@Article{Trung17,
 author = {T. D. Nguyen},
 title = {{GPU}-Accelerated {T}ersoff Potentials for Massively Parallel
    Molecular Dynamics Simulations},
 journal = {Comput.\ Phys.\ Commun.},
 year =    2017,
 doi =     {10.1016/j.cpc.2016.10.020},
 volume =  212,
 pages =   {113--122}
}

@inproceedings{Nikolskiy19,
 author = {V. Nikolskiy and V. Stegailov},
 title = {{GPU} Acceleration of Four-Site Water Models in {LAMMPS}},
 booktitle = {Proceedings of the International Conference on Parallel
    Computing (ParCo 2019), Prague, Czech Republic},
 doi =     {10.3233/APC200086},
 year =    2019
}

CITE-CITE-CITE-CITE-CITE-CITE-CITE-CITE-CITE-CITE-CITE-CITE-CITE

PPPM initialization ...
  using 12-bit tables for long-range coulomb
  G vector (1/distance) = 0.29437042
  grid = 32 32 32
  stencil order = 5
  estimated absolute RMS force accuracy = 0.0004058009
  estimated relative force accuracy = 1.2220574e-06
  using double precision KISS FFT
  3d grid and FFT values/proc = 20631 8192
Generated 28 of 28 mixed pair_coeff terms from sixthpower/sixthpower mixing rule
Neighbor list info ...
  update: every = 1 steps, delay = 0 steps, check = yes
  max neighbors/atom: 4000, page size: 100000
  master list distance cutoff = 11.5
  ghost atom cutoff = 11.5
  binsize = 5.75, bins = 9 9 9
  1 neighbor lists, perpetual/occasional/extra = 1 0 0
  (1) pair lj/class2/coul/long/gpu, perpetual
      attributes: full, newton on
      pair build: full/bin
      stencil: full/bin/3d
      bin: standard
Per MPI rank memory allocation (min/avg/max) = 27.46 | 27.66 | 27.86 Mbytes
   Step          Time           Temp          Press         Enthalpy        TotEng         KinEng         PotEng         E_bond        E_angle        E_dihed        E_impro         E_vdwl         E_coul         E_long         E_tail         Volume           Lx             Ly             Lz          Density          Pxx            Pyy            Pzz      
         0   0              691.18543     -407.21619      40299.146      40977.014      17831.831      23145.183      7638.7026      7124.2052      5687.3587      681.47454      1189.333       6417.9499     -5593.8414     -613.15611      114141.65      48.50815       48.50815       48.50815       1.0303253      1059.6296     -1520.3068     -760.97137    
      1000   1000           699.20062      761.2352       42478.254      41207.851      18038.614      23169.236      7726.8388      7166.3944      5489.9198      690.27131      1259.943       6431.2896     -5595.4204     -611.60113      114431.85      48.549226      48.549226      48.549226      1.0277124     -1504.5978      2414.8177      1373.4857    
      2000   2000           711.1359       521.34549      42478.488      41606.943      18346.532      23260.411      7825.169       7162.6326      5592.9881      709.32553      1127.5243      6436.1737     -5593.4021     -610.55786      114627.38      48.576862      48.576862      48.576862      1.0259593      2023.1588     -371.07981     -88.042523    
      3000   3000           694.23204     -46.567199      41180.379      41258.211      17910.431      23347.78       7861.3928      7111.2835      5692.4246      718.39049      1131.9517      6427.4577     -5595.1208     -610.68204      114604.07      48.573569      48.573569      48.573569      1.026168       1044.4072     -1970.5926      786.48374    
      4000   4000           703.10328      396.06299      42139.251      41491.003      18139.299      23351.704      7917.9022      7171.3281      5651.4467      700.34933      1085.9356      6427.8034     -5603.0616     -623.61069      112228.11      48.235548      48.235548      48.235548      1.0478928     -844.8606       2054.7471     -21.697543    
      5000   5000           689.29315     -44.699448      40862.871      40937.49       17783.013      23154.478      7808.1184      7127.4497      5575.9467      745.03602      1078.9063      6417.8344     -5598.814      -611.42214      114465.35      48.553963      48.553963      48.553963      1.0274116     -367.19943     -43.515521      276.61661    
      6000   6000           691.24655      915.76805      42180.671      40679.743      17833.408      22846.334      7617.7885      7138.5686      5542.6799      690.55004      1037.0602      6420.8834     -5601.1963     -622.75416      112382.47      48.257652      48.257652      48.257652      1.0464535      1164.5391      1901.9977     -319.2327     
      7000   7000           694.21462      347.88956      41490.582      40918.009      17909.981      23008.028      7712.7324      6917.5962      5680.3137      723.04346      1137.9238      6434.6469     -5598.2286     -620.15667      112853.18      48.324933      48.324933      48.324933      1.0420888     -387.41583     -1069.6801      2500.7647    
      8000   8000           705.9401      -73.61636       41017.426      41138.738      18212.486      22926.253      7728.5033      7095.9444      5516.3982      700.82494      1057.197       6423.4325     -5596.0477     -619.38484      112993.8       48.344998      48.344998      48.344998      1.0407918     -207.88825     -204.61554      191.65471    
      9000   9000           697.74391     -169.50569      40558.13       40838.902      18001.033      22837.868      7690.4229      7054.48        5481.3281      682.91397      1119.122       6411.2781     -5601.6766     -616.20122      113577.59      48.428113      48.428113      48.428113      1.0354422     -963.66168     -782.53044      1237.6751    
     10000   10000          690.4003       1242.9125      43165.905      41119.487      17811.576      23307.911      7745.5424      7231.7489      5577.4625      723.40196      1178.4592      6442.2403     -5590.9439     -619.92252      112895.8       48.331017      48.331017      48.331017      1.0416953      201.16625     -259.76626      3787.3375    
     11000   11000          705.59562     -381.78298      40466.105      41092.142      18203.598      22888.544      7578.7643      6944.9248      5740.0357      711.54141      1050.6891      6453.759      -5591.1706     -622.45474      112436.53      48.265389      48.265389      48.265389      1.0459504     -840.53976      74.571387     -379.38057    
     12000   12000          700.85988      200.34692      41236.064      40905.196      18081.422      22823.774      7541.1429      7119.7433      5566.4839      715.44548      1038.1809      6442.2842     -5599.5064     -618.04415      113238.92      48.37993       48.37993       48.37993       1.038539       282.01025      428.23775     -109.20723    
     13000   13000          696.21888     -685.42054      39900.259      41021.404      17961.689      23059.715      7648.6437      7219.806       5572.1937      702.18777      1096.8372      6420.752      -5600.7054     -624.0027       112157.61      48.225445      48.225445      48.225445      1.0485515     -234.45889     -1995.1115      173.3088     
     14000   14000          695.08934      29.828375      41286.035      41236.242      17932.548      23303.694      7961.4209      7086.6324      5588.6195      725.46349      1094.0709      6440.3294     -5592.8429     -611.43254      114463.4       48.553688      48.553688      48.553688      1.0274291      2329.8277     -1207.5631     -1032.7794    
     15000   15000          687.78437      394.01722      41673.585      41013.034      17744.088      23268.946      7838.2846      7142.1283      5602.9212      695.89998      1144.8292      6434.0709     -5589.1881     -608.83503      114951.75      48.622639      48.622639      48.622639      1.0230643      1496.7452      1122.6383     -1437.3318    
     16000   16000          699.73661      893.17934      42578.965      41093.989      18052.443      23041.546      7760.4468      7156.685       5346.693       689.01994      1252.9354      6432.1393     -5596.373      -613.91801      113999.99      48.488075      48.488075      48.488075      1.0316056      183.27892      1052.0179      1444.2412    
     17000   17000          704.81855     -575.25017      39974.387      40930.266      18183.551      22746.715      7498.0892      7117.9594      5530.3493      674.26838      1074.6502      6448.7381     -5597.3398     -614.25013      113938.35      48.479334      48.479334      48.479334      1.0321637     -634.60121     -2903.5821      1812.4328    
     18000   18000          681.53403     -1390.6041      38064.175      40354.936      17582.836      22772.1        7625.1071      7029.5673      5542.7181      689.83583      1063.5441      6418.8868     -5597.5594     -619.60497      112953.66      48.339272      48.339272      48.339272      1.0411617     -2172.3364     -1156.2169     -843.25879    
     19000   19000          700.23231     -145.30728      40653.054      40892.613      18065.231      22827.382      7597.9405      7110.5577      5526.8114      685.09875      1106.2853      6402.3556     -5601.6669     -619.1075       113044.42      48.352216      48.352216      48.352216      1.0403258     -228.12193     -382.15135      174.35145    
     20000   20000          687.67157     -1730.9841      37861.221      40702.65       17741.178      22961.472      7655.6542      7092.4847      5591.8762      687.90995      1102.024       6427.6906     -5596.1678     -621.79539      112555.76      48.282443      48.282443      48.282443      1.0448424     -1863.982       22.126376     -3351.0968    
     21000   21000          700.53708     -171.4163       40678.479      40961.305      18073.094      22888.211      7733.2971      7052.4253      5573.183       714.69423      978.2951       6431.4946     -5595.1781     -618.61911      113133.67      48.364937      48.364937      48.364937      1.0395051     -1514.2749      963.35961      36.6664      
     22000   22000          684.31223     -168.88973      40227.961      40506.381      17654.51       22851.87       7696.065       6919.5202      5617.0503      693.34768      1100.2228      6426.2869     -5600.6227     -619.14804      113037.02      48.35116       48.35116       48.35116       1.0403939     -200.59093      184.1074      -490.18564    
     23000   23000          688.50272      1093.147       42113.565      40312.455      17762.62       22549.835      7586.0811      6836.479       5409.6344      687.08059      1189.6957      6437.2147     -5596.3507     -619.48308      112975.89      48.342442      48.342442      48.342442      1.0409569      2574.0435      350.37694      355.02053    
     24000   24000          689.84241     -150.36467      40203.767      40447.55       17797.183      22650.367      7649.4825      7049.945       5494.0226      666.36007      964.14577      6429.7085     -5603.2978     -629.55449      111168.53      48.083266      48.083266      48.083266      1.0578805      1177.4906     -1675.8432      47.258526    
     25000   25000          696.57508      775.66363      42378.497      41107.747      17970.878      23136.868      7965.7292      7031.0581      5508.1553      687.8826       1113.7398      6428.9757     -5598.6726     -623.02316      112333.95      48.250706      48.250706      48.250706      1.0469055      1184.8969      1474.5334     -332.43949    
     26000   26000          689.24903     -26.522183      40458.834      40502.107      17781.874      22720.233      7673.8639      7115.2909      5452.7514      659.59275      986.42903      6434.6096     -5602.3049     -625.57927      111874.95      48.184899      48.184899      48.184899      1.0512007     -241.94493     -1108.3948      1270.7731    
     27000   27000          684.80524      987.71249      41878.888      40271.967      17667.229      22604.738      7640.4055      7015.5718      5426.0367      711.99617      979.11839      6432.0707     -5600.4616     -627.37498      111554.73      48.138882      48.138882      48.138882      1.0542182      1185.6485      1439.0457      338.44325    
     28000   28000          684.91196     -1067.7859      38702.136      40460.391      17669.983      22790.408      7690.0632      6996.152       5620.6655      692.22426      980.60282      6414.7471     -5604.0469     -619.86         112907.19      48.332641      48.332641      48.332641      1.0415903     -2012.5786     -1536.9716      346.19255    
     29000   29000          695.07439     -1071.9823      39228.512      40989.941      17932.162      23057.779      7850.549       6964.8737      5681.2896      699.929        1036.8513      6424.1239     -5599.8373     -621.17421      112668.31      48.298532      48.298532      48.298532      1.0437986     -698.31445     -2537.7118      20.079284    
     30000   30000          683.47877      534.05602      41257.8        40377.092      17633.008      22744.084      7642.4125      6980.4226      5509.3085      671.80713      1094.6933      6440.8326     -5595.3923     -618.93619      113075.71      48.356676      48.356676      48.356676      1.0400379      405.74343      854.86379      341.56084    
     31000   31000          678.39585     -355.40892      39512.348      40097.291      17501.874      22595.416      7470.9383      7032.7959      5465.6725      680.35636      1117.8431      6429.1889     -5601.3785     -620.1637       112851.9       48.32475       48.32475       48.32475       1.0421006     -723.02722      782.15924     -1125.3588    
     32000   32000          688.68583     -124.56173      40411.232      40616.875      17767.345      22849.531      7550.7347      7174.0428      5523.563       685.98194      1090.1633      6424.869      -5599.8238     -618.24642      113201.87      48.374653      48.374653      48.374653      1.0388789     -86.956941      211.265       -497.99324    
     33000   33000          690.91935      358.01402      40929.568      40339.808      17824.967      22514.841      7639.1977      6846.5924      5447.1847      694.09048      1061.2746      6424.1259     -5597.6248     -619.60639      112953.4       48.339235      48.339235      48.339235      1.0411641     -505.8656       436.44398      1143.4637    
     34000   34000          675.86662     -809.89867      38657.056      39989.802      17436.623      22553.179      7589.7007      6886.4777      5465.4988      671.41744      1116.2211      6425.4169     -5601.5535     -620.26095      112834.2       48.322225      48.322225      48.322225      1.042264      -584.03265      62.028451     -1907.6918    
     35000   35000          686.43042      795.62025      41593.943      40287.554      17709.157      22578.397      7598.0614      6908.3039      5463.2698      711.30612      1074.9817      6424.8691     -5602.3952     -621.61907      112587.68      48.287008      48.287008      48.287008      1.0445461      809.69786      99.670393      1477.4925    
     36000   36000          694.5943       174.0118       41112.448      40822.605      17919.776      22902.828      7615.9363      7115.0869      5507.5582      684.287        1152.2638      6430.4339     -5602.7379     -612.78179      114211.37      48.518026      48.518026      48.518026      1.0296963      469.11816     -526.37436      579.29158    
     37000   37000          684.74745      1538.4976      42760.827      40246.654      17665.739      22580.916      7529.2422      6941.9483      5478.7699      699.27593      1115.3439      6421.0353     -5604.6999     -624.58678      112052.72      48.210408      48.210408      48.210408      1.049533       1454.9532      1627.8634      1532.6763    
     38000   38000          682.72783      1505.311       42717.755      40250.811      17613.634      22637.177      7527.5083      7031.1477      5519.5926      696.90749      1013.8034      6444.5212     -5596.3038     -622.81357      112371.75      48.256118      48.256118      48.256118      1.0465533      1495.5476      1815.2358      1205.1497    
     39000   39000          680.50423      374.31392      41059.153      40436.659      17556.268      22880.391      7829.9774      6979.2419      5438.767       693.53721      1131.3606      6410.7444     -5603.2374     -613.75084      114031.05      48.492477      48.492477      48.492477      1.0313247     -327.32553      2209.9608     -759.6935     
     40000   40000          685.92095      1344.6089      42387.921      40178.48       17696.014      22482.466      7515.3661      7011.7845      5310.2084      652.68542      1167.2638      6422.7805     -5597.6225     -621.16173      112670.58      48.298855      48.298855      48.298855      1.0437777      1448.8878      1112.337       1472.6019    
     41000   41000          674.599       -1021.8273      38695.723      40370.507      17403.92       22966.588      7776.2302      7158.0912      5549.4029      695.48906      955.03905      6428.7535     -5596.4181     -622.74417      112384.27      48.25791       48.25791       48.25791       1.0464367     -2577.3162     -871.26205      383.09642    
     42000   42000          673.02942     -3.2814751      40036.929      40042.321      17363.426      22678.895      7731.7066      7101.6855      5409.2933      655.03596      934.20166      6447.6148     -5600.643      -621.20015      112663.61      48.297859      48.297859      48.297859      1.0438422      789.49973      533.17802     -1332.5222    
     43000   43000          696.10688     -183.19914      40136.474      40435.405      17958.799      22476.605      7535.3749      6965.3179      5505.7831      679.68801      966.84332      6426.4248     -5602.8268     -625.52368      111884.89      48.186326      48.186326      48.186326      1.0511073      483.93704     -502.88888     -530.64557    
     44000   44000          684.7618       817.5126       41510.456      40170.288      17666.109      22504.179      7663.6024      7051.5716      5335.0716      669.78777      962.679        6426.2392     -5604.7727     -622.62426      112405.92      48.261008      48.261008      48.261008      1.0462352     -348.33384      1616.1878      1184.6839    
     45000   45000          679.98843      995.73316      41702.025      40093.55       17542.961      22550.589      7588.7342      6965.61        5506.647       663.30805      1003.7165      6423.1703     -5600.5968     -631.8585       110763.17      48.024751      48.024751      48.024751      1.0617521      1036.8143      252.70728      1697.6779    
     46000   46000          684.75929      930.05517      41962.294      40439.245      17666.044      22773.202      7683.0329      7025.376       5433.012       699.28643      1114.5138      6420.2392     -5602.2587     -623.28417      112286.9       48.24397       48.24397       48.24397       1.0473441     -78.329419      3172.8572     -304.36225    
     47000   47000          678.23637     -1385.5408      37814.369      40050.456      17497.76       22552.696      7562.099       6977.2577      5669.2856      691.12504      814.38006      6443.3552     -5604.8062     -632.44353      110660.71      48.009939      48.009939      48.009939      1.0627352     -2795.8135     -104.15243     -1256.6565    
     48000   48000          679.54209      361.82769      40685.968      40095.195      17531.446      22563.75       7709.1343      7115.543       5381.6521      654.28521      872.19274      6435.8407     -5604.8985     -625.13356      111954.72      48.196348      48.196348      48.196348      1.0504518      1186.1414      69.348244     -170.00654    
     49000   49000          670.85062     -1566.9137      37219.95       39760.534      17307.215      22453.318      7532.8267      7029.8542      5562.4976      664.09722      827.73179      6435.3936     -5599.0829     -629.50997      111176.4       48.084399      48.084399      48.084399      1.0578057     -936.59969     -1904.2712     -1859.8702    
     50000   50000          687.02125      341.48854      40647.306      40089.994      17724.4        22365.593      7543.9174      7064.3723      5286.8812      653.85886      1014.7138      6411.148      -5609.2983     -625.41505      111904.33      48.189116      48.189116      48.189116      1.0509248      2041.9715     -1230.5453      213.03945    
     51000   51000          679.08099     -197.99724      39929.513      40250.976      17519.55       22731.426      7793.2003      7069.1944      5474.9755      676.10739      919.68718      6405.9471     -5607.6855     -628.66489      111325.84      48.105936      48.105936      48.105936      1.0563857     -1711.8869      1110.9916      6.9036305    
     52000   52000          673.35539     -1048.5066      38309.339      40013.811      17371.836      22641.975      7694.7436      6878.725       5571.4509      688.93735      988.35704      6419.1112     -5599.3504     -627.87395      111466.08      48.126127      48.126127      48.126127      1.0550566     -1345.921      -814.64285     -984.956      
     53000   53000          667.93001      318.15295      40049.067      39535.017      17231.867      22303.15       7586.1026      6979.6465      5334.8774      661.85424      916.93972      6427.1621     -5603.4326     -631.71511      110788.31      48.028385      48.028385      48.028385      1.0615112     -336.04162      145.12239      1145.3781    
     54000   54000          677.13221     -953.62991      38460.222      40021.038      17469.274      22551.764      7420.3216      7028.2582      5534.1182      690.52854      1049.4517      6434.6078     -5605.5216     -623.61883      112226.65      48.235338      48.235338      48.235338      1.0479065     -1117.5905      201.23774     -1944.537     
     55000   55000          670.46864     -109.55925      39463.819      39641.364      17297.361      22344.003      7663.9829      6849.9213      5346.1885      651.19484      1016.3243      6421.0673     -5604.6762     -629.84368      111117.49      48.075906      48.075906      48.075906      1.0583665     -277.17407      233.70786     -285.21154    
     56000   56000          685.45532     -538.89631      39295.636      40174.659      17684.001      22490.658      7579.3593      6959.4974      5538.4354      673.95933      927.11891      6417.4933     -5605.2055     -625.74312      111845.66      48.180693      48.180693      48.180693      1.0514761      3.8122492     -633.01221     -987.48896    
     57000   57000          671.97366     -788.18962      38432.639      39721.846      17336.189      22385.657      7507.6603      6732.2037      5587.7636      692.21636      1040.9263      6424.4682     -5599.581      -624.02085      112154.35      48.224978      48.224978      48.224978      1.048582      -634.27922      355.4957      -2085.7853    
     58000   58000          676.50609     -1160.6653      37696.422      39583.56       17453.12       22130.44       7629.9214      6804.5989      5314.097       668.25394      909.19498      6407.4924     -5603.1187     -627.76092      111486.15      48.129015      48.129015      48.129015      1.0548667     -1468.7218     -1989.5002     -23.77394     
     59000   59000          674.52172     -322.90292      39187.223      39714.242      17401.926      22312.316      7579.0995      6823.7661      5441.3552      661.6131       980.99718      6426.8484     -5601.3639     -625.37061      111912.28      48.190257      48.190257      48.190257      1.0508501     -636.44337     -469.87734      137.61194    
     60000   60000          679.41784      2799.2675      44661.573      40140.863      17528.24       22612.623      7752.9456      7182.9712      5238.1294      673.97253      935.275        6430.7559     -5601.4269     -632.01712      110735.37      48.020733      48.020733      48.020733      1.0620187      2936.5841      2880.6365      2580.5819    
     61000   61000          680.86486     -452.84486      39196.617      39933.757      17565.572      22368.185      7760.6047      6809.812       5454.4989      677.41931      822.15122      6448.0848     -5604.3861     -627.03368      111615.46      48.147615      48.147615      48.147615      1.0536447     -749.63231      160.14087     -769.04314    
     62000   62000          673.36542     -32.428312      39907.245      39959.48       17372.095      22587.386      7663.1447      7173.3898      5335.6305      677.26509      919.98683      6423.85       -5605.8811     -633.65419      110449.28      47.979343      47.979343      47.979343      1.0647695      1815.198      -792.44622     -1120.0367    
     63000   63000          675.12899     -50.180958      39571.633      39652.973      17417.593      22235.38       7378.8419      6951.3257      5544.5094      709.6534       819.83413      6431.3815     -5600.1657     -629.69051      111144.52      48.079804      48.079804      48.079804      1.0581091      92.111091     -1264.4038      1021.7498    
     64000   64000          684.14263      1130.0565      41650.219      39826.766      17650.135      22176.631      7605.0718      6934.3688      5248.1028      674.08807      892.5412       6425.7192     -5603.2608     -632.55276      110641.6       48.007175      48.007175      48.007175      1.0629187      2481.1315     -298.408        1207.4458    
     65000   65000          690.55159     -288.03727      39831.198      40295.626      17815.479      22480.146      7666.6898      6947.3999      5453.0912      702.8163       896.1657       6422.2042     -5608.2206     -633.02588      110558.91      47.995212      47.995212      47.995212      1.0637137     -77.316501     -972.73447      185.93916    
     66000   66000          677.97194     -1275.0335      37448.825      39490.812      17490.938      21999.874      7572.543       6802.1731      5320.8689      671.87651      809.79083      6427.5596     -5604.9375     -637.32337      109813.41      47.887091      47.887091      47.887091      1.0709351     -946.63242     -715.80294     -2162.6652    
     67000   67000          674.3214       517.78852      40463.827      39624.649      17396.758      22227.891      7343.8133      7020.567       5390.1216      656.20224      966.5898       6449.5576     -5598.9604     -629.78057      111128.63      48.077512      48.077512      48.077512      1.0582604      1050.216      -774.65974      1277.8093    
     68000   68000          672.04984     -145.45202      39078.614      39312.183      17338.154      21974.029      7411.6359      6843.0176      5321.8113      662.75224      912.54903      6425.6007     -5603.338      -635.61767      110108.09      47.929888      47.929888      47.929888      1.0680689     -951.02632      1073.3495     -558.67925    
     69000   69000          682.34769     -1274.1365      37769.249      39825.218      17603.827      22221.39       7599.8147      6907.7031      5362.4328      655.9123       885.48561      6415.2718     -5605.23       -632.54364      110643.2       48.007406      48.007406      48.007406      1.0629034     -3431.8905     -486.93657      96.417501    
     70000   70000          666.63579      31.105693      39423.593      39373.482      17198.477      22175.005      7599.6423      6913.4908      5277.8275      645.62731      916.41263      6424.9889     -5602.9845     -633.58277      110461.73      47.981146      47.981146      47.981146      1.0646495      1660.0338     -433.72505     -1132.9917    
     71000   71000          677.17561     -518.19114      39024.203      39857.288      17470.393      22386.895      7536.9322      7008.376       5388.5117      667.02324      939.484        6444.5089     -5597.9414     -634.88004      110236.02      47.948443      47.948443      47.948443      1.0668294     -387.81701      76.796728     -1243.5532    
     72000   72000          674.67472     -373.57677      38795.017      39394.398      17405.873      21988.525      7501.6433      6862.4275      5244.829       647.69381      903.88364      6431.7654     -5603.7179     -636.16264      110013.77      47.916198      47.916198      47.916198      1.0689846      1444.6939     -1643.8134     -921.61089    
     73000   73000          677.16414     -96.937454      39470.218      39628.059      17470.097      22157.962      7467.8422      7000.696       5273.0309      685.52676      909.09716      6420.5001     -5598.7313     -626.84775      111648.56      48.152375      48.152375      48.152375      1.0533322     -920.39567     -93.363006      722.94631    
     74000   74000          667.32247      479.94575      40147.636      39374.822      17216.193      22158.629      7543.5884      6962.2732      5210.0059      653.606        964.82657      6428.9175     -5604.5887     -633.88117      110409.73      47.973616      47.973616      47.973616      1.0651509      1073.9771      385.57428     -19.71418     
     75000   75000          659.10183     -1670.8391      36669.799      39394.804      17004.109      22390.695      7632.2284      6830.8912      5451.7261      653.26119      966.79016      6450.9433     -5595.1452     -625.83275      111829.64      48.178393      48.178393      48.178393      1.0516267     -2562.8418     -25.322375     -2424.3531    
     76000   76000          674.36693      1812.4329      42490.018      39566.452      17397.932      22168.519      7563.4715      6921.0083      5213.7098      658.91012      970.2856       6443.2715     -5602.1373     -632.76159      110605.09      48.001893      48.001893      48.001893      1.0632696      2504.2087      519.97547      2413.1144    
     77000   77000          670.17205      338.60392      39872.456      39329.401      17289.709      22039.692      7427.8489      6922.4596      5341.8583      657.33477      862.54984      6430.939      -5603.2985     -636.41331      109970.44      47.909906      47.909906      47.909906      1.0694059      1443.1366     -20.623561     -406.70128    
     78000   78000          672.69622      524.03934      40170.976      39326.212      17354.83       21971.382      7388.6895      7005.829       5279.5375      647.86241      821.20392      6433.2657     -5605.0063     -633.16876      110533.96      47.991601      47.991601      47.991601      1.0639538     -867.7242       348.05438      2091.7878    
     79000   79000          669.11881     -1144.239       37678.112      39509.736      17262.537      22247.2        7488.5573      6840.3129      5543.8877      659.03053      870.26794      6444.4556     -5599.3124     -637.63387      109759.93      47.879316      47.879316      47.879316      1.0714568     -1122.7412     -301.2563      -2008.7196    
     80000   80000          667.33399      423.64095      40172.698      39483.826      17216.49       22267.335      7511.5551      6844.4535      5387.4617      689.72775      1005.8124      6431.1109     -5602.7859     -627.69683      111497.54      48.130653      48.130653      48.130653      1.054759       670.30935      146.04313      454.57037    
     81000   81000          671.66866      1508.2616      42058.558      39607.768      17328.32       22279.448      7533.2577      6793.1062      5403.4029      687.52462      1043.3931      6418.1572     -5599.3935     -628.1477       111417.51      48.119135      48.119135      48.119135      1.0555166      790.01585      2394.4759      1340.2931    
     82000   82000          673.50743     -2052.2626      35886.783      39239.553      17375.758      21863.794      7355.5538      6888.5824      5259.2496      651.14143      877.21877      6429.3846     -5597.3365     -624.77018      112019.83      48.20569       48.20569       48.20569       1.0498412     -2988.1559     -505.83064     -2662.8014    
     83000   83000          660.44549     -937.92616      37617.359      39137.159      17038.774      22098.385      7498.5179      6775.5682      5374.4308      661.54522      963.95639      6423.0943     -5598.7283     -629.90228      111107.15      48.074415      48.074415      48.074415      1.058465      -1734.4546     -628.39101     -450.93284    
     84000   84000          675.33146      539.81523      40242.064      39372.24       17422.816      21949.424      7270.2609      7017.4571      5245.9708      644.92085      915.84322      6447.7438     -5592.773      -633.43914      110486.78      47.984772      47.984772      47.984772      1.0644082      1017.0375     -623.38042      1225.7886    
     85000   85000          659.00725      273.2662       39532.681      39085.168      17001.669      22083.499      7387.4166      6775.117       5368.9156      689.18558      1026.5867      6432.6579     -5596.3808     -623.26253      112290.8       48.244528      48.244528      48.244528      1.0473078      1167.0737     -1509.2535      1161.9783    
     86000   86000          677.04496      50.360726      39792.91       39711.801      17467.023      22244.778      7508.2963      6928.9903      5349.1806      649.30865      988.13933      6422.8629     -5602.0002     -633.74293      110433.82      47.977104      47.977104      47.977104      1.0649186     -270.25911     -275.76797      697.10925    
     87000   87000          664.21239     -263.2432       38711.448      39138.577      17135.956      22002.62       7494.6349      6878.3501      5289.7324      654.18462      871.21853      6422.8335     -5608.3337     -629.05637      111256.56      48.095954      48.095954      48.095954      1.0570435     -1043.6018     -121.09318      374.96534    
     88000   88000          668.60467     -1783.1001      36639.678      39517.047      17249.272      22267.775      7568.9765      6824.4708      5498.9866      652.63907      906.58153      6420.3025     -5604.182      -632.51547      110648.12      48.008118      48.008118      48.008118      1.0628561     -2127.0033     -2194.0913     -1028.2057    
     89000   89000          670.0379      -1317.9628      37147.477      39278.968      17286.248      21992.719      7278.5262      6953.5174      5401.0123      673.67762      862.874        6422.3595     -5599.2476     -631.11846      110893.05      48.043515      48.043515      48.043515      1.0605086     -2518.7684     -1245.7182     -189.40167    
     90000   90000          667.4016      -270.77163      38915.973      39350.367      17218.234      22132.132      7459.1522      6844.3797      5490.3049      665.65212      828.9309       6443.5454     -5599.8329     -636.22426      110003.11      47.914651      47.914651      47.914651      1.0690882      502.84864     -1464.0831      148.91952    
     91000   91000          661.00212     -1015.2644      37403.44       39074.011      17053.135      22020.876      7381.3462      6882.4973      5322.2505      645.88936      939.51124      6442.3986     -5593.0172     -620.30499      112826.19      48.321081      48.321081      48.321081      1.042338      -1681.5504     -771.22143     -593.02129    
     92000   92000          666.44385     -404.53043      38520.342      39174.584      17193.526      21981.059      7446.5743      6800.3958      5338.1716      660.78652      909.75628      6422.5907     -5597.2165     -631.10765      110894.95      48.043789      48.043789      48.043789      1.0604904     -1945.0154      993.82833     -262.40422    
     93000   93000          652.39569     -536.59567      38012.542      38886.171      16831.098      22055.073      7389.3802      6946.5611      5306.5573      651.42639      944.89719      6415.0766     -5598.8262     -626.91862      111635.94      48.15056       48.15056       48.15056       1.0534513     -376.92566     -1512.5388      279.67749    
     94000   94000          654.35962      517.00275      39882.223      39046.293      16881.766      22164.528      7440.9082      6886.0616      5358.0546      677.42325      994.73251      6417.0487     -5609.7013     -631.26825      110866.74      48.039715      48.039715      48.039715      1.0607603     -608.7568       1395.479       764.28601    
     95000   95000          659.41933      1158.1013      40860.851      38968.841      17012.301      21956.54       7473.2155      6737.8126      5245.9306      648.99489      1029.5563      6421.9044     -5600.874      -624.76137      112021.41      48.205917      48.205917      48.205917      1.0498264      1140.6987      1063.7216      1269.8836    
     96000   96000          664.01872      1446.3165      41335.377      39004.968      17130.96       21874.008      7287.2957      6709.0309      5449.4472      656.02489      967.14317      6412.4403     -5607.3741     -633.4646       110482.34      47.984129      47.984129      47.984129      1.064451       454.01161      883.28971      3001.6482    
     97000   97000          667.3354      -615.43863      38372.718      39366.791      17216.527      22150.264      7304.906       7046.9057      5389.1486      676.98809      917.72371      6412.2273     -5597.6351     -631.91337      110753.55      48.023361      48.023361      48.023361      1.0618443     -801.39154     -2579.8182      1534.8939    
     98000   98000          654.96292      276.47741      39445.998      38997.764      16897.33       22100.434      7383.6254      6817.6138      5403.7162      671.02684      962.2177       6458.4864     -5596.2525     -629.57309      111165.25      48.082793      48.082793      48.082793      1.0579118     -779.42388      1884.7655     -275.90936    
     99000   99000          666.59867     -1120.1692      37218.953      39034.097      17197.52       21836.577      7428.2016      6743.2167      5355.8776      638.70198      843.23402      6425.3707     -5598.0253     -629.88839      111109.6       48.074768      48.074768      48.074768      1.0584416     -1465.3534     -1018.1475     -877.00677    
    100000   100000         654.22692      878.77198      39825.12       38407.891      16878.342      21529.549      7157.3655      6752.8423      5200.7463      650.22803      912.18705      6450.6665     -5594.4862     -632.88896      110582.83      47.998673      47.998673      47.998673      1.0634837      1190.0043     -16.130663      1462.4424    
    101000   101000         653.04373     -630.0265       37919.578      38938.116      16847.817      22090.299      7450.7029      6695.6417      5520.8609      675.62116      914.8822       6431.0655     -5598.4754     -631.35353      110851.76      48.037552      48.037552      48.037552      1.0609036     -914.18289      540.83063     -1516.7272    
    102000   102000         653.17797     -24.506917      38752.734      38792.366      16851.28       21941.086      7537.0804      6727.518       5301.8491      670.09024      894.45659      6413.1704     -5603.0785     -631.15121      110887.29      48.042684      48.042684      48.042684      1.0605636     -323.4845       642.54958     -392.58582    
    103000   103000         655.7747       55.383619      38738.66       38649.421      16918.273      21731.148      7219.5316      6812.2049      5286.9916      667.21784      916.37369      6435.0327     -5606.2044     -633.46099      110482.97      47.98422       47.98422       47.98422       1.0644449     -1679.1664      1186.3659      658.95131    
    104000   104000         669.46694      522.01053      40083.297      39233.702      17271.518      21962.184      7340.3388      6846.9017      5352.2427      669.96948      902.55482      6450.5393     -5600.3629     -627.13135      111598.07      48.145115      48.145115      48.145115      1.0538088     -288.4967       574.73986      1279.7884    
    105000   105000         653.9929      -1357.5147      36436.896      38596.353      16872.305      21724.048      7266.6058      6742.9854      5496.4607      640.70253      757.40474      6429.5657     -5609.6769     -641.63961      109074.7       47.779472      47.779472      47.779472      1.0781879      207.7711      -1915.3326     -2364.9826    
    106000   106000         669.79273      815.07001      40443.942      39125.695      17279.923      21845.772      7299.879       6945.5452      5177.9575      670.88785      931.80898      6420.8919     -5601.1989     -631.08696      110898.58      48.044314      48.044314      48.044314      1.0604557      1766.7903      731.91452     -53.494803    
    107000   107000         669.48165      1150.6125      40887.748      39051.375      17271.898      21779.477      7306.8521      6777.1777      5268.1808      671.84309      923.28621      6431.9828     -5599.8453     -639.52772      109434.9       47.832008      47.832008      47.832008      1.0746392      1847.9615      1011.8425      592.03351    
    108000   108000         656.44552     -27.193294      38578.778      38622.489      16935.58       21686.909      7283.5507      6797.5651      5237.0535      667.60006      879.40168      6420.8592     -5599.1209     -634.98821      110217.24      47.94572       47.94572       47.94572       1.0670112     -182.64797     -127.1083       228.17639    
    109000   109000         664.39583      108.07363      39015.42       38841.522      17140.689      21700.833      7299.0587      6833.8295      5220.2853      634.13302      883.88233      6433.8743     -5604.2302     -634.32852      110331.87      47.962336      47.962336      47.962336      1.0659026     -1031.142      -105.90886      1461.2718    
    110000   110000         659.19994     -1080.1581      37032.756      38769.256      17006.641      21762.616      7248.7293      6617.3915      5561.5139      648.97925      844.36747      6437.4543     -5595.82       -634.89756      110232.98      47.948002      47.948002      47.948002      1.0668588     -1559.3815     -2586.9213      905.82849    
    111000   111000         650.56022     -932.75235      37128.253      38625.362      16783.745      21841.617      7193.9341      6836.8947      5483.1599      649.00041      847.18434      6434.4307     -5602.9871     -635.92226      110055.35      47.922234      47.922234      47.922234      1.0685807     -2139.309      -1571.1797      912.23167    
    112000   112000         653.38803      537.27297      39701.963      38836.778      16856.7        21980.078      7376.1565      6842.0745      5246.2417      645.7658       1035.1393      6440.3593     -5605.6589     -633.836        110417.6       47.974755      47.974755      47.974755      1.065075       1273.7973     -492.25466      830.27625    
    113000   113000         653.94605      941.059        40089.995      38582.298      16871.096      21711.202      7355.22        6774.3253      5239.6598      655.75706      868.59393      6424.8657     -5607.2199     -637.07985      109855.38      47.893192      47.893192      47.893192      1.0705259      869.23474      308.1647       1645.7775    
    114000   114000         656.67692      1410.9923      41303.45       39037.492      16941.549      22095.942      7603.4931      6865.173       5321.8491      660.86407      822.33137      6424.3617     -5602.1298     -635.5708       110116.21      47.931066      47.931066      47.931066      1.0679901      822.18428      1123.0526      2287.74      
    115000   115000         651.51592     -648.17205      37437.75       38474.088      16808.401      21665.686      7330.9303      6748.6592      5325.2858      676.48189      743.61002      6440.0836     -5599.3644     -638.3815       109631.39      47.860618      47.860618      47.860618      1.0727131     -2779.6665      62.629607      772.52075    
    116000   116000         652.04829      494.75923      39046.11       38260.729      16822.136      21438.593      7176.8921      6787.4496      5190.524       630.70495      853.42915      6407.537      -5607.9436     -642.99079      108845.49      47.745981      47.745981      47.745981      1.0804584      488.51485     -5.9277781      1001.6906    
    117000   117000         657.67141      1007.8732      40291.996      38656.363      16967.206      21689.157      7345.7374      6683.0483      5250.6231      643.31857      956.8615       6413.7931     -5604.2251     -628.94277      111276.66      48.09885       48.09885       48.09885       1.0568526      2034.2017      1042.1235     -52.705472    
    118000   118000         652.74809      794.4577       39817.667      38541.804      16840.19       21701.614      7313.2067      6811.2105      5275.5803      647.70059      823.17714      6431.5032     -5600.7646     -635.56158      110117.81      47.931298      47.931298      47.931298      1.0679746      1970.613       1342.6374     -929.87735    
    119000   119000         650.38784      252.87307      38634.696      38228.762      16779.298      21449.464      7228.8791      6574.6204      5295.082       646.64192      871.87286      6427.5378     -5595.17       -635.8253       110072.14      47.92467       47.92467       47.92467       1.0684178      944.85754     -1172.8006      986.56229    
    120000   120000         656.18361      912.73712      40057.753      38594.175      16928.823      21665.352      7234.7853      6788.7234      5296.1272      673.30014      847.75624      6430.3276     -5605.6679     -636.53304      109949.75      47.906902      47.906902      47.906902      1.0696071      2161.9443     -29.481518      605.74856    
    121000   121000         645.49651      311.82519      38788.699      38288.651      16653.107      21635.544      7393.2377      6747.6098      5243.5403      655.17643      789.5121       6414.0964     -5607.6286     -636.48907      109957.35      47.908005      47.908005      47.908005      1.0695332      1112.4265     -61.019669     -115.93123    
    122000   122000         646.43369     -1591.633       35608.783      38168.268      16677.285      21490.983      7176.8186      6722.3105      5416.1828      659.14216      691.30011      6427.9385     -5602.7093     -634.71874      110264.03      47.952504      47.952504      47.952504      1.0665584      1.132554      -2400.5361     -2375.4955    
    123000   123000         654.49833     -480.1632       37473.804      38242.245      16885.344      21356.901      7059.6845      6747.2745      5269.6967      625.4466       827.47235      6424.1352     -5596.8094     -637.77799      109735.13      47.87571       47.87571       47.87571       1.071699      -369.14276     -194.6335      -876.71333    
    124000   124000         654.88973      609.23549      39797.846      38827.376      16895.442      21931.934      7605.8883      6903.0964      5247.4631      622.27403      728.64068      6425.8696     -5601.298      -640.75813      109224.76      47.801372      47.801372      47.801372      1.0767067      1375.5736      1367.1447     -915.01187    
    125000   125000         649.41713     -1180.2385      36602.042      38495.202      16754.255      21740.947      7264.2519      6882.7848      5340.2633      658.84007      795.53968      6404.1613     -5604.8936     -636.31707      109987.07      47.912321      47.912321      47.912321      1.0692441     -1499.3246     -3188.6387      1147.2478    
    126000   126000         637.72729     -1312.8302      35474.522      37584.997      16452.67       21132.327      7158.1162      6573.268       5154.0459      654.97433      757.94274      6433.3139     -5599.3341     -634.92069      110228.96      47.94742       47.94742       47.94742       1.0668977     -2981.3492     -1994.178       1037.0365    
    127000   127000         651.49112      725.87729      39726.758      38558.546      16807.761      21750.784      7095.7454      6959.0703      5338.4754      650.60754      871.36282      6438.2269     -5602.7041     -634.20904      110352.65      47.965347      47.965347      47.965347      1.0657019      626.83553     -18.157761      1568.9541    
    128000   128000         649.55413      353.92301      38891.047      38319.781      16757.789      21561.992      7312.8243      6665.7566      5290.3387      640.12223      843.08431      6413.8573     -5603.991      -632.35607      110676.02      48.012152      48.012152      48.012152      1.0625882     -99.349158     -790.97025      1952.0884    
    129000   129000         636.45016      335.16193      38376.089      37835.832      16419.721      21416.111      7283.5841      6609.7064      5255.7646      635.10208      808.81908      6422.372      -5599.2374     -633.20571      110527.51      47.990668      47.990668      47.990668      1.0640159     -6.9835581      880.70169      131.76766    
    130000   130000         652.54083     -861.02729      37002.63       38389.744      16834.843      21554.902      7315.8531      6644.0124      5283.3555      662.52605      822.94993      6425.6849     -5599.48       -633.57172      110463.66      47.981425      47.981425      47.981425      1.0646309     -2500.5926     -475.07254      392.58333    
    131000   131000         654.75781     -759.62008      37327.121      38560.411      16892.039      21668.372      7306.3504      6762.2026      5239.6713      641.63953      888.3376       6429.2978     -5599.1268     -628.66942      111325.04      48.10582       48.10582       48.10582       1.0563933     -181.99919      94.042419     -2190.9035    
    132000   132000         648.96778      1572.883       40992.532      38464.204      16742.662      21721.542      7213.8995      6791.713       5318.4333      665.1687       931.46782      6404.9045     -5604.0444     -634.97148      110220.15      47.946141      47.946141      47.946141      1.0669831      1718.3119      1412.2094      1588.1277    
    133000   133000         647.59121      1371.2853      40384.453      38190.237      16707.148      21483.089      7243.3061      6816.5853      5105.0628      631.70626      857.59054      6429.4378     -5600.5996     -637.88081      109717.44      47.873137      47.873137      47.873137      1.0718718      1908.2491      1920.1656      285.4413     
    134000   134000         644.00734      983.82798      39695.62       38118.44       16614.688      21503.752      7156.7645      6712.8259      5254.2742      666.84453      882.10127      6433.1066     -5602.165      -636.69133      109922.42      47.902931      47.902931      47.902931      1.069873       1674.5746      593.01184      683.89747    
    135000   135000         651.53843      1173.0187      40175.284      38283.142      16808.982      21474.16       7079.9379      6805.0621      5268.9317      637.53716      849.87719      6430.7885     -5597.9743     -632.76474      110604.53      48.001813      48.001813      48.001813      1.0632749      154.16055      1839.241       1525.6544    
    136000   136000         651.02513      1987.4563      41485.698      38309.157      16795.739      21513.417      7337.77        6662.6371      5234.0523      644.69788      802.2061       6434.4279     -5602.3741     -638.60772      109592.55      47.854966      47.854966      47.854966      1.0730933      2322.9489      976.15971      2663.2603    
    137000   137000         650.40046      978.03133      39588.579      38005.263      16779.624      21225.639      7096.858       6713.2952      5131.1105      656.80669      787.07194      6438.4745     -5597.9778     -630.48688      111004.13      48.059552      48.059552      48.059552      1.0594473      989.10043      2088.3276     -143.33403    
    138000   138000         639.84872      922.68246      39089.724      37616.463      16507.4        21109.062      7134.8452      6619.6493      5088.7539      645.92967      795.01757      6421.9636     -5597.0968     -639.2396       109484.22      47.839193      47.839193      47.839193      1.0741551      906.46227      268.63081      1592.9543    
    139000   139000         644.8884       1012.9635      39925.651      38274.148      16637.418      21636.729      7279.1219      6623.5967      5334.7604      662.69174      898.93842      6435.4403     -5597.8204     -626.04471      111791.78      48.172955      48.172955      48.172955      1.0519828      3145.3509      951.96843     -1058.429     
    140000   140000         648.88522     -201.50403      37700.065      38025.549      16740.532      21285.017      7072.4777      6715.9961      5145.4387      641.36486      879.75869      6429.1039     -5599.1226     -631.89414      110756.92      48.023848      48.023848      48.023848      1.061812       401.39482      629.16269     -1635.0696    
    141000   141000         640.6977       14.112249      38103.113      38080.577      16529.303      21551.274      7407.3896      6715.0255      5170.4978      645.36243      787.92549      6424.7389     -5599.6656     -639.17465      109495.35      47.840813      47.840813      47.840813      1.0740459      27.669224      458.34841     -443.68089    
    142000   142000         649.92122      78.043532      38393.232      38267.074      16767.26       21499.814      7026.3206      6852.7215      5199.0045      642.93474      934.13312      6440.3469     -5595.6474     -631.411        110841.67      48.036094      48.036094      48.036094      1.0610002     -642.03286     -990.3979       1866.5614    
    143000   143000         643.42933     -934.9916       36372.807      37865.727      16599.776      21265.951      7120.3415      6609.4188      5253.7536      648.09042      818.0095       6417.3221     -5600.9845     -639.23751      109484.58      47.839245      47.839245      47.839245      1.0741515     -2956.4326     -1030.052       1181.5098    
    144000   144000         638.08688      1027.9322      39336.164      37686.578      16461.946      21224.631      7332.6534      6505.9774      5075.2818      643.70288      837.04034      6429.1577     -5599.1824     -636.03411      110036         47.919425      47.919425      47.919425      1.0687687      1501.3858     -211.01472      1793.4256    
    145000   145000         648.24736     -1276.8614      36074.905      38128.955      16724.076      21404.879      7179.0623      6713.3618      5264.8464      635.6527       796.8128       6420.9059     -5605.7624     -634.48847      110304.05      47.958305      47.958305      47.958305      1.0661714     -1227.2962     -467.28175     -2136.0061    
    146000   146000         642.48189      612.36616      39011.49       38020.619      16575.333      21445.286      7407.2495      6675.6774      5011.4039      645.27556      882.09793      6423.7466     -5600.1651     -630.79027      110950.74      48.051846      48.051846      48.051846      1.0599571      2970.5208     -2265.7026      1132.2803    
    147000   147000         630.36068      317.40237      38443.22       37932.721      16262.619      21670.102      7221.9829      6846.0146      5199.9357      647.60936      941.05586      6415.099      -5601.5957     -634.6091       110283.09      47.955266      47.955266      47.955266      1.0663741      852.30501     -1103.3018      1203.2039    
    148000   148000         648.92666     -289.69381      37724.942      38190.922      16741.601      21449.321      7195.8282      6608.9516      5357.3198      628.02202      836.73541      6422.8332     -5600.369      -634.545        110294.23      47.956881      47.956881      47.956881      1.0662664     -2420.2077      1725.9975     -174.87121    
    149000   149000         638.62569     -173.55077      37483.766      37760.799      16475.847      21284.951      7071.8487      6613.1174      5349.2116      640.54038      805.19319      6409.5704     -5604.5304     -639.41997      109453.34      47.834694      47.834694      47.834694      1.0744581     -348.52966     -1872.9924      1700.8697    
    150000   150000         639.58683      133.42471      38210.495      37997.23       16500.644      21496.587      7253.8932      6717.6253      5318.3276      643.49186      733.64983      6427.9169     -5598.3182     -638.57107      109598.84      47.855882      47.855882      47.855882      1.0730317     -661.26827      496.58074      564.96165    
[...]
    962000   962000         312.00517      784.03194      21223.408      20087.357      8049.3935      12037.963      4060.9809      4157.3934      3094.9019      320.08703     -343.84195      6374.4152     -5625.9735     -704.4122       99354.682      46.315829      46.315829      46.315829      1.1836687      126.95692      733.44441      1491.6945    
    963000   963000         315.02851      2096.5444      23035.356      19989.877      8127.3924      11862.485      3995.1267      4083.7022      3102.15        307.49253     -386.13726      6386.6824     -5626.5317     -702.65092      99603.725      46.354496      46.354496      46.354496      1.1807091      2363.5081      2287.1705      1638.9545    
    964000   964000         314.58256     -274.63952      19641.284      20042.009      8115.8876      11926.122      3991.2279      4118.5749      3112.1412      313.72567     -367.45692      6381.5486     -5623.6398     -699.53241      100047.76      46.423276      46.423276      46.423276      1.1754689     -568.33347      484.8309      -740.41598    
    965000   965000         317.80496      804.07704      21357.097      20198.233      8199.0218      11999.212      4060.7387      4056.7578      3198.1169      340.43646     -403.14507      6372.4779     -5626.1711     -708.20098      98823.147      46.233087      46.233087      46.233087      1.1900353      829.31903      399.84652      1183.0656    
    966000   966000         310.55705      475.75215      20703.652      20013.357      8012.0337      12001.323      4027.6107      4146.2329      3107.6248      321.78832     -348.81217      6373.7696     -5626.8907     -703.45662      99489.645      46.336792      46.336792      46.336792      1.182063       2310.6043      406.65061     -1289.9984    
    967000   967000         312.21192     -688.4719       19083.353      20087.372      8054.7276      12032.644      4121.4033      4095.603       3153.492       322.91679     -401.42836      6370.2985     -5629.641      -699.89941      99995.297      46.415161      46.415161      46.415161      1.1760856     -1811.7109      245.94602     -499.65081    
    968000   968000         316.48463      2299.311       23484.073      20147.854      8164.9587      11982.895      4103.8883      4145.0267      2968.8458      317.4579      -302.92967      6378.5408     -5627.9344     -703.45176      99490.332      46.336898      46.336898      46.336898      1.1820548      1132.0517      2815.145       2950.7363    
    969000   969000         314.55625      1044.4638      21586.193      20072.027      8115.2088      11956.818      4083.1401      4077.5306      3086.8294      317.7699      -355.25771      6372.3755     -5625.5695     -704.06217      99404.077      46.323504      46.323504      46.323504      1.1830805      2881.9432      933.60102     -682.15283    
    970000   970000         312.62675      270.39214      20341.955      19947.738      8065.4296      11882.309      4048.5244      4112.641       3058.7548      309.46568     -398.99846      6379.3485     -5627.427      -700.08359      99968.991      46.41109       46.41109       46.41109       1.1763951     -252.90096      424.21485      639.86254    
    971000   971000         309.95551     -382.81022      19606.391      20162.256      7996.5145      12165.741      4144.1933      4099.2997      3245.4294      326.79176     -404.33123      6380.4292     -5626.0708     -702.91955      99565.661      46.34859       46.34859       46.34859       1.1811605     -1115.1708     -160.70952      127.44965    
    972000   972000         313.09527     -390.55103      19442.043      20008.271      8077.517       11930.754      4010.4304      4126.9961      3206.1642      315.70657     -483.67407      6380.8067     -5625.6755     -704.00732      99411.821      46.324707      46.324707      46.324707      1.1829884     -316.75192     -132.75537     -722.14581    
    973000   973000         305.11528      431.38998      20377.298      19749.943      7871.6419      11878.301      4022.8837      4102.4367      3070.0694      299.28666     -363.24394      6373.3653     -5626.4965     -701.85613      99716.518      46.371987      46.371987      46.371987      1.1793736      876.9033       509.21445     -91.947813    
    974000   974000         309.63434      368.42205      20530.596      19994.981      7988.2288      12006.753      4133.6101      4075.1999      3111.3904      312.41456     -375.49258      6375.5499     -5625.9197     -702.07655      99685.212      46.367133      46.367133      46.367133      1.179744       1230.6309      229.74108     -355.10582    
    975000   975000         307.31877     -426.86155      19222.063      19840.649      7928.4895      11912.16       4091.8786      4117.6112      2987.5842      313.46917     -364.23722      6390.7076     -5624.8536     -704.33244      99365.932      46.317577      46.317577      46.317577      1.1835347     -667.36684      864.81884     -1478.0367    
    976000   976000         311.15878      552.70972      20729.036      19928.676      8027.5578      11901.118      3994.4539      4099.6723      3121.7283      320.34199     -376.43444      6370.4703     -5629.1142     -704.86018      99291.535      46.306015      46.306015      46.306015      1.1844215     -106.91774      1419.7272      345.31968    
    977000   977000         311.35112      1289.1131      21918.783      20042.527      8032.5197      12010.007      4086.4057      4140.0873      3053.8235      314.43033     -338.46382      6378.1514     -5624.4271     -701.27765      99798.774      46.384734      46.384734      46.384734      1.1784015      650.19369      826.33477      2390.8109    
    978000   978000         309.56345      535.04814      20587.772      19811.501      7986.3999      11825.101      4040.5443      4113.9244      3012.7452      306.05445     -413.77369      6389.1599     -5623.554      -703.51005      99482.09       46.335619      46.335619      46.335619      1.1821528      1269.494       889.17569     -553.52522    
    979000   979000         310.58963     -348.63087      19454.565      19961.237      8012.8743      11948.362      4012.7949      4176.0804      3140.898       318.71394     -444.80917      6371.0436     -5626.3593     -702.31248      99651.724      46.361941      46.361941      46.361941      1.1801404     -402.16166     -616.627       -27.103947    
    980000   980000         308.87441     -365.01496      19274.004      19801.891      7968.6235      11833.268      4039.0624      4088.3911      3097.1021      309.67302     -444.65475      6371.1257     -5627.4318     -705.76538      99164.186      46.28621       46.28621       46.28621       1.1859426     -115.93484     -521.51794     -457.59209    
    981000   981000         310.26799      997.47445      21378.932      19926.796      8004.5761      11922.22       4096.4561      4130.1055      3023.0166      320.95404     -401.28875      6377.3732     -5624.397      -701.10917      99822.756      46.388449      46.388449      46.388449      1.1781184      858.06669      1531.6988      602.65785    
    982000   982000         307.94853      844.03165      20901.267      19681.405      7944.7368      11736.668      4004.9002      4044.0607      3107.1477      302.37728     -465.23805      6372.5401     -5629.1199     -706.21858      99100.551      46.276307      46.276307      46.276307      1.1867041      494.99621      982.72289      1054.3758    
    983000   983000         310.42137     -1170.2009      18167.075      19880.609      8008.5333      11872.076      3975.1435      4049.6421      3204.4821      316.38078     -427.20636      6379.6593     -5626.0257     -697.04156      100405.28      46.478508      46.478508      46.478508      1.1712834     -1334.0186     -791.31422     -1385.2698    
    984000   984000         309.04373     -516.53606      18977.111      19724.73       7972.9916      11751.738      4031.0964      4053.5403      3080.6472      322.12041     -480.15922      6372.3896     -5627.8968     -705.19906      99243.821      46.298597      46.298597      46.298597      1.1849909     -365.53201     -543.64271     -640.43347    
    985000   985000         301.13622     -1555.5717      17414.713      19678.884      7768.9866      11909.897      3993.6508      4096.8825      3140.9076      326.72356     -412.41998      6387.9284     -5623.7756     -701.24851      99802.922      46.385376      46.385376      46.385376      1.1783526     -2488.1024      196.13394     -2374.7466    
    986000   986000         309.16179     -964.59883      18282.73       19686.617      7976.0375      11710.579      3937.6342      4041.0877      3085.3242      301.38577     -411.35065      6382.4151     -5625.917      -701.3029       99795.181      46.384177      46.384177      46.384177      1.178444      -1169.154      -691.9923      -1032.6502    
    987000   987000         303.65085     -741.86236      18480.103      19558.481      7833.8613      11724.62       4032.7687      4033.7529      3061.7529      293.9276      -441.43311      6369.7001     -5625.8496     -702.17168      99671.707      46.365039      46.365039      46.365039      1.1799038     -1276.3344     -840.33815     -108.91452    
    988000   988000         309.14812      885.75042      21072.939      19788.743      7975.6849      11813.058      4030.0858      4041.1936      3059.1267      312.29171     -383.60382      6382.3359     -5628.3721     -703.99745      99413.215      46.324923      46.324923      46.324923      1.1829718     -12.93533       1071.1272      1599.0594    
    989000   989000         300.887       -338.86808      19072.785      19564.78       7762.5568      11802.223      3950.7327      4116.192       3104.8159      309.59101     -426.86034      6373.8153     -5626.0636     -703.01022      99552.82       46.346597      46.346597      46.346597      1.1813129     -691.31624      700.91703     -1026.205     
    990000   990000         304.0112      -383.69667      19103.375      19662.052      7843.1579      11818.894      4020.3453      4009.0873      3128.4397      313.53446     -414.85471      6388.9463     -5626.6045     -701.0008       99838.188      46.390839      46.390839      46.390839      1.1779363      483.83272     -268.88446     -1366.0383    
    991000   991000         304.7057       483.18456      20401.852      19699.731      7861.0753      11838.655      3956.8229      4055.1988      3119.6237      310.42133     -367.03326      6385.6684     -5622.0465     -702.41187      99637.623      46.359754      46.359754      46.359754      1.1803075     -592.9478       1551.8577      490.64381    
    992000   992000         302.54664     -70.214748      19462.112      19563.993      7805.3739      11758.619      3982.4973      4084.3075      3053.9588      310.34993     -427.12481      6380.6241     -5625.9938     -703.44026      99491.959      46.337151      46.337151      46.337151      1.1820355      6.4253511     -1037.9813      820.91171    
    993000   993000         299.84521      760.61512      20568.905      19466.95       7735.6799      11731.271      3916.6721      3990.9712      3123.3143      314.95385     -362.26939      6373.9646     -5626.336      -704.51872      99339.659      46.313495      46.313495      46.313495      1.1838477      1052.9281      551.5956       677.32168    
    994000   994000         301.64432      1.6083905      19405.964      19403.644      7782.0949      11621.549      3837.8456      4062.781       3092.1569      303.56031     -431.60579      6381.9832     -5625.172      -707.6726       98896.933      46.244591      46.244591      46.244591      1.1891474     -276.23523     -1093.0357      1374.0961    
    995000   995000         303.1142      -36.594957      19503.451      19556.889      7820.0163      11736.873      3865.9429      4044.5019      3156.7184      318.1582      -406.7506       6384.9775     -5626.6757     -698.98035      100126.78      46.435495      46.435495      46.435495      1.1745412     -1436.3688      342.43726      984.14671    
    996000   996000         299.8705       142.80399      19510.398      19303.678      7736.3324      11567.346      3953.7769      3997.5266      2994.1602      302.44518     -428.81596      6377.9845     -5629.7315     -705.09696      99258.192      46.300831      46.300831      46.300831      1.1848194      821.54547      173.56767     -566.70116    
    997000   997000         303.35979      944.20689      20816.92       19450.913      7826.3522      11624.561      3938.6731      4051.952       3008.6699      304.60526     -432.05528      6375.8539     -5623.1379     -705.51351      99199.589      46.291717      46.291717      46.291717      1.1855193      594.03449      977.99025      1260.5959    
    998000   998000         295.02769      175.14659      19618.883      19364.576      7611.3932      11753.183      4051.8238      4110.2516      2932.5955      305.66019     -394.8186       6377.5426     -5629.8721     -702.96618      99559.057      46.347565      46.347565      46.347565      1.1812389     -302.82049     -81.462293      909.72254    
    999000   999000         303.02487      465.66049      20067.009      19394.258      7817.7117      11576.546      3926.8262      4091.7441      3002.7002      285.22554     -470.28337      6365.4666     -5625.133      -706.49062      99062.391      46.270366      46.270366      46.270366      1.1871612      235.42931     -403.55225      1565.1044    
   1000000   1000000        299.77187     -144.81049      19255.711      19466.788      7733.7877      11733          4018.5623      4106.4337      2975.1305      298.12312     -406.71998      6371.6881     -5630.2174     -700.24557      99945.865      46.407511      46.407511      46.407511      1.1766673      1115.3112      671.18644     -2220.9291    
Loop time of 15466.8 on 4 procs for 1000000 steps with 8656 atoms

Performance: 5.586 ns/day, 4.296 hours/ns, 64.654 timesteps/s, 559.649 katom-step/s
96.7% CPU use with 4 MPI tasks x 1 OpenMP threads

MPI task timing breakdown:
Section |  min time  |  avg time  |  max time  |%varavg| %total
---------------------------------------------------------------
Pair    | 966.64     | 1035.4     | 1081.6     | 148.6 |  6.69
Bond    | 5589.8     | 5709.9     | 5835.8     | 153.8 | 36.92
Kspace  | 3762.6     | 3886.3     | 4009.1     | 188.8 | 25.13
Neigh   | 2456.6     | 2517.6     | 2571.5     |  86.1 | 16.28
Comm    | 328.38     | 330.52     | 332.85     |  10.1 |  2.14
Output  | 9.2275     | 9.4572     | 9.6583     |   5.3 |  0.06
Modify  | 1760.4     | 1799.3     | 1830.9     |  71.6 | 11.63
Other   |            | 178.2      |            |       |  1.15

Nlocal:           2164 ave        2196 max        2140 min
Histogram: 1 0 1 0 1 0 0 0 0 1
Nghost:        10682.8 ave       10700 max       10655 min
Histogram: 1 0 0 0 1 0 0 0 0 2
Neighs:              0 ave           0 max           0 min
Histogram: 4 0 0 0 0 0 0 0 0 0
FullNghs:  1.19115e+06 ave 1.20521e+06 max 1.17902e+06 min
Histogram: 1 1 0 0 0 0 1 0 0 1

Total # of neighbors = 4764616
Ave neighs/atom = 550.44085
Ave special neighs/atom = 5.7689464
Neighbor list builds = 54599
Dangerous builds = 0

# --- Cleanup ---
unfix npt_fix

undump dump_npt

# --- Write Output ---
write_dump all custom npt_cool300_last.dump id type mol x y z xu yu zu vx vy vz modify sort id
write_data /home/arz2/PolyJarvis/data/PSU1/lammps/npt_cool300/npt_cool300_out.data
System init for write_data ...
PPPM initialization ...
  using 12-bit tables for long-range coulomb
  G vector (1/distance) = 0.29780101
  grid = 32 32 32
  stencil order = 5
  estimated absolute RMS force accuracy = 0.00035684454
  estimated relative force accuracy = 1.0746267e-06
  using double precision KISS FFT
  3d grid and FFT values/proc = 20631 8192
Generated 28 of 28 mixed pair_coeff terms from sixthpower/sixthpower mixing rule

print "STAGE COMPLETE: NPT T=700.0->300.0K P=1.0->1.0atm steps=1000000"
STAGE COMPLETE: NPT T=700.0->300.0K P=1.0->1.0atm steps=1000000
quit
2
Kspace  | 3762.6     | 3886.3     | 4009.1     | 188.8 | 25.13
Neigh   | 2456.6     | 2517.6     | 2571.5     |  86.1 | 16.28
Comm    | 328.38     | 330.52     | 332.85     |  10.1 |  2.14
Output  | 9.2275     | 9.4572     | 9.6583     |   5.3 |  0.06
Modify  | 1760.4     | 1799.3     | 1830.9     |  71.6 | 11.63
Other   |            | 178.2      |            |       |  1.15

Nlocal:           2164 ave        2196 max        2140 min
Histogram: 1 0 1 0 1 0 0 0 0 1
Nghost:        10682.8 ave       10700 max       10655 min
Histogram: 1 0 0 0 1 0 0 0 0 2
Neighs:              0 ave           0 max           0 min
Histogram: 4 0 0 0 0 0 0 0 0 0
FullNghs:  1.19115e+06 ave 1.20521e+06 max 1.17902e+06 min
Histogram: 1 1 0 0 0 0 1 0 0 1

Total # of neighbors = 4764616
Ave neighs/atom = 550.44085
Ave special neighs/atom = 5.7689464
Neighbor list builds = 54599
Dangerous builds = 0
System init for write_data ...
PPPM initialization ...
  using 12-bit tables for long-range coulomb
  G vector (1/distance) = 0.29780101
  grid = 32 32 32
  stencil order = 5
  estimated absolute RMS force accuracy = 0.00035684454
  estimated relative force accuracy = 1.0746267e-06
  using double precision KISS FFT
  3d grid and FFT values/proc = 20631 8192


---------------------------------------------------------------------
    Device Time Info (average) for kspace: 
---------------------------------------------------------------------
CPU Poisson:     3800.6305 s.
CPU Data Cast:   9.6725 s.
CPU Idle Time:   10.2037 s.
Max Mem / Proc:  5.15 MB.
---------------------------------------------------------------------


--------------------------------------------------------------------------
- Using acceleration for pppm:
-  with 4 proc(s) per device.
-  with 1 thread(s) per proc.
-  Horizontal vector operations: ENABLED
-  Shared memory system: No
--------------------------------------------------------------------------
Device 0: Quadro RTX 6000, 72 CUs, 22/24 GB, 1.8 GHZ (Mixed Precision)
--------------------------------------------------------------------------

Initializing Device and compiling on process 0...Done.
Initializing Device 0 on core 0...Done.
Initializing Device 0 on core 1...Done.
Initializing Device 0 on core 2...Done.
Initializing Device 0 on core 3...Done.



---------------------------------------------------------------------
      Device Time Info (average): 
---------------------------------------------------------------------
CPU Cast/Pack:   19.5132 s.
CPU Driver_Time: 20.4391 s.
CPU Idle_Time:   7.0694 s.
Average split:   1.0000.
Max Mem / Proc:  7.33 MB.
Prefetch mode:   None.
Vector width:    32.
Lanes / atom:    8.
Pair block:      256.
Neigh block:     128.
Neigh mode:      Host.
---------------------------------------------------------------------


--------------------------------------------------------------------------
- Using acceleration for lj/class2/coul/long:
-  with 4 proc(s) per device.
-  with 1 thread(s) per proc.
-  Horizontal vector operations: ENABLED
-  Shared memory system: No
--------------------------------------------------------------------------
Device 0: Quadro RTX 6000, 72 CUs, 22/24 GB, 1.8 GHZ (Mixed Precision)
--------------------------------------------------------------------------

Initializing Device and compiling on process 0...Done.
Initializing Device 0 on core 0...Done.
Initializing Device 0 on core 1...Done.
Initializing Device 0 on core 2...Done.
Initializing Device 0 on core 3...Done.

Generated 28 of 28 mixed pair_coeff terms from sixthpower/sixthpower mixing rule
STAGE COMPLETE: NPT T=700.0->300.0K P=1.0->1.0atm steps=1000000
