units real
atom_style full
boundary p p p

# --- Force Field Styles ---
pair_style lj/class2/coul/long 9.5 9.5
kspace_style pppm 1e-6
dielectric 1.000000
bond_style class2
angle_style class2
dihedral_style class2
improper_style class2
special_bonds lj/coul 0 0 1
pair_modify mix sixthpower tail yes
neighbor 2.0 bin
neigh_modify delay 0 every 1 check yes
neigh_modify one 4000
# KOKKOS: package loaded via -pk kokkos on the command line

read_data /home/arz2/PolyJarvis/data/PEEK2/lammps/npt_prod300/npt_prod300_out.data
Reading data file ...
  orthogonal box = (5.4925333 5.4925333 5.4925333) to (55.968672 55.968672 55.968672)
  1 by 1 by 1 MPI processor grid
  reading atoms ...
  10900 atoms
  reading velocities ...
  10900 velocities
  scanning bonds ...
  3 = max bonds/atom
  scanning angles ...
  9 = max angles/atom
  scanning dihedrals ...
  18 = max dihedrals/atom
  scanning impropers ...
  4 = max impropers/atom
  orthogonal box = (5.4925333 5.4925333 5.4925333) to (55.968672 55.968672 55.968672)
  1 by 1 by 1 MPI processor grid
  reading bonds ...
  11850 bonds
  reading angles ...
  18880 angles
  reading dihedrals ...
  28140 dihedrals
  reading impropers ...
  6080 impropers
Finding 1-2 1-3 1-4 neighbors ...
  special bond factors lj:    0        0        1       
  special bond factors coul:  0        0        1       
     3 = max # of 1-2 neighbors
     6 = max # of 1-3 neighbors
     9 = max # of special neighbors
  special bonds CPU = 0.005 seconds
  read_data CPU = 0.314 seconds
include /home/arz2/PolyJarvis/data/PEEK2/lammps/cell/emc_build.params
# LAMMPS parameters created by EMC v9.4.4, build Jul 31 2025 20:33:44

# Variables

variable	seed		index	274348
variable	ntotal		index	10900
variable	fshape		index	1
variable	output		index	emc_build
variable	field		index	pcff/pcff
variable	location1	index	/home/arz2/emc/field/
variable	nav		index	0.6022141179
variable	temperature	index	300
variable	radius		index	5
variable	nrelax		index	100
variable	weight_nonbond	index	0.0001
variable	weight_bond	index	0.0001
variable	weight_focus	index	1
variable	cutoff		index	9.5
variable	charge_cutoff	index	9.5
variable	kappa		index	4
variable	density1	index	0.66
variable	lprevious	index	0
variable	lphase		index	61.4612049865
variable	f_poly		index	10
variable	chem_repeat	index	*Oc1ccc(Oc2ccc(C(=O)c3ccc(cc3)*)cc2)cc1
variable	chem_cap	index	*[H]
variable	lg_repeat	index	34
variable	lg_cap		index	1
variable	norm_poly	index	100
variable	l_poly		index	1090
variable	mg_repeat	index	260.29514
variable	mg_cap		index	0
variable	m_poly		index	8329.44448
variable	n_poly		index	10
variable	mtotal		index	92277.9802
variable	nphase1		index	10900
variable	mphase1		index	92277.9802
variable	vphase1		index	232168.455304
variable	lbox		index	61.4612049865
variable	lphase1		index	61.4612049865
variable	lxx		index	61.4612049865
variable	lyy		index	61.4612049865
variable	lzz		index	61.4612049865
variable	lzy		index	0
variable	lzx		index	0
variable	lyx		index	0
variable	vtotal		index	232168.455304
variable	nl_poly		index	10

# Types

variable	type_c_0	index	1
variable	type_cp		index	2
variable	type_hc		index	3
variable	type_ho		index	4
variable	type_o_1	index	5
variable	type_oc		index	6
variable	type_oh		index	7

variable	type_bond_c_0_cp index	1
variable	type_bond_c_0_o_1 index	2
variable	type_bond_cp_cp	index	3
variable	type_bond_cp_hc	index	4
variable	type_bond_cp_oc	index	5
variable	type_bond_cp_oh	index	6
variable	type_bond_ho_oh	index	7

variable	type_angle_c_0_cp_cp index	1
variable	type_angle_cp_c_0_cp index	2
variable	type_angle_cp_c_0_o_1 index	3
variable	type_angle_cp_cp_cp index	4
variable	type_angle_cp_cp_hc index	5
variable	type_angle_cp_cp_oc index	6
variable	type_angle_cp_cp_oh index	7
variable	type_angle_cp_oc_cp index	8
variable	type_angle_cp_oh_ho index	9

# Clusters

variable	n0_poly		index	1
variable	n1_poly		index	10
variable	nl_poly		index	10

# Flags

variable	flag_charged	index	1

# Masses

mass		1    12.01115  # c_0
mass		2    12.01115  # cp
mass		3     1.00797  # hc
mass		4     1.00797  # ho
mass		5    15.99940  # o_1
mass		6    15.99940  # oc
mass		7    15.99940  # oh

# Potentials

pair_modify	mix sixthpower tail yes
special_bonds	lj/coul 0 0 1

# Pair Coeffs

pair_coeff	 1  1    0.12000    3.30800  # c_0,c_0
pair_coeff	 2  2    0.06400    4.01000  # cp,cp
pair_coeff	 3  3    0.02000    2.99500  # hc,hc
pair_coeff	 4  4    0.01300    1.09800  # ho,ho
pair_coeff	 5  5    0.26700    3.30000  # o_1,o_1
pair_coeff	 6  6    0.24000    3.53500  # oc,oc
pair_coeff	 7  7    0.24000    3.53500  # oh,oh

# Bond Coeffs

bond_coeff	1    1.48900  339.35740 -655.72360  670.23620  # c_0,cp
bond_coeff	2    1.21600  823.79480 -1878.79400 2303.53110  # c_0,o_1
bond_coeff	3    1.41700  470.83610 -627.61790 1327.63450  # cp,cp
bond_coeff	4    1.09820  372.82510 -803.45260  894.31730  # cp,hc
bond_coeff	5    1.37680  428.87980 -738.23510 1114.96550  # cp,oc
bond_coeff	6    1.37680  428.87980 -738.23510 1114.96550  # cp,oh
bond_coeff	7    0.96500  532.50620 -1282.90500 2004.76580  # ho,oh

# Angle Coeffs

angle_coeff	1  108.40000   43.95940   -8.39240   -9.33790  # c_0,cp,cp
angle_coeff	2  110.58840   34.62140   -7.09390   -7.40320  # cp,c_0,cp
angle_coeff	3  119.30000   65.10160  -17.97660    0.00000  # cp,c_0,o_1
angle_coeff	4  118.90000   61.02260  -34.99310    0.00000  # cp,cp,cp
angle_coeff	5  117.94000   35.15580  -12.46820    0.00000  # cp,cp,hc
angle_coeff	6  123.42000   73.67810  -21.67870    0.00000  # cp,cp,oc
angle_coeff	7  123.42000   73.67810  -21.67870    0.00000  # cp,cp,oh
angle_coeff	8  109.50000   60.00000    0.00000    0.00000  # cp,oc,cp
angle_coeff	9  108.19000   53.12500   -8.50160    0.00000  # cp,oh,ho

# BondBond Coeffs

angle_coeff	1 bb    0.00000    1.48900    1.41700  # c_0,cp,cp
angle_coeff	2 bb    0.00000    1.48900    1.48900  # cp,c_0,cp
angle_coeff	3 bb    0.00000    1.48900    1.21600  # cp,c_0,o_1
angle_coeff	4 bb   68.28560    1.41700    1.41700  # cp,cp,cp
angle_coeff	5 bb    1.07950    1.41700    1.09820  # cp,cp,hc
angle_coeff	6 bb   48.47540    1.41700    1.37680  # cp,cp,oc
angle_coeff	7 bb   48.47540    1.41700    1.37680  # cp,cp,oh
angle_coeff	8 bb    0.00000    1.37680    1.37680  # cp,oc,cp
angle_coeff	9 bb   20.65770    1.37680    0.96500  # cp,oh,ho

# BondAngle Coeffs

angle_coeff	1 ba    0.00000    0.00000    1.48900    1.41700  # c_0,cp,cp
angle_coeff	2 ba    0.00000    0.00000    1.48900    1.48900  # cp,c_0,cp
angle_coeff	3 ba    0.00000    0.00000    1.48900    1.21600  # cp,c_0,o_1
angle_coeff	4 ba   28.87080   28.87080    1.41700    1.41700  # cp,cp,cp
angle_coeff	5 ba   20.00330   24.21830    1.41700    1.09820  # cp,cp,hc
angle_coeff	6 ba   58.47900  107.68060    1.41700    1.37680  # cp,cp,oc
angle_coeff	7 ba   58.47900  107.68060    1.41700    1.37680  # cp,cp,oh
angle_coeff	8 ba    0.00000    0.00000    1.37680    1.37680  # cp,oc,cp
angle_coeff	9 ba   53.86140   23.92240    1.37680    0.96500  # cp,oh,ho

# Dihedral Coeffs

dihedral_coeff	 1    0.00000    0.00000    4.62820    0.00000    0.00000    0.00000  # c_0,cp,cp,cp
dihedral_coeff	 2    0.00000    0.00000    2.16700    0.00000    0.00000    0.00000  # c_0,cp,cp,hc
dihedral_coeff	 3    0.00000    0.00000    2.50000    0.00000    0.00000    0.00000  # cp,c_0,cp,cp
dihedral_coeff	 4    0.00000    0.00000    0.90630    0.00000    0.00000    0.00000  # cp,cp,c_0,o_1
dihedral_coeff	 5    8.36670    0.00000    1.19320    0.00000    0.00000    0.00000  # cp,cp,cp,cp
dihedral_coeff	 6    0.00000    0.00000    3.96610    0.00000    0.00000    0.00000  # cp,cp,cp,hc
dihedral_coeff	 7    0.00000    0.00000    4.84980    0.00000    0.00000    0.00000  # cp,cp,cp,oc
dihedral_coeff	 8    0.00000    0.00000    4.84980    0.00000    0.00000    0.00000  # cp,cp,cp,oh
dihedral_coeff	 9    0.00000    0.00000    1.80000    0.00000    0.00000    0.00000  # cp,cp,oc,cp
dihedral_coeff	10   -0.69000    0.00000    0.50970    0.00000    0.00950    0.00000  # cp,cp,oh,ho
dihedral_coeff	11    0.00000    0.00000    1.87690    0.00000    0.00000    0.00000  # hc,cp,cp,hc
dihedral_coeff	12    0.00000    0.00000    1.72340    0.00000    0.00000    0.00000  # hc,cp,cp,oc
dihedral_coeff	13    0.00000    0.00000    1.72340    0.00000    0.00000    0.00000  # hc,cp,cp,oh

# MiddleBondTorsion Coeffs

dihedral_coeff	 1 mbt    0.00000    0.00000    0.00000    1.41700  # c_0,cp,cp,cp
dihedral_coeff	 2 mbt    0.00000    0.00000    0.00000    1.41700  # c_0,cp,cp,hc
dihedral_coeff	 3 mbt    0.00000    0.00000    0.00000    1.48900  # cp,c_0,cp,cp
dihedral_coeff	 4 mbt    0.00000    0.00000    0.00000    1.48900  # cp,cp,c_0,o_1
dihedral_coeff	 5 mbt   27.59890   -2.31200    0.00000    1.41700  # cp,cp,cp,cp
dihedral_coeff	 6 mbt    0.00000   -1.15210    0.00000    1.41700  # cp,cp,cp,hc
dihedral_coeff	 7 mbt    0.00000    4.82550    0.00000    1.41700  # cp,cp,cp,oc
dihedral_coeff	 8 mbt    0.00000    4.82550    0.00000    1.41700  # cp,cp,cp,oh
dihedral_coeff	 9 mbt    0.00000    0.00000    0.00000    1.37680  # cp,cp,oc,cp
dihedral_coeff	10 mbt    1.15800    3.26970    3.51320    1.37680  # cp,cp,oh,ho
dihedral_coeff	11 mbt    0.00000    4.82280    0.00000    1.41700  # hc,cp,cp,hc
dihedral_coeff	12 mbt    0.00000    5.54320    0.00000    1.41700  # hc,cp,cp,oc
dihedral_coeff	13 mbt    0.00000    5.54320    0.00000    1.41700  # hc,cp,cp,oh

# EndBondTorsion Coeffs

dihedral_coeff	 1 ebt    0.00000    0.00000    0.00000    0.00000    0.00000    0.00000    1.48900    1.41700  # c_0,cp,cp,cp
dihedral_coeff	 2 ebt    0.00000    0.00000    0.00000    0.00000    0.00000    0.00000    1.48900    1.09820  # c_0,cp,cp,hc
dihedral_coeff	 3 ebt    0.00000    0.00000    0.00000    0.00000    0.00000    0.00000    1.48900    1.41700  # cp,c_0,cp,cp
dihedral_coeff	 4 ebt    0.00000    0.00000    0.00000    0.00000    0.00000    0.00000    1.41700    1.21600  # cp,cp,c_0,o_1
dihedral_coeff	 5 ebt   -0.11850    6.32040    0.00000   -0.11850    6.32040    0.00000    1.41700    1.41700  # cp,cp,cp,cp
dihedral_coeff	 6 ebt    0.00000   -6.89580    0.00000    0.00000   -0.46690    0.00000    1.41700    1.09820  # cp,cp,cp,hc
dihedral_coeff	 7 ebt    0.00000    0.26550    0.00000    0.00000    4.89050    0.00000    1.41700    1.37680  # cp,cp,cp,oc
dihedral_coeff	 8 ebt    0.00000    0.26550    0.00000    0.00000    4.89050    0.00000    1.41700    1.37680  # cp,cp,cp,oh
dihedral_coeff	 9 ebt    0.00000    0.00000    0.00000    0.00000    0.00000    0.00000    1.41700    1.37680  # cp,cp,oc,cp
dihedral_coeff	10 ebt    0.90000   -1.34560    1.19000    3.41320    0.58730   -0.13230    1.41700    0.96500  # cp,cp,oh,ho
dihedral_coeff	11 ebt    0.00000   -0.68900    0.00000    0.00000   -0.68900    0.00000    1.09820    1.09820  # hc,cp,cp,hc
dihedral_coeff	12 ebt    0.00000   -1.58670    0.00000    0.00000    4.26410    0.00000    1.09820    1.37680  # hc,cp,cp,oc
dihedral_coeff	13 ebt    0.00000   -1.58670    0.00000    0.00000    4.26410    0.00000    1.09820    1.37680  # hc,cp,cp,oh

# AngleTorsion Coeffs

dihedral_coeff	 1 at    0.00000    0.00000    0.00000    0.00000    0.00000    0.00000  108.40000  118.90000  # c_0,cp,cp,cp
dihedral_coeff	 2 at    0.00000    0.00000    0.00000    0.00000    0.00000    0.00000  108.40000  117.94000  # c_0,cp,cp,hc
dihedral_coeff	 3 at    0.00000    0.00000    0.00000    0.00000    0.00000    0.00000  110.58840  108.40000  # cp,c_0,cp,cp
dihedral_coeff	 4 at    0.00000    0.00000    0.00000    0.00000    0.00000    0.00000  108.40000  119.30000  # cp,cp,c_0,o_1
dihedral_coeff	 5 at    1.97670    1.02390    0.00000    1.97670    1.02390    0.00000  118.90000  118.90000  # cp,cp,cp,cp
dihedral_coeff	 6 at    0.00000    2.50140    0.00000    0.00000    2.71470    0.00000  118.90000  117.94000  # cp,cp,cp,hc
dihedral_coeff	 7 at    0.00000   10.01550    0.00000    0.00000    1.74040    0.00000  118.90000  123.42000  # cp,cp,cp,oc
dihedral_coeff	 8 at    0.00000   10.01550    0.00000    0.00000    1.74040    0.00000  118.90000  123.42000  # cp,cp,cp,oh
dihedral_coeff	 9 at    0.00000    0.00000    0.00000    0.00000    0.00000    0.00000  123.42000  109.50000  # cp,cp,oc,cp
dihedral_coeff	10 at   -5.13600   -1.01220    0.00000    4.68520    0.02300   -0.59800  123.42000  108.19000  # cp,cp,oh,ho
dihedral_coeff	11 at    0.00000    2.45010    0.00000    0.00000    2.45010    0.00000  117.94000  117.94000  # hc,cp,cp,hc
dihedral_coeff	12 at    0.00000    1.87290    0.00000    0.00000    2.57060    0.00000  117.94000  123.42000  # hc,cp,cp,oc
dihedral_coeff	13 at    0.00000    1.87290    0.00000    0.00000    2.57060    0.00000  117.94000  123.42000  # hc,cp,cp,oh

# AngleAngleTorsion Coeffs

dihedral_coeff	 1 aat    0.00000  108.40000  118.90000  # c_0,cp,cp,cp
dihedral_coeff	 2 aat    0.00000  108.40000  117.94000  # c_0,cp,cp,hc
dihedral_coeff	 3 aat    0.00000  110.58840  108.40000  # cp,c_0,cp,cp
dihedral_coeff	 4 aat    0.00000  108.40000  119.30000  # cp,cp,c_0,o_1
dihedral_coeff	 5 aat    0.00000  118.90000  118.90000  # cp,cp,cp,cp
dihedral_coeff	 6 aat   -4.81410  118.90000  117.94000  # cp,cp,cp,hc
dihedral_coeff	 7 aat  -21.02470  118.90000  123.42000  # cp,cp,cp,oc
dihedral_coeff	 8 aat  -21.02470  118.90000  123.42000  # cp,cp,cp,oh
dihedral_coeff	 9 aat    0.00000  123.42000  109.50000  # cp,cp,oc,cp
dihedral_coeff	10 aat   -4.60720  123.42000  108.19000  # cp,cp,oh,ho
dihedral_coeff	11 aat    0.35980  117.94000  117.94000  # hc,cp,cp,hc
dihedral_coeff	12 aat    4.22960  117.94000  123.42000  # hc,cp,cp,oc
dihedral_coeff	13 aat    4.22960  117.94000  123.42000  # hc,cp,cp,oh

# BondBond13 Coeffs

dihedral_coeff	 1 bb13    0.00000    1.48900    1.41700  # c_0,cp,cp,cp
dihedral_coeff	 2 bb13    0.00000    1.48900    1.09820  # c_0,cp,cp,hc
dihedral_coeff	 3 bb13    0.00000    1.48900    1.41700  # cp,c_0,cp,cp
dihedral_coeff	 4 bb13    0.00000    1.41700    1.21600  # cp,cp,c_0,o_1
dihedral_coeff	 5 bb13   53.00000    1.41700    1.41700  # cp,cp,cp,cp
dihedral_coeff	 6 bb13   -6.27410    1.41700    1.09820  # cp,cp,cp,hc
dihedral_coeff	 7 bb13   -2.24360    1.41700    1.37680  # cp,cp,cp,oc
dihedral_coeff	 8 bb13   -2.24360    1.41700    1.37680  # cp,cp,cp,oh
dihedral_coeff	 9 bb13    0.00000    1.41700    1.37680  # cp,cp,oc,cp
dihedral_coeff	10 bb13    1.15900    1.41700    0.96500  # cp,cp,oh,ho
dihedral_coeff	11 bb13   -1.70770    1.09820    1.09820  # hc,cp,cp,hc
dihedral_coeff	12 bb13    2.05170    1.09820    1.37680  # hc,cp,cp,oc
dihedral_coeff	13 bb13    2.05170    1.09820    1.37680  # hc,cp,cp,oh

# Improper Coeffs

improper_coeff	1   38.79490    0.00000  # c_0,cp,cp,o_1
improper_coeff	2    0.00000    0.00000  # cp,c_0,cp,cp
improper_coeff	3    4.89120    0.00000  # cp,cp,cp,hc
improper_coeff	4   13.04210    0.00000  # cp,cp,cp,oc
improper_coeff	5   13.04210    0.00000  # cp,cp,cp,oh

# AngleAngle Coeffs

improper_coeff	1 aa    0.00000    0.00000    0.00000  110.58840  119.30000  119.30000  # c_0,cp,cp,o_1
improper_coeff	2 aa    0.00000    0.00000    0.00000  108.40000  108.40000  118.90000  # cp,c_0,cp,cp
improper_coeff	3 aa    0.00000    0.00000    0.00000  118.90000  117.94000  117.94000  # cp,cp,cp,hc
improper_coeff	4 aa    0.00000    0.00000    0.00000  118.90000  123.42000  123.42000  # cp,cp,cp,oc
improper_coeff	5 aa    0.00000    0.00000    0.00000  118.90000  123.42000  123.42000  # cp,cp,cp,oh


# --- Thermo Output ---
thermo_style custom step time temp press enthalpy etotal ke pe ebond eangle edihed eimp evdwl ecoul elong etail vol lx ly lz density pxx pyy pzz
thermo_modify flush yes
thermo 500

# --- Velocity initialization at T_START (once only — Rule A) ---
velocity all create 700.0 545879 mom yes rot yes dist gaussian

# --- Temperature staircase (inherits momenta across steps — Rule A) ---
variable temps index 700 680 660 640 620 600 580 560 540 520 500 480 460 440 420 400 380 360 350
label TEMP_LOOP
  timestep 1
  fix npt_tg all npt temp ${temps} ${temps} 100 iso 1.0 1.0 1000.0
  fix npt_tg all npt temp 700 ${temps} 100 iso 1.0 1.0 1000.0
  fix npt_tg all npt temp 700 700 100 iso 1.0 1.0 1000.0
  run 50000
PPPM Kokkos initialization ...
  using 12-bit tables for long-range coulomb
  G vector (1/distance) = 0.30965703
  grid = 40 40 40
  stencil order = 5
  estimated absolute RMS force accuracy = 0.00032768548
  estimated relative force accuracy = 9.868151e-07
  using double precision cuFFT
  3d grid and FFT values/proc = 103823 64000
Generated 21 of 21 mixed pair_coeff terms from sixthpower/sixthpower mixing rule
Neighbor list info ...
  update: every = 1 steps, delay = 0 steps, check = yes
  max neighbors/atom: 4000, page size: 100000
  master list distance cutoff = 11.5
  ghost atom cutoff = 11.5
  binsize = 11.5, bins = 5 5 5
  1 neighbor lists, perpetual/occasional/extra = 1 0 0
  (1) pair lj/class2/coul/long/kk, perpetual
      attributes: full, newton off, kokkos_device
      pair build: full/bin/kk/device
      stencil: full/bin/3d
      bin: kk/device
Per MPI rank memory allocation (min/avg/max) = 43.42 | 43.42 | 43.42 Mbytes
   Step          Time           Temp          Press         Enthalpy        TotEng         KinEng         PotEng         E_bond        E_angle        E_dihed        E_impro         E_vdwl         E_coul         E_long         E_tail         Volume           Lx             Ly             Lz          Density          Pxx            Pyy            Pzz      
         0   0              700            4947.6488      56522.952      47243.27       22741.494      24501.776      5003.4431      7275.4939      6612.6334      537.16103     -1531.9075      19711.934     -13106.982     -976.68148      128605.15      50.476138      50.476138      50.476138      1.1914855      5839.3094      3778.4723      5225.1647    
       500   500            656.01077      1052.1285      59778.027      57742.303      21312.379      36429.924      9349.2551      10061.439      9853.3011      1141.4087     -662.62661      19776.147     -13089         -946.75372      132670.48      51.002496      51.002496      51.002496      1.1549757      2001.2636      691.05126      464.07072    
      1000   1000           701.41793     -1094.6719      58993.232      61175.131      22787.56       38387.572      9851.5202      10615.264      10438.247      1260.1322     -480.7284       19795.801     -13092.664     -919.0441       136670.56      51.510013      51.510013      51.510013      1.1211718     -634.02992     -1207.3712     -1442.6146    
      1500   1500           708.65198     -315.48119      60998.548      61633.306      23022.578      38610.727      9955.0182      10630.788      10460.706      1238.5902     -419.05425      19827.509     -13082.83      -910.44305      137961.7       51.671711      51.671711      51.671711      1.1106791     -1616.5807      65.667012      604.47009    
      2000   2000           704.39152      214.68821      61720.817      61289.434      22884.165      38405.269      9934.38        10532.07       10389.825      1205.9456     -362.6327       19789.27      -13083.588     -911.65857      137777.75      51.648736      51.648736      51.648736      1.112162       521.0882       131.16626     -8.1898168    
      2500   2500           691.8209       2137.3994      65097.025      60820.367      22475.773      38344.594      10243.005      10309.332      10152.339      1223.6695     -300.99475      19804.627     -13087.385     -915.52095      137196.5       51.576002      51.576002      51.576002      1.1168738      1733.055       2444.4351      2234.7082    
      3000   3000           695.68247     -179.7748       60631.529      60990.489      22601.227      38389.262      10062.39       10337.323      10442.542      1265.5321     -440.7931       19800.303     -13078.035     -917.42186      136912.23      51.540356      51.540356      51.540356      1.1191928     -1484.2759      662.28342      282.66812    
      3500   3500           700.3215       833.68439      62921.254      61247.006      22751.939      38495.067      10088.387      10427.754      10328.769      1276.6164     -346.57912      19797.838     -13077.718     -912.15594      137702.63      51.639347      51.639347      51.639347      1.1127687      784.15164      1044.0142      672.88737    
      4000   4000           700.21223     -699.28509      59893.458      61303.46       22748.389      38555.071      10077.856      10545.269      10199.278      1256.4334     -227.62179      19786.023     -13082.167     -908.49328      138257.79      51.70865       51.70865       51.70865       1.1083005     -1844.9587      408.60192     -661.49852    
      4500   4500           708.3653      -187.63274      60954.415      61334.766      23013.265      38321.502      9950.3914      10446.894      10397.555      1262.074      -438.3593       19795.512     -13092.566     -903.67267      138995.32      51.800433      51.800433      51.800433      1.1024197      27.321272     -227.47185     -362.74766    
      5000   5000           692.41527      1096.6706      63476.371      61278.132      22495.083      38783.05       10186.16       10534.631      10277.407      1320.815      -247.65152      19804.133     -13092.445     -913.87867      137443.05      51.606879      51.606879      51.606879      1.1148703      1401.8159      316.10727      1572.0888    
      5500   5500           702.56699      268.72419      61732.573      61195.094      22824.89       38370.204      9958.9537      10385.816      10369.647      1244.0198     -293.14964      19797.952     -13093.035     -915.86675      137144.7       51.569511      51.569511      51.569511      1.1172957      708.62955     -641.67567      739.21869    
      6000   6000           695.31662     -1129.1413      58932.56       61194.015      22589.341      38604.673      9879.4156      10666.075      10489.233      1218.7729     -348.63483      19788.269     -13088.457     -914.63455      137329.46      51.592658      51.592658      51.592658      1.1157925      879.7553      -2693.7063     -1573.4728    
      6500   6500           694.48332     -672.09257      59780.676      61129.642      22562.269      38567.373      10018.048      10324.71       10576.552      1266.1994     -349.70097      19819.821     -13088.257     -912.6733       137624.57      51.629588      51.629588      51.629588      1.1133999     -713.79514     -488.35772     -814.12484    
      7000   7000           692.59784      933.93316      62837.501      60939.9        22501.014      38438.886      9802.8202      10466.813      10389.216      1277.0601     -182.70858      19774.505     -13088.82      -901.56709      139319.94      51.840728      51.840728      51.840728      1.099851       53.683927      2238.4753      509.64028    
      7500   7500           701.98173     -1430.9748      58703.802      61630.24       22805.876      38824.363      10110.272      10383.404      10536.039      1337.2381     -241.70482      19780.494     -13081.38      -895.73582      140226.91      51.952979      51.952979      51.952979      1.0927373     -2117.881      -877.81037     -1297.2331    
      8000   8000           698.09281      341.52312      61903.008      61214.397      22679.534      38534.863      9784.0245      10421.636      10555.001      1263.4858     -234.84285      19823.983     -13078.425     -908.51853      138253.95      51.708171      51.708171      51.708171      1.1083313      2075.5027     -746.46013     -304.47319    
      8500   8500           699.97247      219.95149      61745.888      61300.695      22740.6        38560.096      9791.8794      10417.347      10584.794      1271.2071     -232.80596      19815.205     -13087.531     -905.03724      138785.75      51.774386      51.774386      51.774386      1.1040844      279.90635     -1.2220324      381.17015    
      9000   9000           701.34289      871.79857      63402.518      61630.289      22785.122      38845.167      9965.3562      10638.432      10381.593      1261.7874     -130.24365      19813.231     -13084.988     -901.12195      139388.76      51.849263      51.849263      51.849263      1.099308       1022.1282      216.51968      1376.7478    
      9500   9500           690.62848     -189.43732      61010.922      61395.846      22437.034      38958.813      9937.0821      10637.708      10536.546      1277.5766     -161.11789      19811.524     -13080.506     -901.52407      139326.59      51.841552      51.841552      51.841552      1.0997986      842.52979     -1634.9579      224.11613    
     10000   10000          699.91885     -619.39521      60053.387      61318.7        22738.858      38579.843      9761.3708      10533.796      10549.396      1239.7347     -231.60752      19806.529     -13079.376     -896.72021      140072.98      51.933962      51.933962      51.933962      1.0939382     -206.66497      468.03734     -2119.558     
     10500   10500          701.41408     -124.76347      61490.961      61746.993      22787.435      38959.559      9875.2247      10577.045      10595.827      1254.7802     -76.128193      19813.896     -13081.085     -892.64682      140712.17      52.012838      52.012838      52.012838      1.0889689     -601.03608     -321.61272      548.3584     
     11000   11000          700.9426       696.76026      63004.053      61577.659      22772.117      38805.542      9778.7204      10599.107      10540.075      1279.532      -120.86459      19809.457     -13080.485     -894.81073      140371.89      51.970877      51.970877      51.970877      1.0916087      792.29621     -231.24441      1529.229     
     11500   11500          699.94987     -741.00627      59766.044      61277.571      22739.865      38537.705      9596.6265      10582.213      10543.907      1287.3542     -216.7712       19818.345     -13073.97      -898.03512      139867.88      51.908602      51.908602      51.908602      1.0955423     -1889.2819     -136.17791     -197.55897    
     12000   12000          693.85895      49.694691      61128.851      61027.043      22541.985      38485.059      9801.3858      10258.572      10592.789      1319.8062     -216.76131      19810.327     -13081.06      -894.1586       140474.26      51.983508      51.983508      51.983508      1.0908132      955.01021      58.760338     -864.68647    
     12500   12500          691.71843      185.13428      61508.32       61129.658      22472.444      38657.214      9782.0849      10232.694      10624.94       1300.0279     -3.0950137      19812.93      -13092.368     -895.61746      140245.45      51.955268      51.955268      51.955268      1.0925929     -365.75684     -551.55693      1472.7166    
     13000   13000          702.48633      228.71463      61719.545      61254.284      22822.269      38432.014      9936.1572      10264.067      10343.142      1249.211      -86.819023      19802.563     -13076.307     -900.50182      139484.75      51.861162      51.861162      51.861162      1.0985515      255.49742      1321.8989     -891.2524     
     13500   13500          694.16214     -562.54859      60550.546      61699.446      22551.835      39147.611      9995.3011      10478.657      10715.426      1282.5857     -63.591568      19819.99      -13080.757     -896.94315      140038.16      51.929659      51.929659      51.929659      1.0942101     -1659.4419      684.12231     -712.32617    
     14000   14000          703.80408      70.184537      61556.304      61412.992      22865.08       38547.911      9857.2256      10276.668      10563.87       1284.8003     -182.76719      19820.454     -13072.339     -897.11197      140011.81      51.926401      51.926401      51.926401      1.0944161      436.13144      60.137146     -285.71497    
     14500   14500          694.03495     -769.48391      59670.561      61240.963      22547.702      38693.26       9891.0023      10480.37       10609.384      1265.4929     -275.19408      19804.892     -13082.687     -897.58591      139937.88      51.91726       51.91726       51.91726       1.0949943      154.56895     -248.29371     -2214.727     
     15000   15000          689.48999     -113.14929      60438.559      60669.327      22400.046      38269.28       9848.2891      10321.797      10396.474      1172.3231     -206.73012      19815.383     -13078.255     -898.18022      139845.29      51.905807      51.905807      51.905807      1.0957193      404.78139     -188.74887     -555.48038    
     15500   15500          694.4587       1288.7327      64291.056      61662.456      22561.469      39100.986      10077.521      10504.408      10562.927      1313.047      -100.15367      19820.09      -13076.854     -898.10184      139857.49      51.907317      51.907317      51.907317      1.0956237      1139.5279      803.90631      1922.764     
     16000   16000          700.92136     -420.39851      60627.414      61486.103      22771.427      38714.676      9949.9295      10273.929      10721.182      1268.5687     -209.5446       19796.158     -13085.546     -896.83469      140055.1       51.931752      51.931752      51.931752      1.0940778      166.13805     -1718.4704      291.1368     
     16500   16500          695.7118      -2268.5164      56661.338      61306.33       22602.18       38704.151      10002.688      10304.577      10717.436      1257.4584     -294.26697      19806.152     -13089.894     -894.63131      140400.04      51.974351      51.974351      51.974351      1.0913899     -2016.5065     -3267.6304     -1521.4124    
     17000   17000          701.00798      114.57274      61581.823      61349.235      22774.241      38574.994      9888.2329      10245.964      10548.479      1253.2436     -56.612002      19783.569     -13087.883     -902.35981      139197.54      51.825543      51.825543      51.825543      1.1008181     -728.34192      2218.0629     -1146.0028    
     17500   17500          695.14238     -566.64219      60202.419      61362.481      22583.681      38778.801      9910.0414      10310.253      10648.427      1292.9357     -97.466904      19799.762     -13085.151     -894.77684      140377.2       51.971533      51.971533      51.971533      1.0915674      292.679       -1893.2105     -99.395051    
     18000   18000          705.41446     -1103.6361      59237.927      61492.229      22917.398      38574.83       9984.2873      10393.81       10521.699      1214.6343     -259.00414      19798.228     -13078.825     -896.81113      140058.78      51.932207      51.932207      51.932207      1.0940491     -758.28889     -827.7927      -1724.8266    
     18500   18500          703.90993      353.58914      62284.377      61563.809      22868.519      38695.29       9895.9921      10326.107      10638.879      1249.2398     -145.46482      19820.415     -13089.878     -898.89974      139733.35      51.891954      51.891954      51.891954      1.0965971      1338.26       -1313.9175      1036.4249    
     19000   19000          707.44034      223.85748      62257.002      61799.459      22983.215      38816.244      9856.0119      10464.18       10667.483      1328.2929     -255.40526      19834.461     -13078.78      -896.24466      140147.3       51.943146      51.943146      51.943146      1.093358       1211.6288      696.22672     -1236.2831    
     19500   19500          696.31881      1084.1475      64028.567      61811.867      22621.9        39189.967      10054.312      10652.245      10583.638      1321.5423     -180.63213      19836.052     -13077.19      -895.9188       140198.28      51.949442      51.949442      51.949442      1.0929605      1162.6329      1033.7833      1056.0262    
     20000   20000          701.97874      761.23896      63018.874      61458.792      22805.779      38653.013      9864.0338      10690.601      10296.816      1233.0457     -155.88788      19805.859     -13081.456     -893.84177      140524.06      51.98965       51.98965       51.98965       1.0904267     -187.57993      1654.6039      816.69293    
     20500   20500          698.85341      418.88948      62062.96       61215.271      22704.244      38511.027      9778.0161      10654.22       10385.534      1252.1286     -241.262        19773.681     -13091.292     -905.21089      138759.12      51.771075      51.771075      51.771075      1.1042962      2175.1904     -1403.7434      485.22146    
     21000   21000          698.3673       627.14118      62321.433      61044.273      22688.451      38355.822      9694.1848      10416.331      10377.791      1251.2046     -89.853004      19787.304     -13081.14      -899.51237      139638.18      51.88017       51.88017       51.88017       1.0973444      1470.2218      343.15627      68.045452    
     21500   21500          705.97533      493.60183      62892.587      61878.218      22935.62       38942.598      9874.0673      10619.902      10547.508      1270.695      -114.45935      19826.454     -13081.568     -891.38999      140910.57      52.037272      52.037272      52.037272      1.0874357     -386.2578       944.94661      922.11667    
     22000   22000          713.65264     -183.8653       61375.504      61751.883      23185.039      38566.844      9739.8279      10415.117      10526.168      1240.0853     -86.43816       19812.515     -13080.431     -894.87378      140362         51.969656      51.969656      51.969656      1.0916857     -437.91193      596.23215     -709.91611    
     22500   22500          705.52467     -102.54718      61477.872      61687.304      22920.979      38766.325      9939.0272      10464.612      10579.586      1237.2189     -185.61992      19813.175     -13081.674     -896.94962      140037.15      51.929534      51.929534      51.929534      1.094218       384.22383      508.63087     -1200.4962    
     23000   23000          704.99201      174.63611      62156.506      61799.842      22903.674      38896.168      10051.706      10389.686      10705.051      1237.1496     -234.49145      19829.893     -13082.825     -896.93743      140039.06      51.929769      51.929769      51.929769      1.0942032      248.59613     -11.2121        286.52431    
     23500   23500          703.76604     -148.1096       61355.989      61659.842      22863.845      38795.997      9685.1759      10617.967      10644.779      1236.0774     -126.70483      19817.664     -13078.962     -892.90946      140670.78      52.007738      52.007738      52.007738      1.0892893      36.687903      1055.9753     -1536.992     
     24000   24000          705.40106     -2961.3344      55738.304      61847.471      22916.963      38930.509      9863.191       10471.34       10750.395      1281.488      -170.71298      19816.469     -13081.661     -887.95845      141455.12      52.104219      52.104219      52.104219      1.0832494     -1954.1716     -4199.6664     -2730.1653    
     24500   24500          696.31324     -1378.8942      58630.717      61481.527      22621.719      38859.807      9805.6719      10369.874      10787.385      1275.2271     -106.11963      19811.813     -13084.044     -886.03305      141762.51      52.141934      52.141934      52.141934      1.0809006     -1760.4016     -1918.778      -457.50303    
     25000   25000          693.37101     -35.322552      61211.463      61284.415      22526.133      38758.283      9774.6809      10365.242      10590.28       1246.3562      65.357002      19794.224     -13077.857     -886.94959      141616.02      52.123967      52.123967      52.123967      1.0820187     -225.08895      882.89858     -763.77728    
     25500   25500          694.92402      191.12963      62051.122      61656.055      22576.586      39079.469      9831.7118      10549.402      10725.548      1292.5643     -58.91387       19823.631     -13084.475     -886.22669      141731.54      52.138136      52.138136      52.138136      1.0811368      189.46962     -31.558236      415.47751    
     26000   26000          700.68761      135.04492      62224.952      61945.694      22763.833      39181.861      10007.978      10442.622      10736.308      1267.4476     -22.508194      19820.773     -13070.76      -885.85167      141791.54      52.145492      52.145492      52.145492      1.0806793     -218.95282      1167.513      -543.42543    
     26500   26500          710.48743      323.253        62726.501      62057.134      23082.208      38974.926      9772.0781      10594.135      10643.802      1293.3399     -46.814836      19790.846     -13072.46      -884.63788      141986.09      52.16933       52.16933       52.16933       1.0791985      10.13885      -513.86531      1473.4855    
     27000   27000          699.97574      1501.9818      64307.229      61249.889      22740.706      38509.183      9658.9402      10369.719      10588.054      1291.7713     -140.38176      19818.203     -13077.122     -899.92897      139573.54      51.872164      51.872164      51.872164      1.0978526      2233.9143      435.56893      1836.4622    
     27500   27500          693.68641      1180.143       63699.608      61280.948      22536.379      38744.569      10050.071      10310.378      10626.727      1264.853      -261.82117      19838.528     -13084.167     -893.81378      140528.46      51.990192      51.990192      51.990192      1.0903925      2087.6593      214.46715      1238.3025    
     28000   28000          704.46197     -1.2863329      61412.655      61415.295      22886.454      38528.841      9802.9166      10426.718      10470.976      1252.5437     -157.29571      19812.667     -13079.685     -892.38666      140753.19      52.017892      52.017892      52.017892      1.0886515     -431.49613      1966.2934     -1538.6563    
     28500   28500          698.74565      441.02719      62451.074      61545.96       22700.743      38845.217      9955.8924      10545.511      10481.416      1225.0823     -76.777787      19799.182     -13085.088     -892.58423      140722.04      52.014054      52.014054      52.014054      1.0888926      91.993239     -1711.2267      2942.3151    
     29000   29000          694.80206     -1651.1636      58186.14       61588.022      22572.624      39015.398      10013.346      10587.813      10760.459      1263.2394     -348.70101      19815.591     -13076.349     -889.11506      141271.11      52.081616      52.081616      52.081616      1.0846604     -1968.2845     -1122.646      -1862.5603    
     29500   29500          698.33433     -158.62294      61034.942      61358.374      22687.38       38670.994      9787.0838      10470.307      10662.534      1249.1603     -204.7342       19790.17      -13083.527     -898.40055      139810.99      51.901563      51.901563      51.901563      1.0959881     -444.6222       216.7345      -247.98113    
     30000   30000          696.70971      336.11962      62006.882      61318.512      22634.6        38683.912      9903.237       10447.652      10506.546      1252.6009     -148.1736       19804.15      -13082.1       -894.45672      140427.44      51.977732      51.977732      51.977732      1.0911769     -1264.1359     -471.20843      2743.7032    
     30500   30500          694.82637      190.60273      62005.461      61612.067      22573.414      39038.653      9922.8766      10514.43       10688.823      1283.9976     -113.53272      19817.205     -13075.146     -887.54158      141521.56      52.112376      52.112376      52.112376      1.0827409     -1102.5781      706.72677      967.65955    
     31000   31000          704.70351     -1379.1273      58942.64       61803.234      22894.301      38908.933      9874.6332      10427.986      10649.065      1241.9905     -10.507948      19803.685     -13077.919     -883.1517       142225.02      52.198578      52.198578      52.198578      1.0773855     -1902.9471     -1211.042      -1023.3927    
     31500   31500          699.42748      255.51639      62141.438      61613.599      22722.894      38890.705      9915.332       10492.836      10567.595      1230.38       -14.312402      19784.36      -13085.486     -886.75641      141646.87      52.127752      52.127752      52.127752      1.081783       384.18883      145.03259      237.32773    
     32000   32000          699.55505      1185.1774      63833.468      61394.606      22727.039      38667.567      9810.3974      10488.98       10429.55       1283.5965     -61.532291      19798.639     -13082.063     -890.19111      141100.34      52.060622      52.060622      52.060622      1.0859731      1586.5474      8.2463256      1960.7385    
     32500   32500          702.26107     -313.18067      61049.027      61695.509      22814.951      38880.557      9917.2301      10504.793      10617.018      1239.8435     -128.69446      19813.89      -13083.522     -887.41367      141541.96      52.114879      52.114879      52.114879      1.0825848     -663.08873     -620.3865       343.93321    
     33000   33000          692.31965     -379.37112      60680.379      61456.351      22491.976      38964.375      9700.5412      10574.11       10810.378      1310.4917     -161.16711      19816.837     -13086.815     -895.58197      140251         51.955954      51.955954      51.955954      1.0925496     -142.37225     -11.753342     -983.98776    
     33500   33500          703.23361     -240.41057      61351.146      61842.178      22846.547      38995.631      9869.2983      10495.538      10731.039      1281.9167     -136.79614      19834.197     -13079.561     -896.87274      140049.16      51.931017      51.931017      51.931017      1.0941243     -1329.8161      1519.1786     -910.59422    
     34000   34000          695.97047     -1647.0395      58085.445      61523.148      22610.583      38912.565      9876.5182      10445.139      10809.613      1283.0521     -208.96422      19795.116     -13087.909     -877.65297      143116.1       52.307364      52.307364      52.307364      1.0706774     -792.70082     -1649.3598     -2499.058     
     34500   34500          695.05471     -76.375668      61143.64       61301.714      22580.832      38720.882      9588.3241      10284.305      10801.144      1294.3946      12.579605      19816.54      -13076.405     -885.07786      141915.5       52.160684      52.160684      52.160684      1.0797353      586.98313      48.902204     -865.01234    
     35000   35000          698.33782     -315.51824      60606.648      61261.807      22687.493      38574.314      9725.994       10293.727      10561.73       1278.75       -15.03801       19811.755     -13082.604     -882.19638      142379.04      52.217413      52.217413      52.217413      1.0762201     -1520.8165      766.14127     -191.87948    
     35500   35500          702.94647      1141.0839      63840.096      61486.029      22837.219      38648.81       9580.3977      10540.562      10623.104      1235.1607     -46.215435      19798.649     -13082.847     -887.94475      141457.3       52.104487      52.104487      52.104487      1.0832327      1501.2268      341.48666      1580.5382    
     36000   36000          699.38423     -735.28848      60168.053      61685.447      22721.489      38963.958      9860.1786      10612.769      10649.895      1234.7543     -150.36237      19831.941     -13075.217     -887.66028      141502.64      52.110052      52.110052      52.110052      1.0828857     -806.8507      -1335.5032     -63.511496    
     36500   36500          697.52007     -896.48174      59955.68       61812.027      22660.926      39151.1        9897.8972      10567.917      10677.723      1225.0115      60.880671      19800.184     -13078.513     -884.64632      141984.73      52.169165      52.169165      52.169165      1.0792088     -3151.1951     -1342.4323      1804.1821    
     37000   37000          704.07693     -589.46602      60766.01       61986.949      22873.945      39113.004      9911.7811      10451.004      10843.055      1248.0691     -84.269839      19818.11      -13074.745     -884.40672      142023.2       52.173875      52.173875      52.173875      1.0789165     -87.829171     -1056.8693     -623.69962    
     37500   37500          696.79513      202.57819      61694.161      61274.734      22637.375      38637.359      9784.3848      10376.881      10504.108      1240.3538      3.042289       19809.075     -13080.486     -884.75636      141967.07      52.167002      52.167002      52.167002      1.0793431      145.93936     -1239.1755      1700.9708    
     38000   38000          696.76026      1748.3872      65254.069      61665.13       22636.242      39028.888      9942.2252      10702.124      10513.294      1232.0447     -103.83473      19820.147     -13077.112     -892.39815      140751.38      52.017669      52.017669      52.017669      1.0886656      1729.0831      2558.4134      957.66518    
     38500   38500          697.64955     -283.15157      60603.907      61186.918      22665.133      38521.785      9828.4788      10455.281      10302.185      1226.2738     -17.847317      19801.809     -13074.394     -889.67073      141182.87      52.070771      52.070771      52.070771      1.0853383     -49.333478     -541.20457     -258.91666    
     39000   39000          701.43351      26.13146       61482.731      61428.522      22788.066      38640.456      9779.13        10447.775      10526.083      1230.2128     -44.742452      19790.238     -13088.241     -883.03288      142244.16      52.200919      52.200919      52.200919      1.0772406     -563.11263      812.7168      -171.20979    
     39500   39500          708.46354     -1379.7054      59134.1        62029.469      23016.456      39013.013      9844.7037      10478.555      10696.252      1223.7559      22.43035       19820.987     -13073.671     -872.91022      143893.69      52.401926      52.401926      52.401926      1.0648916     -2523.1157     -927.57337     -688.42718    
     40000   40000          698.82124      289.70585      62340.807      61740.627      22703.199      39037.428      9977.195       10521.647      10621.461      1287.7666     -103.08538      19808.616     -13076.173     -884.22498      142052.39      52.17745       52.17745       52.17745       1.0786948     -225.32614      154.54859      939.89509    
     40500   40500          694.12718      341.59758      62009.705      61306.55       22550.699      38755.851      9609.0783      10712.06       10574.602      1212.8065     -112.00207      19834.577     -13075.27      -889.92043      141143.26      52.0659        52.0659        52.0659        1.0856429      559.09716     -321.17404      786.86961    
     41000   41000          693.59132      830.96875      62945.84       61219.444      22533.29       38686.154      9576.5448      10463.673      10547.813      1275.0498      81.914195      19820.563     -13079.404     -881.72112      142455.78      52.226793      52.226793      52.226793      1.0756403      2682.7201     -825.99861      636.18473    
     41500   41500          696.14934      25.611858      61740.099      61686.952      22616.395      39070.558      9870.1677      10597.255      10660.324      1251.2086     -64.490252      19837.501     -13081.408     -882.78001      142284.91      52.205903      52.205903      52.205903      1.0769321      318.26416      1242.5706     -1483.9992    
     42000   42000          698.44005     -1543.3644      58496.19       61692.653      22690.815      39001.839      9767.8624      10687.99       10627.88       1243.4232     -33.486262      19793.087     -13084.917     -884.47576      142012.11      52.172518      52.172518      52.172518      1.0790008     -2005.1018     -666.42463     -1958.5669    
     42500   42500          697.49443     -1579.5657      58213.194      61455.28       22660.094      38795.186      9626.1916      10436.932      10900.598      1282.7036     -167.23123      19805.339     -13089.346     -892.48382      140737.87      52.016004      52.016004      52.016004      1.0887701     -28.11101      -1727.3614     -2983.2247    
     43000   43000          697.58282      270.6315       61599.054      61042.363      22662.965      38379.398      9687.1017      10275.279      10585.477      1242.9653     -203.05786      19866.297     -13074.665     -890.53679      141045.57      52.053885      52.053885      52.053885      1.0863948      60.085543      2480.3979     -1728.5889    
     43500   43500          697.98578     -851.06487      59876.581      61650.202      22676.056      38974.145      9736.3472      10454.703      10806.161      1262.9124     -34.526536      19822.965     -13074.416     -879.00073      142896.66      52.280616      52.280616      52.280616      1.0723216     -428.57491     -764.65319     -1359.9665    
     44000   44000          696.52285      264.42329      62292.256      61743.896      22628.529      39115.367      9993.5484      10533.92       10629.656      1248.3315     -31.357687      19823.288     -13082.019     -883.32693      142196.81      52.195126      52.195126      52.195126      1.0775993      269.62224     -815.14359      1338.7912    
     44500   44500          698.60922      810.08356      63256.415      61585.021      22696.311      38888.711      9832.4353      10530.761      10525.678      1268.8051      8.1461804      19809.383     -13086.498     -887.84743      141472.81      52.106391      52.106391      52.106391      1.083114       275.27673      1093.8348      1061.1391    
     45000   45000          696.11141      1708.3265      64551.316      61031.843      22615.162      38416.681      9734.6         10343.833      10424.68       1227.8123     -33.527113      19805.54      -13086.258     -889.16115      141263.79      52.080716      52.080716      52.080716      1.0847166      996.86273      2208.678       1919.4389    
     45500   45500          700.66393     -178.52256      61225.013      61595.749      22763.064      38832.685      9757.1529      10414.308      10729.56       1287.952      -101.93638      19827.307     -13081.659     -882.09673      142395.12      52.219379      52.219379      52.219379      1.0760985     -63.979567      118.90262     -590.49073    
     46000   46000          697.87276     -756.4836       60128.161      61698.937      22672.385      39026.553      9965.9982      10350.18       10705.73       1237.2328      52.039995      19797.78      -13082.409     -882.21094      142376.69      52.217125      52.217125      52.217125      1.0762378      676.97267     -467.0393      -2479.3842    
     46500   46500          701.7848      -743.88962      60276.493      61819.14       22799.478      39019.662      9703.1635      10595.513      10772.957      1300.31       -75.402699      19807.117     -13083.996     -883.34241      142194.32      52.194821      52.194821      52.194821      1.0776182     -1222.8204     -1270.9992      262.15069    
     47000   47000          706.28012     -94.574457      61920.106      62115.551      22945.522      39170.029      9944.9991      10490.189      10756.384      1278.5016     -38.782771      19826.372     -13087.633     -886.41325      141701.71      52.134478      52.134478      52.134478      1.0813644      959.50095      78.083814     -1321.3081    
     47500   47500          707.25713      997.81034      64017.325      61948.271      22977.263      38971.008      9769.7358      10503.795      10672.708      1262.3229      4.1091978      19839.86      -13081.522     -883.41209      142183.1       52.193449      52.193449      52.193449      1.0777032      785.01153      1182.932       1025.4875    
     48000   48000          692.69417     -1232.6407      58826.094      61375.67       22504.143      38871.527      9592.3465      10507.189      10828.485      1245.1584     -36.545231      19822.81      -13087.917     -885.63689      141825.92      52.149707      52.149707      52.149707      1.0804173     -614.37247     -2952.9623     -130.58727    
     48500   48500          696.75768     -194.94075      60885.628      61285.592      22636.158      38649.434      9748.8965      10452.157      10549.869      1231.2951     -90.731912      19839.599     -13081.651     -892.82934      140683.4       52.009294      52.009294      52.009294      1.0891916     -564.20232      418.93072     -439.55064    
     49000   49000          690.37488      1257.3195      63640.068      61056.411      22428.795      38627.616      9673.4821      10441.123      10733.672      1219.1054     -150.62031      19798.045     -13087.191     -891.45208      140900.75      52.036064      52.036064      52.036064      1.0875114      1712.9363      2324.82       -265.79779    
     49500   49500          700.9397       505.39312      62943.432      61896.627      22772.023      39124.604      9971.6981      10648.361      10508.411      1252.3047      0.28052572     19822.49      -13078.94      -884.4042       142023.6       52.173925      52.173925      52.173925      1.0789135     -465.55351      688.95581      1292.7771    
     50000   50000          704.87977      1046.4476      63927.829      61772.456      22900.027      38872.429      9742.7507      10451.676      10670.532      1271.1558     -13.054314      19832.525     -13083.157     -889.36974      141230.65      52.076644      52.076644      52.076644      1.0849711      1603.0761      929.27745      606.98935    
Loop time of 288.917 on 1 procs for 50000 steps with 10900 atoms

Performance: 14.952 ns/day, 1.605 hours/ns, 173.060 timesteps/s, 1.886 Matom-step/s
100.0% CPU use with 1 MPI tasks x 1 OpenMP threads

MPI task timing breakdown:
Section |  min time  |  avg time  |  max time  |%varavg| %total
---------------------------------------------------------------
Pair    | 133.82     | 133.82     | 133.82     |   0.0 | 46.32
Bond    | 38.811     | 38.811     | 38.811     |   0.0 | 13.43
Kspace  | 55.619     | 55.619     | 55.619     |   0.0 | 19.25
Neigh   | 31.479     | 31.479     | 31.479     |   0.0 | 10.90
Comm    | 3.7737     | 3.7737     | 3.7737     |   0.0 |  1.31
Output  | 0.06414    | 0.06414    | 0.06414    |   0.0 |  0.02
Modify  | 16.365     | 16.365     | 16.365     |   0.0 |  5.66
Other   |            | 8.98       |            |       |  3.11

Nlocal:          10900 ave       10900 max       10900 min
Histogram: 1 0 0 0 0 0 0 0 0 0
Nghost:          21739 ave       21739 max       21739 min
Histogram: 1 0 0 0 0 0 0 0 0 0
Neighs:              0 ave           0 max           0 min
Histogram: 1 0 0 0 0 0 0 0 0 0
FullNghs:  5.35033e+06 ave 5.35033e+06 max 5.35033e+06 min
Histogram: 1 0 0 0 0 0 0 0 0 0

Total # of neighbors = 5350330
Ave neighs/atom = 490.85596
Ave special neighs/atom = 5.6385321
Neighbor list builds = 3888
Dangerous builds = 0
  unfix npt_tg
  shell echo '{"stage":"T${temps}","status":"done"}' >> /home/arz2/PolyJarvis/data/PEEK2/lammps/thermal/tg_sweep_r400/tg_progress.jsonl
  print "STAGE COMPLETE: Tg step T=${temps}K P=1.0atm steps=50000"
STAGE COMPLETE: Tg step T=700K P=1.0atm steps=50000
  next temps
  jump SELF TEMP_LOOP
  timestep 1
  fix npt_tg all npt temp ${temps} ${temps} 100 iso 1.0 1.0 1000.0
  fix npt_tg all npt temp 680 ${temps} 100 iso 1.0 1.0 1000.0
  fix npt_tg all npt temp 680 680 100 iso 1.0 1.0 1000.0
  run 50000
PPPM Kokkos initialization ...
  using 12-bit tables for long-range coulomb
  G vector (1/distance) = 0.30675575
  grid = 40 40 40
  stencil order = 5
  estimated absolute RMS force accuracy = 0.00036228245
  estimated relative force accuracy = 1.0910028e-06
  using double precision cuFFT
  3d grid and FFT values/proc = 103823 64000
Generated 21 of 21 mixed pair_coeff terms from sixthpower/sixthpower mixing rule
Per MPI rank memory allocation (min/avg/max) = 43.51 | 43.51 | 43.51 Mbytes
   Step          Time           Temp          Press         Enthalpy        TotEng         KinEng         PotEng         E_bond        E_angle        E_dihed        E_impro         E_vdwl         E_coul         E_long         E_tail         Volume           Lx             Ly             Lz          Density          Pxx            Pyy            Pzz      
     50000   50000          704.87977      1046.4457      63927.824      61772.455      22900.027      38872.428      9742.7507      10451.676      10670.532      1271.1558     -13.054314      19718.962     -12969.595     -889.36974      141230.65      52.076644      52.076644      52.076644      1.0849711      1603.0757      929.27611      606.98546    
     50500   50500          677.17153      644.52266      61280.404      59948.107      21999.846      37948.261      9399.6117      10091.597      10538.647      1226.2552     -31.870995      19694.524     -12970.503     -886.18489      141738.22      52.138955      52.138955      52.138955      1.0810858      663.22205      486.65384      783.69209    
     51000   51000          676.29182     -412.5345       59273.063      60123.469      21971.266      38152.202      9489.8885      10310.632      10484.045      1243.1051     -119.26663      19713.858     -12970.059     -888.63043      141348.15      52.091082      52.091082      52.091082      1.0840692     -857.38947     -1006.9957      626.78169    
     51500   51500          686.57418      1455.8394      63607.893      60601.224      22305.318      38295.906      9761.6921      10178.717      10366.649      1223.9863      15.318499      19719.124     -12969.581     -886.98242      141610.78      52.123324      52.123324      52.123324      1.0820587      2106.6857      1052.8417      1207.9907    
     52000   52000          691.75412      563.8577       61861.229      60692.681      22473.603      38219.077      9628.0484      10293.487      10384.782      1194.0217     -22.51191       19706.676     -12965.425     -883.91368      142102.42      52.183574      52.183574      52.183574      1.0783151      299.64327      570.75824      821.17159    
     52500   52500          685.80307      1618.4608      63661.646      60322.402      22280.266      38042.136      9508.9214      10250.52       10448.191      1192.3476     -91.221913      19706.377     -12972.999     -887.85341      141471.86      52.106274      52.106274      52.106274      1.0831213      1850.4939      1293.1492      1711.7393    
     53000   53000          678.71407      346.74549      60839.595      60130.375      22049.96       38080.415      9442.9668      10417.525      10463.915      1222.475      -191.89998      19702.444     -12977.01      -895.60647      140247.17      51.955481      51.955481      51.955481      1.0925795     -489.20949     -2.2014567      1531.6474    
     53500   53500          669.62255     -1193.3482      57664.993      60094.736      21754.596      38340.14       9676.4062      10329.296      10651.418      1263.5401     -313.12291      19698.183     -12965.581     -899.69232      139610.25      51.876711      51.876711      51.876711      1.0975639     -107.90372     -2530.0222     -942.11857    
     54000   54000          682.97665     -1168.4067      58200.201      60601.549      22188.442      38413.107      9627.7239      10505.811      10476.59       1244.4341     -201.94089      19729.088     -12968.599     -891.30459      140924.07      52.038934      52.038934      52.038934      1.0873315      88.806885     -1928.4675     -1665.5595    
     54500   54500          690.30207     -639.40966      59071.163      60382.671      22426.429      37956.242      9621.1179      10197.957      10373.377      1216.0812     -174.65642      19694.901     -12972.536     -893.09058      140642.25      52.004222      52.004222      52.004222      1.0895103      425.48027     -1122.2548     -1221.4545    
     55000   55000          679.51122     -152.97862      59964.148      60277.026      22075.858      38201.168      9741.7885      10125.581      10460.252      1233.4025     -90.787552      19702.423     -12971.491     -895.65898      140238.94      51.954465      51.954465      51.954465      1.0926435     -177.61273      717.38714     -998.71029    
     55500   55500          679.1898       97.426934      60391.835      60190.28       22065.415      38124.865      9591.0176      10476.553      10162.282      1224.0248     -36.356906      19678.021     -12970.677     -885.46764      141853.03      52.15303       52.15303       52.15303       1.0802108      1229.401      -2048.3713      1111.2511    
     56000   56000          676.27453      572.60414      61073.589      59892.415      21970.705      37921.71       9448.456       10231.27       10395.185      1192.6659     -56.198274      19686.638     -12976.306     -888.03028      141443.68      52.102814      52.102814      52.102814      1.083337       937.92407     -216.79922      996.68758    
     56500   56500          685.74919      1600.9582      63589.64       60313.847      22278.516      38035.331      9508.6424      10244.996      10485.967      1217.9741     -153.26355      19702.084     -12971.068     -895.26331      140300.93      51.962118      51.962118      51.962118      1.0921609      2640.6089      1827.9239      334.34192    
     57000   57000          680.54397      506.91871      61432.809      60392.301      22109.409      38282.892      9821.5695      10475.063      10228.305      1180.3184     -158.09703      19706.74      -12971.007     -892.44249      140744.39      52.016807      52.016807      52.016807      1.0887196     -1181.3066      181.15561      2520.9071    
     57500   57500          678.09795     -1314.7937      57383.846      60085.683      22029.944      38055.74       9564.4406      10192.863      10422.043      1183.4225     -7.8355562      19676.782     -12975.976     -891.42667      140904.77      52.036559      52.036559      52.036559      1.0874804     -876.2748      -2046.0805     -1022.0259    
     58000   58000          674.03712     -857.88211      58157.041      59931.046      21898.016      38033.03       9376.5158      10363.441      10580.246      1182.9053     -208.02104      19709.351     -12971.407     -885.84934      141791.91      52.145538      52.145538      52.145538      1.0806764     -1714.5546     -730.44704     -128.64474    
     58500   58500          679.17534      2231.2981      64616.979      60031.025      22064.946      37966.079      9565.8045      10305.592      10263.387      1208.3535     -98.168657      19692.682     -12971.572     -891.28196      140927.65      52.039375      52.039375      52.039375      1.0873039      2041.2483      1914.082       2738.5642    
     59000   59000          684.51768      512.74938      61298.121      60246.398      22238.507      38007.891      9542.5593      10401.912      10310.272      1166.1296     -121.41982      19676.766     -12968.328     -893.08163      140643.66      52.004396      52.004396      52.004396      1.0894994     -784.66952      1010.4533      1312.4643    
     59500   59500          692.46988     -459.57615      59536.249      60486.146      22496.857      37989.289      9468.302       10343.58       10350.131      1212.5275     -97.468305      19686.494     -12974.277     -886.27418      141723.94      52.137204      52.137204      52.137204      1.0811947      236.22981     -808.02594     -806.93234    
     60000   60000          680.35872     -21.832912      60588.779      60633.527      22103.391      38530.136      9392.8193      10324.489      10900.505      1267.352      -102.07012      19716.838     -12969.797     -893.77158      140535.09      51.991011      51.991011      51.991011      1.090341      -459.81632      1374.7894     -980.47183    
     60500   60500          683.57002     -764.22561      58719.058      60291.595      22207.719      38083.876      9491.6683      10205.865      10559.915      1230.5139     -116.73882      19682.834     -12970.182     -890.24169      141092.33      52.059636      52.059636      52.059636      1.0860348     -1245.5737     -1034.8992     -12.203921    
     61000   61000          681.10565     -584.08235      58923.13       60127.401      22127.657      37999.744      9454.9393      10263.875      10529.323      1218.4197     -185.58682      19693.384     -12974.611     -888.45878      141375.46      52.094437      52.094437      52.094437      1.0838598     -322.26806      239.74209     -1669.7211    
     61500   61500          682.62714     -1825.7311      56669.883      60414.665      22177.087      38237.577      9472.487       10389.455      10511.809      1225.021      -101.65519      19706.452     -12965.992     -893.09477      140641.59      52.004141      52.004141      52.004141      1.0895154     -1265.2102     -1192.2586     -3019.7244    
     62000   62000          687.39956     -81.31353       60447.613      60613.22       22332.133      38281.087      9570.1586      10544.606      10353.268      1226.1613     -139.72423      19695.273     -12968.656     -899.43942      139649.5       51.881573      51.881573      51.881573      1.0972554     -437.88617      389.92296     -195.97738    
     62500   62500          686.40165      305.51105      61116.456      60487.827      22299.713      38188.114      9491.6868      10409.838      10340.428      1256.1103     -34.724197      19697.431     -12972.656     -890.26527      141088.59      52.059177      52.059177      52.059177      1.0860636      503.56756      330.24968      82.715909    
     63000   63000          677.27768      756.53091      61870.296      60300.532      22003.295      38297.237      9683.5721      10112.995      10478.676      1242.1265      55.074018      19697.953     -12973.16      -882.8349       142276.06      52.204821      52.204821      52.204821      1.076999      -363.62686      99.295224      2533.9244    
     63500   63500          675.85493      571.24419      61391.8        60203.437      21957.073      38246.364      9762.8255      10291.358      10246.528      1212.8951     -8.1808804      19704.313     -12963.375     -880.56161      142643.36      52.249707      52.249707      52.249707      1.0742258      369.83301     -317.87066      1661.7702    
     64000   64000          679.29222     -202.3653       59450.196      59865.607      22068.743      37796.864      9374.8739      10156.047      10479.002      1207.548      -143.01684      19691.106     -12968.696     -892.37163      140755.56      52.018184      52.018184      52.018184      1.0886332     -58.303687      529.25085     -1078.0431    
     64500   64500          683.50571      1010.2969      62216.168      60142.187      22205.63       37936.557      9622.4571      10123.137      10313.132      1227.5772     -75.906926      19696.52      -12970.359     -892.3422       140760.2       52.018756      52.018756      52.018756      1.0885973      1666.6395      1996.5917     -632.34037    
     65000   65000          677.22716      1443.3855      63054.342      60107.673      22001.653      38106.019      9680.5465      10385.637      10275.103      1232.7986     -204.82426      19702.603     -12965.845     -897.30111      139982.3       51.922752      51.922752      51.922752      1.0946468      1797.3869      1407.9564      1124.813     
     65500   65500          675.59998     -993.00854      57920.169      59946.719      21948.79       37997.929      9647.8119      10206.304      10556.464      1222.3018     -335.63205      19672.676     -12971.997     -897.60033      139935.63      51.916982      51.916982      51.916982      1.0950119     -2356.6633      357.02795     -979.39033    
     66000   66000          682.12247      1237.9699      62619.901      60069.149      22160.692      37908.458      9772.977       10219.344      10176.136      1210.1522     -187.16806      19695.21      -12978.193     -889.05611      141280.48      52.082767      52.082767      52.082767      1.0845885      1063.4236     -177.58658      2828.0727    
     66500   66500          679.57058      1368.355       63146.339      60322.376      22077.786      38244.59       9597.1179      10500.004      10302.813      1203.6624     -88.358995      19707.526     -12978.174     -887.62002      141509.06      52.11084       52.11084       52.11084       1.0828366      1175.532       1325.6332      1603.8999    
     67000   67000          685.20925      1126.5147      62700.192      60384.82       22260.975      38123.845      9720.8969      10175.771      10270.343      1230.3366      3.7415093      19688.078     -12965.321     -891.25773      140931.48      52.039846      52.039846      52.039846      1.0872743      1579.8939      1563.6231      236.02703    
     67500   67500          689.42841      216.2597       60914.298      60470.45       22398.046      38072.404      9671.9092      10402.323      10187.044      1210.6481     -122.1052       19694.491     -12971.906     -892.5416       140728.76      52.014882      52.014882      52.014882      1.0888405      824.72325     -827.94434      652.00019    
     68000   68000          686.73735      1725.8629      64160.663      60615.989      22310.619      38305.37       9703.9996      10511.977      10240.004      1244.4546     -122.70534      19699.481     -12971.84      -891.90207      140829.67      52.027311      52.027311      52.027311      1.0880604      1117.3351      2394.707       1665.5466    
     68500   68500          689.24494      1418.9027      63299.119      60374.762      22392.085      37982.676      9569.066       10244.173      10332.653      1225.7566     -127.35296      19706.872     -12968.492     -888.81105      141319.43      52.087553      52.087553      52.087553      1.0842895      360.1718       3217.2625      679.27394    
     69000   69000          675.5564      -89.633704      59999.281      60182.889      21947.374      38235.515      9615.3482      10430.349      10354.585      1241.0488     -156.13524      19712.584     -12962.266     -894.26302      140457.86      51.981485      51.981485      51.981485      1.0909406     -1441.6858      451.37888      721.40579    
     69500   69500          683.11624      111.50158      60201.336      59972.773      22192.977      37779.796      9554.6928      10313.498      10143.542      1203.5469     -175.90155      19716.248     -12975.83      -893.64121      140555.59      51.993539      51.993539      51.993539      1.090182      -547.70826      908.04622     -25.833226    
     70000   70000          678.99413      1172.72        62241.212      59846.023      22059.059      37786.965      9820.0243      10025.825      10191.775      1215.1451     -161.13971      19672.938     -12977.603     -896.89551      140045.6       51.930578      51.930578      51.930578      1.094152       2043.479      -594.19301      2068.874     
     70500   70500          672.80212     -177.82713      59448.955      59812.801      21857.894      37954.907      9561.8807      10338.423      10262.729      1183.1612     -142.34039      19716.183     -12965.13      -895.29822      140295.45      51.961443      51.961443      51.961443      1.0922034      703.5916      -1570.5724      333.49939    
     71000   71000          678.4621      -1340.1453      57632.027      60395.33       22041.774      38353.556      9621.5595      10274.556      10561.596      1193.3731     -80.925131      19741.374     -12957.978     -888.40403      141384.17      52.095507      52.095507      52.095507      1.083793      -2995.8685     -441.38226     -583.18503    
     71500   71500          678.17595      46.544234      60605.42       60510.02       22032.478      38477.542      9672.0451      10402.313      10423.813      1238.6875     -32.59152       19730.877     -12957.602     -893.73253      140541.23      51.991768      51.991768      51.991768      1.0902934      561.64408      1565.2781     -1987.2895    
     72000   72000          685.44379     -327.35076      59492.921      60163.444      22268.594      37894.85       9495.6328      10263.427      10434.052      1181.4886     -220.10456      19705.879     -12965.525     -894.3082       140450.76      51.98061       51.98061       51.98061       1.0909957     -1276.6266      657.03752     -362.46322    
     72500   72500          679.93074      892.94282      62106.739      60278.452      22089.487      38188.965      9724.8152      10335.364      10299.736      1194.7846     -101.94248      19697.927     -12961.72      -894.67757      140392.78      51.973455      51.973455      51.973455      1.0914463      1916.5846     -605.02439      1367.2682    
     73000   73000          686.18676      1140.6081      63001.219      60658.191      22292.732      38365.46       9481.7035      10414.669      10622.818      1205.2588     -87.798871      19707.549     -12978.74      -891.75636      140852.68      52.030145      52.030145      52.030145      1.0878826      1892.7741      1320.2865      208.76367    
     73500   73500          679.50457     -1772.0165      56696.549      60352.778      22075.642      38277.136      9607.6191      10367.196      10392.374      1213.0486     -32.646269      19701.25      -12971.705     -887.8132       141478.26      52.107061      52.107061      52.107061      1.0830722     -2202.0743     -1608.5799     -1505.3951    
     74000   74000          674.91672     -1588.322       56906.175      60180.221      21926.592      38253.629      9782.017       10229.26       10487.849      1193.2077     -168.20661      19697.766     -12968.264     -888.67106      141341.69      52.090288      52.090288      52.090288      1.0841187     -912.75069     -2475.119      -1377.0964    
     74500   74500          676.35188     -786.51932      58315.607      59926.176      21973.218      37952.958      9483.7257      10114.57       10564.047      1200.4537     -126.3656       19687.507     -12970.98      -894.57581      140408.75      51.975426      51.975426      51.975426      1.0913221     -826.43199     -138.1661      -1394.9599    
     75000   75000          678.55687     -526.79594      59016.476      60098.349      22044.853      38053.496      9576.3604      10460.207      10208.313      1191.8354     -81.693324      19671.211     -12972.737     -891.97623      140817.96      52.025869      52.025869      52.025869      1.0881508     -446.2786      -389.84368     -744.26555    
     75500   75500          676.39172     -325.89696      59489.418      60161.753      21974.512      38187.241      9613.7989      10395.235      10270.703      1199.3181     -4.6572994      19682.93      -12970.087     -887.93646      141458.62      52.104649      52.104649      52.104649      1.0832226     -782.30564     -1540.263       1344.8777    
     76000   76000          687.69104      858.92934      62429.189      60681.969      22341.603      38340.366      9805.3787      10373.115      10343.693      1238.8461     -119.94929      19677.965     -12978.683     -900.52739      139480.79      51.860671      51.860671      51.860671      1.0985827      407.66581      290.25717      1878.865     
     76500   76500          680.38357     -125.02895      59869.299      60124.266      22104.199      38020.067      9610.9424      10145.5        10505.873      1246.0823     -175.02138      19663.763     -12977.072     -898.28756      139828.58      51.903739      51.903739      51.903739      1.0958502      148.38032      163.93453     -687.4017     
     77000   77000          678.14083      492.94785      61009.133      59999.954      22031.337      37968.617      9390.3701      10324.352      10445.54       1222.4774     -112.82439      19677.099     -12978.397     -894.788        140375.45      51.971317      51.971317      51.971317      1.091581      -1081.788       1683.4342      877.19732    
     77500   77500          678.5421       362.99669      60604.403      59862.84       22044.373      37818.467      9432.1852      10352.558      10314.937      1209.2645     -186.43448      19676.063     -12980.107     -896.68924      140077.82      51.93456       51.93456       51.93456       1.0939004      1237.2658     -733.11842      584.84272    
     78000   78000          689.27504      217.16495      61228.498      60781.747      22393.063      38388.684      9700.3441      10292.306      10549.078      1266.6078     -151.86703      19708.892     -12976.678     -890.45296      141058.85      52.055519      52.055519      52.055519      1.0862926      236.04539     -480.02438      895.47384    
     78500   78500          674.54677      209.80355      60521.788      60089.784      21914.573      38175.21       9629.0269      10454.205      10235.446      1224.4869     -103.03621      19712.841     -12977.758     -889.63645      141188.31      52.07144       52.07144       52.07144       1.0852965     -703.40102      1591.7027     -258.89104    
     79000   79000          676.82055     -1209.9883      57385.917      59876.01       21988.444      37887.566      9430.4379      10376.037      10341.876      1225.8698     -232.94996      19716.355     -12970.06      -890.12851      141110.27      52.061843      52.061843      52.061843      1.0858967     -2465.8951     -32.212252     -1131.8574    
     79500   79500          674.46723      204.55254      60335.349      59915.242      21911.989      38003.253      9628.293       10141.72       10468.553      1211.6328     -180.69662      19710.064     -12976.313     -891.93223      140824.9       52.026725      52.026725      52.026725      1.0880972     -1766.8276      193.36065      2187.1245    
     80000   80000          672.96913     -1087.5115      57924.355      60144.701      21863.319      38281.382      9800.3743      10323.726      10323.537      1190.5893     -86.829618      19700.6       -12970.616     -897.22328      139994.44      51.924254      51.924254      51.924254      1.0945519     -755.9755       10.549602     -2517.1085    
     80500   80500          681.88261      427.54306      61464.475      60587.909      22152.899      38435.01       9838.7677      10348.259      10313.403      1236.9854     -47.883894      19711.47      -12965.991     -893.47529      140581.69      51.996757      51.996757      51.996757      1.0899796      243.23017      481.67796      557.72106    
     81000   81000          682.35933      731.32741      62002.493      60487.494      22168.387      38319.108      9655.0375      10299.148      10388.833      1268.8777     -32.135412      19700.813     -12961.466     -884.27408      142044.5       52.176484      52.176484      52.176484      1.0787547      860.44491      1015.4648      318.07257    
     81500   81500          679.34151     -800.34149      58545.543      60206.187      22070.344      38135.843      9699.9094      10238.35       10388.916      1218.5736     -145.28833      19705.092     -12969.711     -882.84839      142273.89      52.204555      52.204555      52.204555      1.0770155     -1021.9854     -1327.5016     -51.537442    
     82000   82000          670.04061      222.10789      60247.118      59790.165      21768.178      38021.987      9619.9003      10246.649      10338.523      1231.2603     -169.69137      19718.028     -12962.682     -890.38882      141069.01      52.056769      52.056769      52.056769      1.0862143      353.50353      38.378081      274.44207    
     82500   82500          669.42182     -812.03413      58202.379      59867.507      21748.075      38119.432      9551.6862      10334.161      10544.012      1221.8885     -238.90425      19679.12      -12972.532     -893.33408      140603.92      51.999497      51.999497      51.999497      1.0898073     -1366.8653     -2007.7006      938.4635     
[...]
    926000   926000         350.92161      368.55693      38132.7        37440.98       11400.688      26040.292      5667.0073      7749.0504      6884.4642      610.17701     -1471.0066      19713.442     -13112.842     -976.02645      128691.46      50.487428      50.487428      50.487428      1.1906864      609.62947      455.41774      40.623591    
    926500   926500         349.59752     -638.29794      36161.948      37357.086      11357.671      25999.414      5654.6323      7674.6137      7053.7679      621.581       -1604.9451      19709.078     -13109.313     -978.34655      128386.28      50.447487      50.447487      50.447487      1.1935168      233.79831     -205.65527     -1943.0369    
    927000   927000         351.92274     -1425.1224      34964.882      37644.867      11433.213      26211.654      5655.4577      7864.2878      7015.2105      616.40148     -1534.5383      19704.309     -13109.474     -974.10791      128944.92      50.520552      50.520552      50.520552      1.1883459     -1950.6585     -372.93339     -1951.7754    
    927500   927500         350.68083     -761.6679       36130.766      37556.745      11392.866      26163.879      5663.0863      7738.3699      7117.2591      638.23567     -1586.1311      19704.261     -13111.202     -978.4524       128372.39      50.445667      50.445667      50.445667      1.1936459      422.62178     -2574.1386     -133.48685    
    928000   928000         344.41129     -782.85765      35835.113      37299.79       11189.182      26110.608      5648.6077      7802.6482      7004.988       640.91005     -1595.6196      19723.542     -13114.468     -979.10201      128287.22      50.434508      50.434508      50.434508      1.1944384     -1987.0754     -941.00223      579.50462    
    928500   928500         350.77775     -177.66244      37255.357      37587.529      11396.015      26191.514      5659.6419      7794.5127      7059.0433      640.07981     -1555.3343      19703.655     -13110.084     -979.76041      128201.01      50.423209      50.423209      50.423209      1.1952416     -1265.3909      313.64585      418.75774    
    929000   929000         350.79202      1018.7782      39441.237      37535.585      11396.478      26139.107      5712.8668      7659.2511      7074.8625      601.75645     -1511.6844      19717.282     -13115.228     -979.31691      128259.06      50.430819      50.430819      50.430819      1.1947006     -324.27328      1765.9285      1614.6794    
    929500   929500         348.30273      231.24579      37792.886      37360.187      11315.607      26044.58       5633.5375      7651.9001      7061.0163      639.97548     -1537.1094      19712.202     -13116.942     -978.98239      128302.89      50.436563      50.436563      50.436563      1.1942925      262.4262       408.23758      23.073598    
    930000   930000         352.81277      179.69247      37797.511      37459.415      11462.128      25997.287      5591.8366      7679.2004      6970.9942      621.92901     -1460.2893      19705.08      -13111.464     -973.59196      129013.26      50.529474      50.529474      50.529474      1.1877165      1597.4796      339.26643     -1397.6686    
    930500   930500         351.60117     -3.6213646      37570.932      37577.702      11422.766      26154.936      5579.9658      7710.2897      7123.8062      619.8365      -1473.2749      19708.793     -13114.48      -979.91495      128180.79      50.420558      50.420558      50.420558      1.1954301     -871.36482      725.99429      134.50643    
    931000   931000         355.78631     -292.1923       37141.468      37688.7        11558.732      26129.968      5548.2092      7781.0946      7111.5278      651.15141     -1543.9775      19700.663     -13118.7       -978.10328      128418.21      50.451669      50.451669      50.451669      1.19322       -678.22138      408.1362      -606.49173    
    931500   931500         349.30033     -890.10779      35812.136      37479.652      11348.016      26131.636      5556.6817      7739.3407      7104.3636      627.72281     -1482.9273      19702.349     -13115.895     -977.82193      128455.16      50.456507      50.456507      50.456507      1.1928768     -1890.8275     -137.6794      -641.81651    
    932000   932000         351.15104     -665.57665      36156.146      37405.937      11408.142      25997.796      5594.2172      7662.586       7016.9965      625.25745     -1509.9877      19719.107     -13110.381     -975.54617      128754.82      50.495712      50.495712      50.495712      1.1901005      194.25144     -649.13313     -1541.8483    
    932500   932500         350.97027     -52.972954      37385.275      37484.592      11402.269      26082.323      5553.4037      7713.1254      7038.521       630.14054     -1445.9828      19703.491     -13110.375     -977.05452      128556.05      50.469714      50.469714      50.469714      1.1919406     -76.515592     -729.37428      646.97101    
    933000   933000         352.93067     -595.06629      36553.603      37671.366      11465.958      26205.408      5692.5993      7762.8491      7001.8892      646.65266     -1497.3578      19710.507     -13111.732     -975.22018      128797.86      50.501337      50.501337      50.501337      1.1897028     -584.09795      148.46667     -1349.5676    
    933500   933500         354.68592     -1754.7187      34380.165      37680.611      11522.983      26157.629      5619.7425      7693.6988      7130.9303      631.62211     -1498.4633      19695.617     -13115.519     -973.91733      128970.16      50.523847      50.523847      50.523847      1.1881135     -1185.2709     -1681.6047     -2397.2805    
    934000   934000         347.70423     -501.23451      36495.232      37437.141      11296.162      26140.978      5626.7774      7730.0574      7021.7777      610.4414      -1440.3657      19705.366     -13113.075     -974.80885      128852.21      50.50844       50.50844       50.50844       1.1892011     -891.42994     -58.531844     -553.74176    
    934500   934500         346.66854      1015.9337      39294.254      37389.131      11262.515      26126.616      5661.1757      7696.0203      7021.0913      631.88672     -1477.0782      19705.097     -13111.577     -976.85385      128582.46      50.473169      50.473169      50.473169      1.1916958      1069.7854      1324.4463      653.5694     
    935000   935000         346.9412      -635.0738       36072.937      37265.107      11271.373      25993.734      5573.0771      7714.3302      6977.3338      635.53935     -1490.7027      19700.104     -13115.948     -975.82819      128717.61      50.490847      50.490847      50.490847      1.1904446     -873.76169      630.64352     -1662.1032    
    935500   935500         346.62665      985.52687      39183.867      37328.315      11261.154      26067.161      5676.4758      7665.4251      6943.9107      630.28068     -1447.6606      19714.804     -13116.075     -972.93176      129100.8       50.540901      50.540901      50.540901      1.1869111      630.13405      1565.1594      761.28717    
    936000   936000         350.27008     -1192.7823      35254.101      37498.283      11379.521      26118.762      5520.4731      7780.764       7095.6326      602.7164      -1483.2268      19719.513     -13117.11      -973.62186      129009.3       50.528957      50.528957      50.528957      1.187753      -627.02772     -218.96008     -2732.359     
    936500   936500         347.75613     -1343.9328      34894.829      37415.614      11297.848      26117.766      5641.3346      7641.6458      7103.4624      637.91172     -1534.0148      19737.451     -13110.024     -976.62746      128612.27      50.477069      50.477069      50.477069      1.1914196     -958.72691     -1432.5807     -1640.4908    
    937000   937000         351.51366      603.19962      38661.226      37528.651      11419.923      26108.729      5652.4436      7714.1388      6961.3897      652.38984     -1485.5864      19727.404     -13113.451     -975.62155      128744.87      50.494411      50.494411      50.494411      1.1901925      1506.2339      401.11794     -97.753027    
    937500   937500         349.01526      1793.3069      40671.101      37304.194      11338.755      25965.438      5677.4016      7725.7098      6858.6623      619.9469      -1520.3494      19720.978     -13116.911     -975.68737      128736.19      50.493276      50.493276      50.493276      1.1902728      1291.7184      1701.8801      2386.3223    
    938000   938000         347.68802      1077.9789      39301.739      37281.705      11295.636      25986.069      5566.2738      7793.06        6893.1427      634.00292     -1512.9258      19724.686     -13112.171     -977.5494       128490.97      50.461196      50.461196      50.461196      1.1925443      288.56328      1254.5403      1690.8331    
    938500   938500         356.85717      629.83292      38869.006      37687.592      11593.522      26094.071      5605.049       7683.9373      6969.6676      641.89411     -1423.5017      19726.078     -13109.053     -976.58648      128617.66      50.477775      50.477775      50.477775      1.1913696      1016.6253      1228.7457     -355.87219    
    939000   939000         351.10347      109.37565      37839.532      37634.132      11406.597      26227.536      5706.8911      7658.6049      7028.122       632.54905     -1402.6369      19716.691     -13112.686     -975.45473      128766.89      50.49729       50.49729       50.49729       1.189989       797.95431     -3.1479602     -466.67941    
    939500   939500         347.45752      339.91729      38018.357      37380.725      11288.148      26092.578      5673.2219      7661.694       6998.9026      640.95423     -1482.3207      19711.411     -13111.286     -976.54091      128623.66      50.47856       50.47856       50.47856       1.191314       997.09651     -580.96788      603.62325    
    940000   940000         353.32638     -651.84536      36309.925      37532.812      11478.814      26053.998      5610.8225      7711.2469      7034.0018      632.15481     -1520.5469      19700.483     -13114.164     -976.43989      128636.97      50.480301      50.480301      50.480301      1.1911908     -820.10499     -809.60647     -325.82463    
    940500   940500         354.58802      573.05188      38615.777      37543.454      11519.802      26023.652      5630.0859      7653.3477      7010.262       636.91117     -1504.8104      19714.293     -13116.437     -978.93856      128308.63      50.437315      50.437315      50.437315      1.194239       1305.1018      689.19797     -275.14409    
    941000   941000         350.45482     -650.08215      36162.967      37387.941      11385.523      26002.418      5495.6834      7682.6891      7019.2925      651.08561     -1435.9448      19701.018     -13111.407     -972.13941      129206.03      50.554628      50.554628      50.554628      1.1859445     -1562.053      -391.51244      3.3189694    
    941500   941500         351.57351     -69.937553      37483.581      37614.581      11421.867      26192.714      5722.7243      7841.0711      6851.5677      636.83315     -1453.5897      19702.626     -13108.519     -977.9729       128435.33      50.453911      50.453911      50.453911      1.193061       147.385       -326.39381     -30.803842    
    942000   942000         349.33377      1104.1073      39703.165      37629.067      11349.103      26279.964      5661.0392      7871.1905      6908.1704      644.33861     -1405.0453      19716.57      -13116.3       -975.14519      128807.76      50.502632      50.502632      50.502632      1.1896114      489.751        772.86614      2049.7047    
    942500   942500         350.43439     -409.83495      36865.779      37637.301      11384.859      26252.442      5627.1134      7687.963       7131.7231      659.73416     -1451.1714      19711.374     -13114.295     -973.07822      129081.37      50.538365      50.538365      50.538365      1.1870898     -738.72315      466.74418     -957.52589    
    943000   943000         349.29915      1236.397       39862.739      37543.523      11347.978      26195.545      5634.2749      7707.5629      7036.0575      649.49294     -1439.6375      19724.184     -13116.39      -976.57128      128619.66      50.478037      50.478037      50.478037      1.1913511     -10.232096      542.43308      3176.9899    
    943500   943500         348.8761       228.26205      37751.097      37326.014      11334.234      25991.78       5561.9935      7648.3769      7012.2662      638.93783     -1470.7727      19718.387     -13117.409     -983.66452      127692.18      50.356411      50.356411      50.356411      1.2000044     -1444.3153      1215.4996      913.60184    
    944000   944000         348.93352     -1160.7609      35221.561      37409.539      11336.1        26073.439      5594.245       7712.0621      7076.2189      630.87097     -1541.6         19714.24      -13112.597     -971.8226       129248.15      50.560121      50.560121      50.560121      1.185558       63.709357     -1865.8096     -1680.1825    
    944500   944500         350.24763      876.37797      39135.718      37498.146      11378.792      26119.354      5652.9553      7767.2166      6871.0765      643.7074      -1423.5235      19721.331     -13113.41      -980.34344      128124.76      50.413211      50.413211      50.413211      1.1959529     -327.70449      2699.2908      257.54756    
    945000   945000         356.06231      92.212865      37784.63       37611.88       11567.698      26044.182      5639.7747      7731.5484      7018.3852      633.3636      -1583.8896      19719.53      -13114.531     -977.82364      128454.93      50.456478      50.456478      50.456478      1.1928789      291.6591       414.43119     -429.45169    
    945500   945500         349.43151      603.86021      38634.065      37500.843      11352.278      26148.565      5691.2541      7797.5447      6915.7311      641.90533     -1498.3965      19718.497     -13117.971     -976.13196      128677.55      50.485609      50.485609      50.485609      1.1908152     -607.16898      2208.3051      210.44448    
    946000   946000         347.93597      1119.2308      39288.114      37185.907      11303.691      25882.216      5594.423       7694.2911      6861.6379      625.80955     -1507.1453      19729.748     -13116.548     -975.28461      128789.35      50.500225      50.500225      50.500225      1.1897814      341.94698      422.04703      2593.6985    
    946500   946500         342.7307      -341.52455      36725.243      37368.392      11134.583      26233.809      5763.0717      7742.5994      7005.0788      605.90582     -1468.1923      19697.512     -13112.166     -972.74079      129126.15      50.544208      50.544208      50.544208      1.1866782     -286.32696     -732.21468     -6.032014     
    947000   947000         353.5227      -852.59605      35939.007      37545.163      11485.192      26059.971      5525.9875      7759.4286      7126.6634      618.78791     -1559.0897      19707.607     -13119.414     -972.39518      129172.04      50.550196      50.550196      50.550196      1.1862565     -1033.1152     -16.004242     -1508.6687    
    947500   947500         352.61939     -27.506987      37430.64       37481.98       11455.845      26026.134      5563.7823      7846.4439      6968.3245      645.5497      -1611.7618      19727.563     -13113.767     -981.4814       127976.21      50.39372       50.39372       50.39372       1.1973411     -821.25818      1007.9193     -269.18208    
    948000   948000         345.54833     -591.68548      36333.65       37443.131      11226.122      26217.009      5654.2653      7686.156       7128.6694      653.02673     -1517.4891      19725.448     -13113.068     -976.91837      128573.97      50.472058      50.472058      50.472058      1.1917745     -1945.1181     -36.607997      206.66968    
    948500   948500         350.08506      36.682933      37441.846      37373.171      11373.51       25999.661      5552.1807      7764.5656      6899.4271      639.91481     -1445.481       19701.589     -13112.535     -978.48081      128368.66      50.445179      50.445179      50.445179      1.1936806     -134.46884      129.05365      115.46399    
    949000   949000         348.84712      557.87115      38335.535      37290.081      11333.293      25956.788      5610.4223      7807.2812      6879.1232      618.7852      -1572.4582      19730.863     -13117.228     -977.49829      128497.69      50.462075      50.462075      50.462075      1.192482       395.52571      108.78429      1169.3034    
    949500   949500         346.99677     -950.03149      35516.128      37300.757      11273.178      26027.579      5593.2232      7767.8479      6898.0993      619.12678     -1450.6923      19715.187     -13115.213     -975.16329      128805.37      50.50232       50.50232       50.50232       1.1896334     -449.57721     -1013.3938     -1387.1235    
    950000   950000         350.37108     -963.43335      35762.064      37571.616      11382.803      26188.813      5601.7149      7698.7998      7122.9913      649.74023     -1494.2653      19724.76      -13114.928     -975.29921      128787.42      50.499973      50.499973      50.499973      1.1897992     -1291.2704     -525.19393     -1073.8357    
Loop time of 275.703 on 1 procs for 50000 steps with 10900 atoms

Performance: 15.669 ns/day, 1.532 hours/ns, 181.355 timesteps/s, 1.977 Matom-step/s
100.0% CPU use with 1 MPI tasks x 1 OpenMP threads

MPI task timing breakdown:
Section |  min time  |  avg time  |  max time  |%varavg| %total
---------------------------------------------------------------
Pair    | 142.78     | 142.78     | 142.78     |   0.0 | 51.79
Bond    | 38.229     | 38.229     | 38.229     |   0.0 | 13.87
Kspace  | 55.03      | 55.03      | 55.03      |   0.0 | 19.96
Neigh   | 12.741     | 12.741     | 12.741     |   0.0 |  4.62
Comm    | 1.7378     | 1.7378     | 1.7378     |   0.0 |  0.63
Output  | 0.015768   | 0.015768   | 0.015768   |   0.0 |  0.01
Modify  | 16.274     | 16.274     | 16.274     |   0.0 |  5.90
Other   |            | 8.896      |            |       |  3.23

Nlocal:          10900 ave       10900 max       10900 min
Histogram: 1 0 0 0 0 0 0 0 0 0
Nghost:          22741 ave       22741 max       22741 min
Histogram: 1 0 0 0 0 0 0 0 0 0
Neighs:              0 ave           0 max           0 min
Histogram: 1 0 0 0 0 0 0 0 0 0
FullNghs:  5.87141e+06 ave 5.87141e+06 max 5.87141e+06 min
Histogram: 1 0 0 0 0 0 0 0 0 0

Total # of neighbors = 5871412
Ave neighs/atom = 538.66165
Ave special neighs/atom = 5.6385321
Neighbor list builds = 1573
Dangerous builds = 0
  unfix npt_tg
  shell echo '{"stage":"T${temps}","status":"done"}' >> /home/arz2/PolyJarvis/data/PEEK2/lammps/thermal/tg_sweep_r400/tg_progress.jsonl
  print "STAGE COMPLETE: Tg step T=${temps}K P=1.0atm steps=50000"
STAGE COMPLETE: Tg step T=350K P=1.0atm steps=50000
  next temps
  jump SELF TEMP_LOOP

write_data tg_step_out.data
System init for write_data ...
PPPM Kokkos initialization ...
  using 12-bit tables for long-range coulomb
  G vector (1/distance) = 0.30961907
  grid = 40 40 40
  stencil order = 5
  estimated absolute RMS force accuracy = 0.00032815064
  estimated relative force accuracy = 9.8821591e-07
  using double precision cuFFT
  3d grid and FFT values/proc = 103823 64000
Generated 21 of 21 mixed pair_coeff terms from sixthpower/sixthpower mixing rule
Total wall time: 1:29:35
