units real
atom_style full
boundary p p p

# --- Force Field Styles ---
pair_style lj/class2/coul/long 9.5 9.5
kspace_style pppm 1e-6
dielectric 1.000000
bond_style class2
angle_style class2
dihedral_style class2
improper_style class2
special_bonds lj/coul 0 0 1
pair_modify mix sixthpower tail yes
neighbor 2.0 bin
neigh_modify delay 0 every 1 check yes
neigh_modify one 4000
# KOKKOS: package loaded via -pk kokkos on the command line

read_data /home/alexzhao/PolyJarvis/data/PS4/lammps/equil/npt_prod300/npt_prod300_out.data
Reading data file ...
  orthogonal box = (4.7668088 4.7668088 4.7668088) to (45.967876 45.967876 45.967876)
  1 by 1 by 1 MPI processor grid
  reading atoms ...
  6420 atoms
  reading velocities ...
  6420 velocities
  scanning bonds ...
  4 = max bonds/atom
  scanning angles ...
  14 = max angles/atom
  scanning dihedrals ...
  34 = max dihedrals/atom
  scanning impropers ...
  11 = max impropers/atom
  orthogonal box = (4.7668088 4.7668088 4.7668088) to (45.967876 45.967876 45.967876)
  1 by 1 by 1 MPI processor grid
  reading bonds ...
  6810 bonds
  reading angles ...
  12000 angles
  reading dihedrals ...
  19110 dihedrals
  reading impropers ...
  5600 impropers
Finding 1-2 1-3 1-4 neighbors ...
  special bond factors lj:    0        0        1       
  special bond factors coul:  0        0        1       
     4 = max # of 1-2 neighbors
     8 = max # of 1-3 neighbors
    12 = max # of special neighbors
  special bonds CPU = 0.004 seconds
  read_data CPU = 0.404 seconds
include /home/alexzhao/PolyJarvis/data/PS4/lammps/cell/emc_build.params
# LAMMPS parameters created by EMC v9.4.4, build Jul 31 2025 20:33:44

# Variables

variable	seed		index	472913
variable	ntotal		index	6420
variable	fshape		index	1
variable	output		index	emc_build
variable	field		index	pcff/pcff
variable	location1	index	~/emc/field/
variable	nav		index	0.6022141179
variable	temperature	index	300
variable	radius		index	5
variable	nrelax		index	100
variable	weight_nonbond	index	0.0001
variable	weight_bond	index	0.0001
variable	weight_focus	index	1
variable	cutoff		index	9.5
variable	charge_cutoff	index	9.5
variable	kappa		index	4
variable	density1	index	0.53
variable	lprevious	index	0
variable	lphase		index	50.7346850343
variable	f_poly		index	10
variable	chem_repeat	index	*CC(c1ccccc1)*
variable	chem_cap	index	*[H]
variable	lg_repeat	index	16
variable	lg_cap		index	1
variable	norm_poly	index	100
variable	l_poly		index	642
variable	mg_repeat	index	92.14181
variable	mg_cap		index	1.00797
variable	m_poly		index	3687.68834
variable	n_poly		index	10
variable	mtotal		index	41681.3434
variable	nphase1		index	6420
variable	mphase1		index	41681.3434
variable	vphase1		index	130591.498627
variable	lbox		index	50.7346850343
variable	lphase1		index	50.7346850343
variable	lxx		index	50.7346850343
variable	lyy		index	50.7346850343
variable	lzz		index	50.7346850343
variable	lzy		index	0
variable	lzx		index	0
variable	lyx		index	0
variable	vtotal		index	130591.498627
variable	nl_poly		index	10

# Types

variable	type_c		index	1
variable	type_c1		index	2
variable	type_cp		index	3
variable	type_hc		index	4

variable	type_bond_c_c	index	1
variable	type_bond_c_c1	index	2
variable	type_bond_c_cp	index	3
variable	type_bond_c_hc	index	4
variable	type_bond_c1_cp	index	5
variable	type_bond_c1_hc	index	6
variable	type_bond_cp_cp	index	7
variable	type_bond_cp_hc	index	8

variable	type_angle_c_c_c1 index	1
variable	type_angle_c_c_cp index	2
variable	type_angle_c_c_hc index	3
variable	type_angle_c_c1_c index	4
variable	type_angle_c_c1_cp index	5
variable	type_angle_c_c1_hc index	6
variable	type_angle_c_cp_cp index	7
variable	type_angle_c1_c_c1 index	8
variable	type_angle_c1_c_hc index	9
variable	type_angle_c1_cp_cp index	10
variable	type_angle_cp_c_hc index	11
variable	type_angle_cp_c1_hc index	12
variable	type_angle_cp_cp_cp index	13
variable	type_angle_cp_cp_hc index	14
variable	type_angle_hc_c_hc index	15

# Clusters

variable	n0_poly		index	1
variable	n1_poly		index	10
variable	nl_poly		index	10

# Flags

variable	flag_charged	index	1

# Masses

mass		1    12.01115  # c
mass		2    12.01115  # c1
mass		3    12.01115  # cp
mass		4     1.00797  # hc

# Potentials

pair_modify	mix sixthpower tail yes
special_bonds	lj/coul 0 0 1

# Pair Coeffs

pair_coeff	 1  1    0.05400    4.01000  # c,c
pair_coeff	 2  2    0.05400    4.01000  # c1,c1
pair_coeff	 3  3    0.06400    4.01000  # cp,cp
pair_coeff	 4  4    0.02000    2.99500  # hc,hc

# Bond Coeffs

bond_coeff	1    1.53000  299.67000 -501.77000  679.81000  # c,c
bond_coeff	2    1.53000  299.67000 -501.77000  679.81000  # c,c1
bond_coeff	3    1.50100  321.90210 -521.82080  572.16280  # c,cp
bond_coeff	4    1.10100  345.00000 -691.89000  844.60000  # c,hc
bond_coeff	5    1.50100  321.90210 -521.82080  572.16280  # c1,cp
bond_coeff	6    1.10100  345.00000 -691.89000  844.60000  # c1,hc
bond_coeff	7    1.41700  470.83610 -627.61790 1327.63450  # cp,cp
bond_coeff	8    1.09820  372.82510 -803.45260  894.31730  # cp,hc

# Angle Coeffs

angle_coeff	 1  112.67000   39.51600   -7.44300   -9.55830  # c,c,c1
angle_coeff	 2  108.40000   43.95940   -8.39240   -9.33790  # c,c,cp
angle_coeff	 3  110.77000   41.45300  -10.60400    5.12900  # c,c,hc
angle_coeff	 4  112.67000   39.51600   -7.44300   -9.55830  # c,c1,c
angle_coeff	 5  108.40000   43.95940   -8.39240   -9.33790  # c,c1,cp
angle_coeff	 6  110.77000   41.45300  -10.60400    5.12900  # c,c1,hc
angle_coeff	 7  120.05000   44.71480  -22.73520    0.00000  # c,cp,cp
angle_coeff	 8  112.67000   39.51600   -7.44300   -9.55830  # c1,c,c1
angle_coeff	 9  110.77000   41.45300  -10.60400    5.12900  # c1,c,hc
angle_coeff	10  120.05000   44.71480  -22.73520    0.00000  # c1,cp,cp
angle_coeff	11  111.00000   44.32340   -9.44540    0.00000  # cp,c,hc
angle_coeff	12  111.00000   44.32340   -9.44540    0.00000  # cp,c1,hc
angle_coeff	13  118.90000   61.02260  -34.99310    0.00000  # cp,cp,cp
angle_coeff	14  117.94000   35.15580  -12.46820    0.00000  # cp,cp,hc
angle_coeff	15  107.66000   39.64100  -12.92100   -2.43180  # hc,c,hc

# BondBond Coeffs

angle_coeff	 1 bb    0.00000    1.53000    1.53000  # c,c,c1
angle_coeff	 2 bb    0.00000    1.53000    1.50100  # c,c,cp
angle_coeff	 3 bb    3.38720    1.53000    1.10100  # c,c,hc
angle_coeff	 4 bb    0.00000    1.53000    1.53000  # c,c1,c
angle_coeff	 5 bb    0.00000    1.53000    1.50100  # c,c1,cp
angle_coeff	 6 bb    3.38720    1.53000    1.10100  # c,c1,hc
angle_coeff	 7 bb   12.06760    1.50100    1.41700  # c,cp,cp
angle_coeff	 8 bb    0.00000    1.53000    1.53000  # c1,c,c1
angle_coeff	 9 bb    3.38720    1.53000    1.10100  # c1,c,hc
angle_coeff	10 bb   12.06760    1.50100    1.41700  # c1,cp,cp
angle_coeff	11 bb    2.91680    1.50100    1.10100  # cp,c,hc
angle_coeff	12 bb    2.91680    1.50100    1.10100  # cp,c1,hc
angle_coeff	13 bb   68.28560    1.41700    1.41700  # cp,cp,cp
angle_coeff	14 bb    1.07950    1.41700    1.09820  # cp,cp,hc
angle_coeff	15 bb    5.33160    1.10100    1.10100  # hc,c,hc

# BondAngle Coeffs

angle_coeff	 1 ba    8.01600    8.01600    1.53000    1.53000  # c,c,c1
angle_coeff	 2 ba    0.00000    0.00000    1.53000    1.50100  # c,c,cp
angle_coeff	 3 ba   20.75400   11.42100    1.53000    1.10100  # c,c,hc
angle_coeff	 4 ba    8.01600    8.01600    1.53000    1.53000  # c,c1,c
angle_coeff	 5 ba    0.00000    0.00000    1.53000    1.50100  # c,c1,cp
angle_coeff	 6 ba   20.75400   11.42100    1.53000    1.10100  # c,c1,hc
angle_coeff	 7 ba   47.05790   31.07710    1.50100    1.41700  # c,cp,cp
angle_coeff	 8 ba    8.01600    8.01600    1.53000    1.53000  # c1,c,c1
angle_coeff	 9 ba   20.75400   11.42100    1.53000    1.10100  # c1,c,hc
angle_coeff	10 ba   47.05790   31.07710    1.50100    1.41700  # c1,cp,cp
angle_coeff	11 ba   26.46080   11.77170    1.50100    1.10100  # cp,c,hc
angle_coeff	12 ba   26.46080   11.77170    1.50100    1.10100  # cp,c1,hc
angle_coeff	13 ba   28.87080   28.87080    1.41700    1.41700  # cp,cp,cp
angle_coeff	14 ba   20.00330   24.21830    1.41700    1.09820  # cp,cp,hc
angle_coeff	15 ba   18.10300   18.10300    1.10100    1.10100  # hc,c,hc

# Dihedral Coeffs

dihedral_coeff	 1    0.00000    0.00000    0.05140    0.00000   -0.14300    0.00000  # c,c,c1,c
dihedral_coeff	 2    0.00000    0.00000    0.00000    0.00000    0.15800  180.00000  # c,c,c1,cp
dihedral_coeff	 3    0.00000    0.00000    0.03160    0.00000   -0.16810    0.00000  # c,c,c1,hc
dihedral_coeff	 4   -0.28020    0.00000   -0.06780    0.00000   -0.01220    0.00000  # c,c,cp,cp
dihedral_coeff	 5    0.00000    0.00000    0.05140    0.00000   -0.14300    0.00000  # c,c1,c,c1
dihedral_coeff	 6    0.00000    0.00000    0.03160    0.00000   -0.16810    0.00000  # c,c1,c,hc
dihedral_coeff	 7   -0.28020    0.00000   -0.06780    0.00000   -0.01220    0.00000  # c,c1,cp,cp
dihedral_coeff	 8    0.00000    0.00000    4.40720    0.00000    0.00000    0.00000  # c,cp,cp,cp
dihedral_coeff	 9    0.00000    0.00000    1.55900    0.00000    0.00000    0.00000  # c,cp,cp,hc
dihedral_coeff	10    0.00000    0.00000    0.00000    0.00000    0.15800  180.00000  # c1,c,c,cp
dihedral_coeff	11    0.00000    0.00000    0.03160    0.00000   -0.16810    0.00000  # c1,c,c,hc
dihedral_coeff	12    0.00000    0.00000    0.00000    0.00000    0.15800  180.00000  # c1,c,c1,cp
dihedral_coeff	13    0.00000    0.00000    0.03160    0.00000   -0.16810    0.00000  # c1,c,c1,hc
dihedral_coeff	14    0.00000    0.00000    4.40720    0.00000    0.00000    0.00000  # c1,cp,cp,cp
dihedral_coeff	15    0.00000    0.00000    1.55900    0.00000    0.00000    0.00000  # c1,cp,cp,hc
dihedral_coeff	16   -0.02280    0.00000    0.02800    0.00000   -0.18630    0.00000  # cp,c,c,hc
dihedral_coeff	17   -0.02280    0.00000    0.02800    0.00000   -0.18630    0.00000  # cp,c1,c,hc
dihedral_coeff	18   -0.28010    0.00000   -0.06780    0.00000   -0.01220    0.00000  # cp,cp,c,hc
dihedral_coeff	19   -0.28010    0.00000   -0.06780    0.00000   -0.01220    0.00000  # cp,cp,c1,hc
dihedral_coeff	20    8.36670    0.00000    1.19320    0.00000    0.00000    0.00000  # cp,cp,cp,cp
dihedral_coeff	21    0.00000    0.00000    3.96610    0.00000    0.00000    0.00000  # cp,cp,cp,hc
dihedral_coeff	22   -0.14320    0.00000    0.06170    0.00000   -0.10830    0.00000  # hc,c,c,hc
dihedral_coeff	23   -0.14320    0.00000    0.06170    0.00000   -0.10830    0.00000  # hc,c,c1,hc
dihedral_coeff	24    0.00000    0.00000    1.87690    0.00000    0.00000    0.00000  # hc,cp,cp,hc

# MiddleBondTorsion Coeffs

dihedral_coeff	 1 mbt  -17.78700   -7.18770    0.00000    1.53000  # c,c,c1,c
dihedral_coeff	 2 mbt    0.00000    0.00000    0.00000    1.53000  # c,c,c1,cp
dihedral_coeff	 3 mbt  -14.87900   -3.65810   -0.31380    1.53000  # c,c,c1,hc
dihedral_coeff	 4 mbt    0.00000    0.00000    0.00000    1.50100  # c,c,cp,cp
dihedral_coeff	 5 mbt  -17.78700   -7.18770    0.00000    1.53000  # c,c1,c,c1
dihedral_coeff	 6 mbt  -14.87900   -3.65810   -0.31380    1.53000  # c,c1,c,hc
dihedral_coeff	 7 mbt    0.00000    0.00000    0.00000    1.50100  # c,c1,cp,cp
dihedral_coeff	 8 mbt    0.00000    9.17920    0.00000    1.41700  # c,cp,cp,cp
dihedral_coeff	 9 mbt    0.00000    3.94210    0.00000    1.41700  # c,cp,cp,hc
dihedral_coeff	10 mbt    0.00000    0.00000    0.00000    1.53000  # c1,c,c,cp
dihedral_coeff	11 mbt  -14.87900   -3.65810   -0.31380    1.53000  # c1,c,c,hc
dihedral_coeff	12 mbt    0.00000    0.00000    0.00000    1.53000  # c1,c,c1,cp
dihedral_coeff	13 mbt  -14.87900   -3.65810   -0.31380    1.53000  # c1,c,c1,hc
dihedral_coeff	14 mbt    0.00000    9.17920    0.00000    1.41700  # c1,cp,cp,cp
dihedral_coeff	15 mbt    0.00000    3.94210    0.00000    1.41700  # c1,cp,cp,hc
dihedral_coeff	16 mbt    0.00000    0.00000    0.00000    1.53000  # cp,c,c,hc
dihedral_coeff	17 mbt    0.00000    0.00000    0.00000    1.53000  # cp,c1,c,hc
dihedral_coeff	18 mbt   -5.56790    1.40830    0.30100    1.50100  # cp,cp,c,hc
dihedral_coeff	19 mbt   -5.56790    1.40830    0.30100    1.50100  # cp,cp,c1,hc
dihedral_coeff	20 mbt   27.59890   -2.31200    0.00000    1.41700  # cp,cp,cp,cp
dihedral_coeff	21 mbt    0.00000   -1.15210    0.00000    1.41700  # cp,cp,cp,hc
dihedral_coeff	22 mbt  -14.26100   -0.53220   -0.48640    1.53000  # hc,c,c,hc
dihedral_coeff	23 mbt  -14.26100   -0.53220   -0.48640    1.53000  # hc,c,c1,hc
dihedral_coeff	24 mbt    0.00000    4.82280    0.00000    1.41700  # hc,cp,cp,hc

# EndBondTorsion Coeffs

dihedral_coeff	 1 ebt   -0.07320    0.00000    0.00000   -0.07320    0.00000    0.00000    1.53000    1.53000  # c,c,c1,c
dihedral_coeff	 2 ebt    0.00000    0.00000    0.00000    0.00000    0.00000    0.00000    1.53000    1.50100  # c,c,c1,cp
dihedral_coeff	 3 ebt    0.24860    0.24220   -0.09250    0.08140    0.05910    0.22190    1.53000    1.10100  # c,c,c1,hc
dihedral_coeff	 4 ebt    0.00000    0.00000    0.00000    0.00000    0.00000    0.00000    1.53000    1.41700  # c,c,cp,cp
dihedral_coeff	 5 ebt   -0.07320    0.00000    0.00000   -0.07320    0.00000    0.00000    1.53000    1.53000  # c,c1,c,c1
dihedral_coeff	 6 ebt    0.24860    0.24220   -0.09250    0.08140    0.05910    0.22190    1.53000    1.10100  # c,c1,c,hc
dihedral_coeff	 7 ebt    0.00000    0.00000    0.00000    0.00000    0.00000    0.00000    1.53000    1.41700  # c,c1,cp,cp
dihedral_coeff	 8 ebt    0.00000    0.24210    0.00000    0.00000   -0.69180    0.00000    1.50100    1.41700  # c,cp,cp,cp
dihedral_coeff	 9 ebt    0.00000   -1.79700    0.00000    0.00000   -0.48790    0.00000    1.50100    1.09820  # c,cp,cp,hc
dihedral_coeff	10 ebt    0.00000    0.00000    0.00000    0.00000    0.00000    0.00000    1.53000    1.50100  # c1,c,c,cp
dihedral_coeff	11 ebt    0.24860    0.24220   -0.09250    0.08140    0.05910    0.22190    1.53000    1.10100  # c1,c,c,hc
dihedral_coeff	12 ebt    0.00000    0.00000    0.00000    0.00000    0.00000    0.00000    1.53000    1.50100  # c1,c,c1,cp
dihedral_coeff	13 ebt    0.24860    0.24220   -0.09250    0.08140    0.05910    0.22190    1.53000    1.10100  # c1,c,c1,hc
dihedral_coeff	14 ebt    0.00000    0.24210    0.00000    0.00000   -0.69180    0.00000    1.50100    1.41700  # c1,cp,cp,cp
dihedral_coeff	15 ebt    0.00000   -1.79700    0.00000    0.00000   -0.48790    0.00000    1.50100    1.09820  # c1,cp,cp,hc
dihedral_coeff	16 ebt    0.00000    0.00000    0.00000    0.00000    0.00000    0.00000    1.50100    1.10100  # cp,c,c,hc
dihedral_coeff	17 ebt    0.00000    0.00000    0.00000    0.00000    0.00000    0.00000    1.50100    1.10100  # cp,c1,c,hc
dihedral_coeff	18 ebt   -0.58350    1.12200    0.39780    1.39970    0.77560    0.00000    1.41700    1.10100  # cp,cp,c,hc
dihedral_coeff	19 ebt   -0.58350    1.12200    0.39780    1.39970    0.77560    0.00000    1.41700    1.10100  # cp,cp,c1,hc
dihedral_coeff	20 ebt   -0.11850    6.32040    0.00000   -0.11850    6.32040    0.00000    1.41700    1.41700  # cp,cp,cp,cp
dihedral_coeff	21 ebt    0.00000   -6.89580    0.00000    0.00000   -0.46690    0.00000    1.41700    1.09820  # cp,cp,cp,hc
dihedral_coeff	22 ebt    0.21300    0.31200    0.07770    0.21300    0.31200    0.07770    1.10100    1.10100  # hc,c,c,hc
dihedral_coeff	23 ebt    0.21300    0.31200    0.07770    0.21300    0.31200    0.07770    1.10100    1.10100  # hc,c,c1,hc
dihedral_coeff	24 ebt    0.00000   -0.68900    0.00000    0.00000   -0.68900    0.00000    1.09820    1.09820  # hc,cp,cp,hc

# AngleTorsion Coeffs

dihedral_coeff	 1 at    0.38860   -0.31390    0.13890    0.38860   -0.31390    0.13890  112.67000  112.67000  # c,c,c1,c
dihedral_coeff	 2 at    0.00000    0.00000    0.00000    0.00000    0.00000    0.00000  112.67000  108.40000  # c,c,c1,cp
dihedral_coeff	 3 at   -0.24540    0.00000   -0.11360    0.31130    0.45160   -0.19880  112.67000  110.77000  # c,c,c1,hc
dihedral_coeff	 4 at    0.00000    0.00000    0.00000    0.00000    0.00000    0.00000  108.40000  120.05000  # c,c,cp,cp
dihedral_coeff	 5 at    0.38860   -0.31390    0.13890    0.38860   -0.31390    0.13890  112.67000  112.67000  # c,c1,c,c1
dihedral_coeff	 6 at   -0.24540    0.00000   -0.11360    0.31130    0.45160   -0.19880  112.67000  110.77000  # c,c1,c,hc
dihedral_coeff	 7 at    0.00000    0.00000    0.00000    0.00000    0.00000    0.00000  108.40000  120.05000  # c,c1,cp,cp
dihedral_coeff	 8 at    0.00000   -4.46830    0.00000    0.00000    3.89870    0.00000  120.05000  118.90000  # c,cp,cp,cp
dihedral_coeff	 9 at    0.00000   -0.12420    0.00000    0.00000    3.46010    0.00000  120.05000  117.94000  # c,cp,cp,hc
dihedral_coeff	10 at    0.00000    0.00000    0.00000    0.00000    0.00000    0.00000  112.67000  108.40000  # c1,c,c,cp
dihedral_coeff	11 at   -0.24540    0.00000   -0.11360    0.31130    0.45160   -0.19880  112.67000  110.77000  # c1,c,c,hc
dihedral_coeff	12 at    0.00000    0.00000    0.00000    0.00000    0.00000    0.00000  112.67000  108.40000  # c1,c,c1,cp
dihedral_coeff	13 at   -0.24540    0.00000   -0.11360    0.31130    0.45160   -0.19880  112.67000  110.77000  # c1,c,c1,hc
dihedral_coeff	14 at    0.00000   -4.46830    0.00000    0.00000    3.89870    0.00000  120.05000  118.90000  # c1,cp,cp,cp
dihedral_coeff	15 at    0.00000   -0.12420    0.00000    0.00000    3.46010    0.00000  120.05000  117.94000  # c1,cp,cp,hc
dihedral_coeff	16 at    0.00000    0.00000    0.00000    0.00000    0.00000    0.00000  108.40000  110.77000  # cp,c,c,hc
dihedral_coeff	17 at    0.00000    0.00000    0.00000    0.00000    0.00000    0.00000  108.40000  110.77000  # cp,c1,c,hc
dihedral_coeff	18 at    0.22510    0.65480    0.12370    4.62660    0.16320    0.04610  120.05000  111.00000  # cp,cp,c,hc
dihedral_coeff	19 at    0.22510    0.65480    0.12370    4.62660    0.16320    0.04610  120.05000  111.00000  # cp,cp,c1,hc
dihedral_coeff	20 at    1.97670    1.02390    0.00000    1.97670    1.02390    0.00000  118.90000  118.90000  # cp,cp,cp,cp
dihedral_coeff	21 at    0.00000    2.50140    0.00000    0.00000    2.71470    0.00000  118.90000  117.94000  # cp,cp,cp,hc
dihedral_coeff	22 at   -0.80850    0.55690   -0.24660   -0.80850    0.55690   -0.24660  110.77000  110.77000  # hc,c,c,hc
dihedral_coeff	23 at   -0.80850    0.55690   -0.24660   -0.80850    0.55690   -0.24660  110.77000  110.77000  # hc,c,c1,hc
dihedral_coeff	24 at    0.00000    2.45010    0.00000    0.00000    2.45010    0.00000  117.94000  117.94000  # hc,cp,cp,hc

# AngleAngleTorsion Coeffs

dihedral_coeff	 1 aat  -22.04500  112.67000  112.67000  # c,c,c1,c
dihedral_coeff	 2 aat    0.00000  112.67000  108.40000  # c,c,c1,cp
dihedral_coeff	 3 aat  -16.16400  112.67000  110.77000  # c,c,c1,hc
dihedral_coeff	 4 aat    0.00000  108.40000  120.05000  # c,c,cp,cp
dihedral_coeff	 5 aat  -22.04500  112.67000  112.67000  # c,c1,c,c1
dihedral_coeff	 6 aat  -16.16400  112.67000  110.77000  # c,c1,c,hc
dihedral_coeff	 7 aat    0.00000  108.40000  120.05000  # c,c1,cp,cp
dihedral_coeff	 8 aat  -14.40970  120.05000  118.90000  # c,cp,cp,cp
dihedral_coeff	 9 aat    4.44440  120.05000  117.94000  # c,cp,cp,hc
dihedral_coeff	10 aat    0.00000  112.67000  108.40000  # c1,c,c,cp
dihedral_coeff	11 aat  -16.16400  112.67000  110.77000  # c1,c,c,hc
dihedral_coeff	12 aat    0.00000  112.67000  108.40000  # c1,c,c1,cp
dihedral_coeff	13 aat  -16.16400  112.67000  110.77000  # c1,c,c1,hc
dihedral_coeff	14 aat  -14.40970  120.05000  118.90000  # c1,cp,cp,cp
dihedral_coeff	15 aat    4.44440  120.05000  117.94000  # c1,cp,cp,hc
dihedral_coeff	16 aat    0.00000  108.40000  110.77000  # cp,c,c,hc
dihedral_coeff	17 aat    0.00000  108.40000  110.77000  # cp,c1,c,hc
dihedral_coeff	18 aat   -5.88880  120.05000  111.00000  # cp,cp,c,hc
dihedral_coeff	19 aat   -5.88880  120.05000  111.00000  # cp,cp,c1,hc
dihedral_coeff	20 aat    0.00000  118.90000  118.90000  # cp,cp,cp,cp
dihedral_coeff	21 aat   -4.81410  118.90000  117.94000  # cp,cp,cp,hc
dihedral_coeff	22 aat  -12.56400  110.77000  110.77000  # hc,c,c,hc
dihedral_coeff	23 aat  -12.56400  110.77000  110.77000  # hc,c,c1,hc
dihedral_coeff	24 aat    0.35980  117.94000  117.94000  # hc,cp,cp,hc

# BondBond13 Coeffs

dihedral_coeff	 1 bb13    0.00000    1.53000    1.53000  # c,c,c1,c
dihedral_coeff	 2 bb13    0.00000    1.53000    1.50100  # c,c,c1,cp
dihedral_coeff	 3 bb13    0.00000    1.53000    1.10100  # c,c,c1,hc
dihedral_coeff	 4 bb13    0.00000    1.53000    1.41700  # c,c,cp,cp
dihedral_coeff	 5 bb13    0.00000    1.53000    1.53000  # c,c1,c,c1
dihedral_coeff	 6 bb13    0.00000    1.53000    1.10100  # c,c1,c,hc
dihedral_coeff	 7 bb13    0.00000    1.53000    1.41700  # c,c1,cp,cp
dihedral_coeff	 8 bb13    2.50850    1.50100    1.41700  # c,cp,cp,cp
dihedral_coeff	 9 bb13    0.87430    1.50100    1.09820  # c,cp,cp,hc
dihedral_coeff	10 bb13    0.00000    1.53000    1.50100  # c1,c,c,cp
dihedral_coeff	11 bb13    0.00000    1.53000    1.10100  # c1,c,c,hc
dihedral_coeff	12 bb13    0.00000    1.53000    1.50100  # c1,c,c1,cp
dihedral_coeff	13 bb13    0.00000    1.53000    1.10100  # c1,c,c1,hc
dihedral_coeff	14 bb13    2.50850    1.50100    1.41700  # c1,cp,cp,cp
dihedral_coeff	15 bb13    0.87430    1.50100    1.09820  # c1,cp,cp,hc
dihedral_coeff	16 bb13    0.00000    1.50100    1.10100  # cp,c,c,hc
dihedral_coeff	17 bb13    0.00000    1.50100    1.10100  # cp,c1,c,hc
dihedral_coeff	18 bb13   -3.48260    1.41700    1.10100  # cp,cp,c,hc
dihedral_coeff	19 bb13   -3.48260    1.41700    1.10100  # cp,cp,c1,hc
dihedral_coeff	20 bb13   53.00000    1.41700    1.41700  # cp,cp,cp,cp
dihedral_coeff	21 bb13   -6.27410    1.41700    1.09820  # cp,cp,cp,hc
dihedral_coeff	22 bb13    0.00000    1.10100    1.10100  # hc,c,c,hc
dihedral_coeff	23 bb13    0.00000    1.10100    1.10100  # hc,c,c1,hc
dihedral_coeff	24 bb13   -1.70770    1.09820    1.09820  # hc,cp,cp,hc

# Improper Coeffs

improper_coeff	 1    0.00000    0.00000  # c,c,cp,hc
improper_coeff	 2    0.00000    0.00000  # c,c,hc,c1
improper_coeff	 3    0.00000    0.00000  # c,c,hc,cp
improper_coeff	 4    0.00000    0.00000  # c,c,hc,hc
improper_coeff	 5    0.00000    0.00000  # c,c1,c1,hc
improper_coeff	 6    0.00000    0.00000  # c,c1,hc,hc
improper_coeff	 7    0.00000    0.00000  # c,cp,hc,hc
improper_coeff	 8    0.00000    0.00000  # c,hc,hc,hc
improper_coeff	 9    0.00000    0.00000  # c1,c,c,cp
improper_coeff	10    0.00000    0.00000  # c1,c,c,hc
improper_coeff	11    0.00000    0.00000  # c1,c,cp,hc
improper_coeff	12    7.81530    0.00000  # cp,c,cp,cp
improper_coeff	13    7.81530    0.00000  # cp,c1,cp,cp
improper_coeff	14    4.89120    0.00000  # cp,cp,cp,hc

# AngleAngle Coeffs

improper_coeff	 1 aa    2.04030   -1.82020    1.08270  108.40000  110.77000  111.00000  # c,c,cp,hc
improper_coeff	 2 aa    0.11840   -1.31990   -1.31990  110.77000  112.67000  110.77000  # c,c,hc,c1
improper_coeff	 3 aa    1.08270   -1.82020    2.04030  110.77000  108.40000  111.00000  # c,c,hc,cp
improper_coeff	 4 aa    0.27380   -0.48250    0.27380  110.77000  110.77000  107.66000  # c,c,hc,hc
improper_coeff	 5 aa   -1.31990   -1.31990    0.11840  112.67000  110.77000  110.77000  # c,c1,c1,hc
improper_coeff	 6 aa    0.27380   -0.48250    0.27380  110.77000  110.77000  107.66000  # c,c1,hc,hc
improper_coeff	 7 aa    2.37940    3.01180    2.37940  111.00000  111.00000  107.66000  # c,cp,hc,hc
improper_coeff	 8 aa   -0.31570   -0.31570   -0.31570  107.66000  107.66000  107.66000  # c,hc,hc,hc
improper_coeff	 9 aa    0.00000    0.00000    0.00000  112.67000  108.40000  108.40000  # c1,c,c,cp
improper_coeff	10 aa   -1.31990   -1.31990    0.11840  112.67000  110.77000  110.77000  # c1,c,c,hc
improper_coeff	11 aa    2.04030   -1.82020    1.08270  108.40000  110.77000  111.00000  # c1,c,cp,hc
improper_coeff	12 aa    0.00000    0.00000    0.00000  120.05000  120.05000  118.90000  # cp,c,cp,cp
improper_coeff	13 aa    0.00000    0.00000    0.00000  120.05000  120.05000  118.90000  # cp,c1,cp,cp
improper_coeff	14 aa    0.00000    0.00000    0.00000  118.90000  117.94000  117.94000  # cp,cp,cp,hc


# --- Thermo Output ---
thermo_style custom step time temp press enthalpy etotal ke pe ebond eangle edihed eimp evdwl ecoul elong etail vol lx ly lz density pxx pyy pzz
thermo_modify flush yes
thermo 500

# --- Velocity initialization at T_START (once only — Rule A) ---
velocity all create 600.0 773474 mom yes rot yes dist gaussian

# --- Temperature staircase (inherits momenta across steps — Rule A) ---
variable temps index 600 580 560 540 520 500 480 460 440 420 400 380 360 340 320 300 280 260 240 220 200
label TEMP_LOOP
  timestep 1
  fix npt_tg all npt temp ${temps} ${temps} 100 iso 1.0 1.0 1000.0
  fix npt_tg all npt temp 600 ${temps} 100 iso 1.0 1.0 1000.0
  fix npt_tg all npt temp 600 600 100 iso 1.0 1.0 1000.0
  run 200000
PPPM Kokkos initialization ...
  using 12-bit tables for long-range coulomb
  G vector (1/distance) = 0.3027111
  grid = 30 30 30
  stencil order = 5
  estimated absolute RMS force accuracy = 0.0002705403
  estimated relative force accuracy = 8.1472407e-07
  using double precision cuFFT
  3d grid and FFT values/proc = 50653 27000
Generated 6 of 6 mixed pair_coeff terms from sixthpower/sixthpower mixing rule
Neighbor list info ...
  update: every = 1 steps, delay = 0 steps, check = yes
  max neighbors/atom: 4000, page size: 100000
  master list distance cutoff = 11.5
  ghost atom cutoff = 11.5
  binsize = 11.5, bins = 4 4 4
  1 neighbor lists, perpetual/occasional/extra = 1 0 0
  (1) pair lj/class2/coul/long/kk, perpetual
      attributes: full, newton off, kokkos_device
      pair build: full/bin/kk/device
      stencil: full/bin/3d
      bin: kk/device
Per MPI rank memory allocation (min/avg/max) = 42.21 | 42.21 | 42.21 Mbytes
   Step          Time           Temp          Press         Enthalpy        TotEng         KinEng         PotEng         E_bond        E_angle        E_dihed        E_impro         E_vdwl         E_coul         E_long         E_tail         Volume           Lx             Ly             Lz          Density          Pxx            Pyy            Pzz      
         0   0              600            4323.0994      19592.708      15183.135      11480.292      3702.8434      2934.7522      2663.369      -2066.9104      204.15893      114.89792      3823.5359     -3970.9601     -411.24265      69939.964      41.201067      41.201067      41.201067      0.98961293     4723.5762      2996.3145      5249.4076    
       500   500            583.43308      1446.6673      21994.962      20467.758      11163.303      9304.4543      5054.2348      4492.5227     -1085.8923      362.38157      582.87151      3851.8967     -3953.5608     -397.34795      72385.668      41.675824      41.675824      41.675824      0.95617675     1819.2622      542.1146       1978.625     
      1000   1000           596.15429      556.59925      21552.963      20945.065      11406.709      9538.3563      4956.4981      4557.4437     -960.31603      387.96907      688.27888      3845.7789     -3937.2963     -384.07113      74887.942      42.15062       42.15062       42.15062       0.92422746     1452.0478      347.78692     -130.03702    
      1500   1500           611.6348      -1017.5495      20388.388      21513.208      11702.91       9810.2978      5047.086       4498.2874     -793.45587      398.33088      743.18843      3851.2549     -3934.394      -379.46541      75796.887      42.320467      42.320467      42.320467      0.91314427     265.31292     -919.71555     -2398.2459    
      2000   2000           607.049       -340.5304       20945.384      21317.44       11615.166      9702.2739      4936.9892      4555.3511     -870.84285      388.43317      788.78406      3844.4754     -3940.9161     -383.92604      74916.243      42.155929      42.155929      42.155929      0.92387832    -672.92727      374.97808     -723.64202    
      2500   2500           602.61452      1713.8734      23113.599      21241.317      11530.318      9710.9992      5034.0201      4599.5726     -1005.9966      393.25033      778.82147      3851.3064     -3939.9751     -383.97854      74906          42.154007      42.154007      42.154007      0.92400466     2036.098       965.73469      2139.7876    
      3000   3000           594.13906     -235.81396      20952.507      21211.766      11368.15       9843.6165      5013.2759      4565.0471     -837.97831      396.19999      795.1068       3849.2471     -3937.282      -381.53514      75385.708      42.243803      42.243803      42.243803      0.91812486    -1277.9463      636.39724     -65.8928      
      3500   3500           594.41348     -964.73396      20053.423      21110.316      11373.4        9736.9154      5064.5535      4472.7322     -911.07058      406.58255      785.60935      3852.2766     -3933.7682     -382.89198      75118.566      42.193844      42.193844      42.193844      0.92138997    -2094.0934     -307.49145     -492.61703    
      4000   4000           598.34893     -2320.008       18866.22       21424.314      11448.7        9975.6139      5238.851       4506.1535     -820.01596      411.42635      722.09734      3854.7783     -3937.6767     -380.42797      75605.106      42.284744      42.284744      42.284744      0.91546057    -2352.9034     -3080.7775     -1526.3431    
      4500   4500           604.40082      256.69884      21722.513      21438.118      11564.496      9873.6214      5214.3032      4530.4067     -1005.8804      397.63203      810.12482      3860.6354     -3933.6003     -378.61777      75966.579      42.352026      42.352026      42.352026      0.91110451     2099.5805     -292.72467     -1036.7594    
      5000   5000           606.08406      605.51846      21925.519      21255.124      11596.703      9658.421       4913.2983      4471.1387     -830.69339      401.89456      791.94054      3851.9446     -3941.1024     -378.87508      75914.986      42.342436      42.342436      42.342436      0.91172371     533.37281      2318.0524     -1034.8699    
      5500   5500           597.40999      1733.2264      22989.953      21070.888      11430.735      9640.1524      4987.015       4506.556      -946.48768      404.09692      779.41153      3847.7953     -3938.2346     -378.8479       75920.432      42.343448      42.343448      42.343448      0.91165831     720.42782      1422.9325      3056.319     
      6000   6000           601.92792     -1491.3806      19545.503      21205.684      11517.18       9688.5038      5081.9638      4417.8214     -908.67943      410.15811      779.21176      3843.2892     -3935.2611     -376.81874      76329.263      42.419319      42.419319      42.419319      0.90677533     635.56202     -2818.822      -2290.8818    
      6500   6500           585.09845     -275.27535      20776.913      21081.157      11195.168      9885.9884      5209.4473      4472.7305     -882.10616      404.38669      776.66502      3847.9627     -3943.0977     -379.52929      75784.128      42.318093      42.318093      42.318093      0.913298      -800.46314     -946.16402      920.8011     
      7000   7000           587.13845      120.85821      21213.564      21080.538      11234.201      9846.3372      5086.8427      4610.3828     -915.18307      386.78462      773.96767      3842.559      -3939.0165     -381.1005       75471.683      42.259856      42.259856      42.259856      0.91707897    -960.58974      426.85842      896.30594    
      7500   7500           602.0566       106.01713      21549.093      21431.067      11519.642      9911.4247      5061.6525      4570.27       -829.95722      401.33085      790.76951      3853.6695     -3936.3104     -376.78846      76335.396      42.420455      42.420455      42.420455      0.90670248     445.71414     -628.63443      500.9717     
      8000   8000           607.01478      101.83465      21637.619      21524.924      11614.511      9910.4129      5185.5218      4568.8643     -918.89386      380.0271       788.28132      3842.8366     -3936.2243     -379.04688      75880.579      42.336038      42.336038      42.336038      0.91213713     2635.5427     -1018.1968     -1311.8419    
      8500   8500           604.13866     -790.79426      20416.308      21281.967      11559.48       9722.4864      4970.692       4601.0683     -889.81235      391.92991      742.60236      3849.5153     -3943.5091     -383.19181      75059.789      42.182836      42.182836      42.182836      0.92211148    -3468.3837      1821.116      -725.11507    
      9000   9000           608.48308      499.59851      22064.585      21506.788      11642.605      9864.1821      5138.527       4464.4102     -940.6689       396.36537      891.23632      3847.8564     -3933.5442     -375.70252      76556.038      42.461287      42.461287      42.461287      0.90408928    -390.16766      1710.8816      178.08154    
      9500   9500           599.55583      932.14681      22548.867      21497.19       11471.793      10025.397      5273.9555      4511.0725     -954.10426      401.14058      876.72883      3848.4047     -3931.8008     -371.79334      77360.979      42.609586      42.609586      42.609586      0.89468223     2456.2654      1397.7981     -1057.6231    
     10000   10000          599.56195      21.201207      21308.851      21285.255      11471.91       9813.3453      5217.8668      4413.4374     -945.75765      400.65625      802.80968      3857.6411     -3933.3083     -376.91013      76310.756      42.41589       42.41589       42.41589       0.90699525    -1154.0551      2615.2149     -1397.5562    
     10500   10500          591.92663     -110.0195       21058.376      21180.126      11325.817      9854.3081      5220.7709      4396.5231     -852.85764      422.86171      765.48871      3838.2473     -3936.7259     -379.05434      75879.084      42.33576       42.33576       42.33576       0.91215509    -513.12019      734.60342     -551.54173    
     11000   11000          599.26844     -269.46951      20951.262      21248.484      11466.294      9782.1896      5102.4738      4425.9931     -851.33792      397.87599      798.04579      3845.0065     -3935.8676     -380.30238      75630.072      42.289398      42.289398      42.289398      0.91515836     575.35416     -1210.4321     -173.33053    
     11500   11500          597.13636     -2405.0859      18711.536      21415.01       11425.499      9989.51        5096.4191      4565.4526     -808.83452      406.2126       805.83984      3853.9552     -3929.5349     -373.17106      77075.367      42.557084      42.557084      42.557084      0.89799758    -1162.7937     -763.43211     -5289.0318    
     12000   12000          608.77889      2123.781       23991.182      21612.366      11648.266      9964.1003      5103.5691      4553.066      -892.50978      414.69862      873.52633      3848.0853     -3936.3352     -374.49702      76802.471      42.506799      42.506799      42.506799      0.90118836    -530.97532      3679.7813      3222.5372    
     12500   12500          614.51711      1101.2867      22760.581      21542.564      11758.06       9784.5043      5155.5895      4340.0566     -871.76271      406.691        851.67358      3844.926      -3942.6697     -379.26834      75836.271      42.327796      42.327796      42.327796      0.91267005     327.84964      608.60311      2367.4072    
     13000   13000          602.93489      272.24953      21655.371      21353.717      11536.447      9817.2696      5131.5846      4471.3623     -937.01723      401.58085      833.92911      3854.8141     -3938.9841     -378.57996      75974.166      42.353436      42.353436      42.353436      0.91101353     1261.068      -270.23917     -174.0802     
     13500   13500          610.20738      646.00825      22505.292      21781.954      11675.598      10106.356      5085.5552      4626.3617     -797.95406      428.49913      848.69851      3849.3425     -3934.1474     -374.62448      76776.339      42.501977      42.501977      42.501977      0.90149509    -270.77791      2046.36        162.44267    
     14000   14000          592.96253     -845.81143      20224.745      21175.211      11345.638      9829.5732      5128.2844      4444.6665     -878.07666      393.25854      817.60481      3853.4379     -3929.6023     -373.2813       77052.605      42.552895      42.552895      42.552895      0.89826285    -1022.6408     -1826.5734      311.77994    
     14500   14500          598.35934     -25.644958      21319.776      21348.663      11448.9        9899.763       5127.4294      4501.911      -868.64387      383.43091      825.46706      3861.7851     -3931.6166     -372.39473      77236.045      42.586637      42.586637      42.586637      0.89612943    -432.49053      1596.4421     -1240.8864    
     15000   15000          599.99828      679.75954      22081.422      21324.307      11480.259      9844.0481      5221.1699      4506.7368     -989.4066       391.80306      784.36547      3860.6488     -3931.2693     -376.61084      76371.399      42.427123      42.427123      42.427123      0.90627504     198.2899       1008.5462      832.44247    
     15500   15500          603.08655      765.86449      22240.192      21394.563      11539.349      9855.2141      5167.0688      4499.685      -952.71914      386.83688      836.91104      3854.5741     -3937.1425     -379.90205      75709.769      42.304247      42.304247      42.304247      0.91419502     118.04518      1978.1099      201.4384     
     16000   16000          604.70033      761.95023      22317.012      21474.069      11570.227      9903.8423      5162.0956      4591.4938     -925.37086      379.20576      788.1143       3847.7375     -3939.4338     -379.16487      75856.965      42.331646      42.331646      42.331646      0.91242106     1307.7305     -431.78638      1409.9066    
     16500   16500          597.91413     -2188.3752      19201.48       21650.353      11440.381      10209.972      5161.6533      4639.3914     -745.7928       432.55493      792.31998      3856.93       -3927.0849     -374.84777      76730.605      42.493536      42.493536      42.493536      0.90203241    -2860.1884     -2219.3968     -1485.5403    
     17000   17000          604.85857     -590.09196      20769.789      21439.754      11573.255      9866.499       5077.4074      4514.9348     -884.45156      397.66059      839.42501      3850.5929     -3929.0701     -369.45982      77849.592      42.699106      42.699106      42.699106      0.88906687    -2157.1076      873.56785     -486.7361     
     17500   17500          600.1835      -290.89827      21042.286      21369.91       11483.803      9886.1068      4984.3333      4558.8949     -848.77425      405.4356       865.78321      3854.7058     -3934.2718     -372.44816      77224.966      42.5846        42.5846        42.5846        0.896258      -696.54579     -1764.8601      1588.7111    
     18000   18000          605.97071      64.330168      21640.591      21568.538      11594.534      9974.0034      5074.3705      4560.3259     -809.33453      411.89015      806.33688      3864.0902     -3933.6756     -374.50978      76799.854      42.506316      42.506316      42.506316      0.90121908     1195.2863     -398.3407      -603.95509    
     18500   18500          605.2086       1383.2126      22898.207      21367.751      11579.952      9787.7985      4997.6589      4524.3328     -853.81484      417.22806      792.99124      3843.4976     -3934.0952     -379.11195      75867.554      42.333615      42.333615      42.333615      0.91229372     1589.4656      465.11931      2095.053     
     19000   19000          600.13899      484.90362      21793.592      21254.637      11482.951      9771.6854      4998.9427      4522.4496     -899.41222      407.87909      814.40755      3863.2094     -3935.7908     -377.40009      76211.684      42.397526      42.397526      42.397526      0.90817431     405.54441     -1204.5453      2253.7117    
     19500   19500          588.04606     -1323.7307      19716.308      21188.773      11251.567      9937.2057      5189.7481      4434.0288     -802.18843      395.57446      801.4167       3852.6151     -3933.9891     -377.09785      76272.767      42.408851      42.408851      42.408851      0.90744699    -1566.5638     -351.62753     -2053.0008    
     20000   20000          596.6226       1375.0601      22589.226      21060.47       11415.669      9644.8008      5005.5456      4492.9656     -1018.2916      399.73696      852.02968      3849.3034     -3936.4889     -377.29662      76232.585      42.401402      42.401402      42.401402      0.90792531     2588.7588      720.23788      816.18361    
     20500   20500          605.0113       1389.2414      22854.278      21315.449      11576.177      9739.272       4999.9858      4454.5246     -909.8323       389.96514      876.57819      3863.7669     -3935.7164     -378.69252      75951.584      42.349239      42.349239      42.349239      0.91128439     672.03339      463.34028      3032.3506    
     21000   21000          601.01143      171.9585       21565.458      21376.038      11499.644      9876.3939      5089.0869      4499.3207     -846.2911       422.76058      808.90217      3843.9711     -3941.3564     -380.80037      75531.167      42.270956      42.270956      42.270956      0.91635673     696.54697     -880.70483      700.03337    
     21500   21500          601.37981      1199.045       22812.153      21490.834      11506.693      9984.1407      5131.2313      4622.9072     -937.99023      395.08129      844.27319      3863.7775     -3935.1396     -380.65113      75560.78       42.276479      42.276479      42.276479      0.91599759     707.17276      2766.779       123.18338    
     22000   22000          592.56281      30.11198       21315.219      21281.802      11337.99       9943.812       5121.0075      4368.1597     -757.38091      431.93438      850.30162      3861.6323     -3931.8427     -377.98539      76093.673      42.375631      42.375631      42.375631      0.90958276    -1087.5579      1168.0204      9.8734207    
     22500   22500          598.98238     -1383.2603      19819.418      21373.182      11460.821      9912.3615      5032.7816      4498.7779     -766.24869      397.09685      812.48519      3865.2835     -3927.8149     -373.43765      77020.344      42.546955      42.546955      42.546955      0.8986391     -1345.8721     -158.72475     -2645.1841    
     23000   23000          591.78878     -1151.3561      20232.387      21534.653      11323.18       10211.473      5169.934       4605.2423     -771.94926      402.97101      862.75577      3865.9566     -3923.4377     -370.85959      77555.758      42.645317      42.645317      42.645317      0.89243526     231.96877     -2350.0126     -1336.0245    
     23500   23500          602.65993     -1024.9067      20175.928      21323.724      11531.186      9792.5381      5112.5983      4503.9119     -911.19077      390.17884      773.60735      3861.7912     -3938.3588     -374.55779      76790.01       42.5045        42.5045        42.5045        0.9013346     -2290.3159      296.99318     -1081.3975    
     24000   24000          595.36053      2708.2514      24158.1        21204.07       11391.521      9812.5486      4993.3316      4484.5053     -933.78289      407.18889      958.43878      3845.2974     -3942.4305     -384.56825      74791.137      42.13245       42.13245       42.13245       0.92542373     1146.6557      3519.993       3458.1054    
     24500   24500          597.08624     -51.962646      21064.076      21121.744      11424.54       9697.2033      5020.9326      4439.8508     -891.64813      382.07817      826.31564      3854.022      -3934.3477     -377.97047      76096.676      42.376189      42.376189      42.376189      0.90954687    -1603.3789      1417.5482      29.94272     
     25000   25000          597.17422     -2009.7424      19060.905      21312.543      11426.224      9886.3187      5138.8127      4540.5401     -869.08701      389.87907      768.7058       3848.5104     -3931.0424     -374.4048       76821.387      42.510288      42.510288      42.510288      0.90096645    -1484.5922     -1354.4374     -3190.1976    
     25500   25500          590.8901       8.2588832      21383.722      21374.495      11305.985      10068.511      5140.6116      4613.5028     -811.71273      391.93764      833.27143      3839.5856     -3938.6857     -375.44879      76607.775      42.47085       42.47085       42.47085       0.9034787      5.9075513     -2632.6087      2651.4778    
     26000   26000          606.979        1152.4468      22729.297      21443.899      11613.827      9830.0726      5033.208       4536.5098     -940.39253      398.35104      860.07285      3870.2491     -3927.9255     -376.08219      76478.752      42.446993      42.446993      42.446993      0.90500291     2145.458       803.43584      508.44665    
     26500   26500          599.16869     -438.27972      20921.541      21414.604      11464.386      9950.2183      5071.836       4451.1895     -753.28611      414.08345      853.17195      3841.9439     -3928.7204     -372.86216      77139.221      42.568834      42.568834      42.568834      0.89725424    -885.80752      99.795968     -528.82761    
     27000   27000          594.93974      410.46401      21661.873      21199.318      11383.47       9815.8487      5075.027       4427.8167     -842.41186      396.589        841.63175      3848.828      -3931.6319     -372.2299       77270.247      42.592922      42.592922      42.592922      0.89573277     352.19172      290.08712      589.11319    
     27500   27500          599.43036      1307.8512      22763.411      21276.84       11469.392      9807.4477      4982.2542      4435.8735     -875.57199      417.07034      916.22105      3854.8287     -3923.2281     -369.039        77938.366      42.71533       42.71533       42.71533       0.88805419     1076.5186      1054.4504      1792.5844    
     28000   28000          613.48033     -1505.7391      19771.495      21474.613      11738.222      9736.3908      4921.4392      4498.8045     -760.43193      394.28986      784.06536      3834.9438     -3936.7201     -370.85532      77556.65       42.645481      42.645481      42.645481      0.89242499    -1348.3087     -794.78002     -2374.1286    
     28500   28500          599.37127     -43.913153      21534.526      21583.319      11468.262      10115.057      5123.087       4561.9866     -782.79976      428.40526      874.33264      3845.3852     -3935.3402     -377.52346      76186.779      42.392908      42.392908      42.392908      0.90847118    -1003.3959      402.35577      469.30062    
     29000   29000          598.43195     -227.99526      21141.592      21397.081      11450.289      9946.7922      4996.9807      4533.8737     -828.27919      404.05008      936.78236      3837.9053     -3934.5207     -374.32796      76837.157      42.513197      42.513197      42.513197      0.90078154    -1033.9274      651.49042     -301.54883    
     29500   29500          594.10015     -544.66755      20515.414      21128.95       11367.405      9761.5452      5047.8467      4388.3976     -889.78062      400.62597      869.54641      3872.7777     -3927.8687     -372.38342      77238.393      42.587068      42.587068      42.587068      0.89610219    -2099.3294      431.52551      33.801204    
     30000   30000          587.61777     -122.32356      21104.411      21241.625      11243.372      9998.2525      5106.4264      4559.0943     -853.35053      413.2181       850.09416      3852.2451     -3929.4751     -373.94768      76915.297      42.527603      42.527603      42.527603      0.89986643    -290.87754     -485.31339      409.22025    
     30500   30500          611.41408     -202.83681      21694.052      21919.862      11698.687      10221.176      5178.5975      4592.2048     -732.27108      417.70145      847.22683      3852.2906     -3934.5742     -376.79243      76334.591      42.420306      42.420306      42.420306      0.90671204    -776.02693     -320.73309      488.2496     
     31000   31000          603.58154     -470.21313      20821.4        21347.561      11548.82       9798.7404      5001.3774      4520.4074     -902.8567       407.81075      844.09224      3859.3225     -3931.4131     -374.86546      76726.985      42.492868      42.492868      42.492868      0.90207497    -118.39988     -9.1369735     -1283.1025    
     31500   31500          596.90306     -551.20571      20685.254      21308.656      11421.036      9887.6202      5082.5892      4465.0531     -835.91602      397.69245      852.59524      3854.5007     -3928.8945     -370.89018      77549.361      42.644145      42.644145      42.644145      0.89250888    -3477.5467      558.23158      1265.698     
     32000   32000          600.39661      2003.4967      23585.793      21328.686      11487.881      9840.8053      4986.4394      4522.479      -924.97648      405.14905      927.40774      3858.1026     -3933.796      -372.33678      77248.068      42.588846      42.588846      42.588846      0.89598996     1070.1143      3838.8944      1101.4815    
     32500   32500          601.66414     -840.07278      20590.288      21540.452      11512.133      10028.319      5077.3219      4538.3561     -826.41952      407.54681      911.71532      3849.4427     -3929.6441     -370.86661      77554.289      42.645048      42.645048      42.645048      0.89245217    -1281.9451      54.50521      -1292.7784    
     33000   33000          606.45128      1335.9581      23072.174      21563.058      11603.729      9959.3285      4980.6768      4613.0904     -876.17792      411.05449      904.90847      3856.6872     -3930.9109     -371.33814      77455.81       42.62699       42.62699       42.62699       0.89358684     2072.4971      1777.9477      157.42935    
     33500   33500          607.77666     -727.6185       20746.143      21576.446      11629.089      9947.3573      5052.2181      4523.5579     -876.56883      404.9912       919.53867      3854.4339     -3930.8137     -367.5924       78245.08       42.77129       42.77129       42.77129       0.8845731     -1134.8302     -169.03632     -878.98895    
     34000   34000          587.02237      1029.2889      22193.327      21026.648      11231.98       9794.6676      5019.1271      4535.426      -1019.2271      354.72176      983.47195      3846.67       -3925.5221     -370.07118      77720.984      42.67558       42.67558       42.67558       0.89053805     2743.8307      416.0324      -71.996479    
     34500   34500          594.20783      1246.1599      22637.255      21239.451      11369.465      9869.9854      5082.5542      4538.5243     -927.6048       399.11012      862.70483      3850.0203     -3935.3236     -373.96154      76912.446      42.527078      42.527078      42.527078      0.89989978    -496.6205       3773.2116      461.88861    
     35000   35000          604.44913      3232.9347      25083.558      21441.088      11565.421      9875.6676      5159.0446      4448.8414     -972.97629      396.70196      907.72714      3864.3183     -3927.9897     -372.30634      77254.384      42.590007      42.590007      42.590007      0.89591671     3337.8096      2954.3482      3406.6463    
     35500   35500          602.05069     -376.6995       21196.546      21625.745      11519.529      10106.216      5187.9842      4422.6435     -814.4559       414.22112      959.59098      3862.9634     -3926.7311     -368.15924      78124.608      42.749327      42.749327      42.749327      0.88593715    -1416.5809      672.08718     -385.60478    
     36000   36000          597.77495     -1272.4267      20124.173      21567.22       11437.718      10129.502      5144.0939      4629.4171     -873.96174      404.62049      911.24         3846.3934     -3932.3015     -369.87224      77762.788      42.68323       42.68323       42.68323       0.8900593     -2396.8894     -1172.0142     -248.3765     
     36500   36500          599.82228      194.75796      21622.506      21401.33       11476.891      9924.439       4957.4407      4547.9128     -804.27856      397.75252      904.65583      3849.98       -3929.0243     -369.3663       77869.303      42.702709      42.702709      42.702709      0.88884181     1800.5704     -852.88437     -363.41221    
     37000   37000          602.85715      911.89264      22360.082      21321.276      11534.96       9786.3161      4908.2454      4549.267      -908.76452      405.93994      902.88552      3852.4318     -3923.6891     -368.22121      78111.46       42.746929      42.746929      42.746929      0.88608628     737.30797      1571.3933      426.97663    
     37500   37500          603.48433      1549.9646      23335.773      21554.648      11546.96       10007.688      5122.2713      4483.7097     -914.91857      409.353        955.4277       3870.5386     -3918.694      -365.02857      78794.645      42.871193      42.871193      42.871193      0.87840351     1359.9553      2262.6399      1027.2986    
     38000   38000          591.99836      775.3268       22068.781      21190.145      11327.19       9862.9556      5000.3422      4450.0147     -893.06501      409.56982      950.57883      3870.6614     -3925.1463     -370.14826      77704.8        42.672618      42.672618      42.672618      0.89072352     1566.1596     -343.08614      1102.9069    
     38500   38500          601.41615      34.187381      21498.2        21459.671      11507.388      9952.2832      5087.0124      4501.9405     -852.93451      392.89729      905.23001      3850.3063     -3932.1688     -372.21019      77274.338      42.593674      42.593674      42.593674      0.89568535     382.58621     -610.86543      330.84136    
     39000   39000          605.70744      173.59635      21709.769      21512.034      11589.497      9922.5367      5121.2229      4339.2311     -843.56649      399.73351      974.71872      3853.3938     -3922.1967     -368.26156      78102.903      42.745368      42.745368      42.745368      0.88618336     87.639273     -0.40181215     433.55158    
     39500   39500          601.21119     -164.69905      21427.368      21618.191      11503.466      10114.724      5306.3595      4400.5233     -885.80045      398.83429      972.91566      3846.8102     -3924.9183     -362.04378      79444.25       42.988685      42.988685      42.988685      0.87122093     892.29868      315.55402     -1701.9499    
     40000   40000          602.96655      209.27593      21655.243      21415.621      11537.053      9878.5675      4986.1074      4402.7949     -828.19682      410.94563      964.37554      3862.1232     -3919.5824     -366.34597      78511.295      42.819742      42.819742      42.819742      0.8815737     -2062.6175      1586.4823      1103.963     
     40500   40500          601.43244     -1053.4095      20194.431      21400.82       11507.7        9893.12        5126.152       4353.5202     -829.38538      400.57487      913.79344      3853.1469     -3924.682      -366.27686      78526.108      42.822435      42.822435      42.822435      0.8814074     -1359.4982     -824.41766     -976.31254    
     41000   41000          582.76363      702.28224      22059.736      21254.778      11150.494      10104.284      5209.3316      4553.6901     -939.06573      396.59815      942.17783      3863.0475     -3921.4953     -365.96364      78593.317      42.834648      42.834648      42.834648      0.88065367     670.95584      594.55296      841.33794    
     41500   41500          596.18838     -694.62376      20611.143      21407.38       11407.361      10000.019      4969.5803      4502.7369     -747.27352      419.72439      916.58359      3863.1394     -3924.4718     -365.93704      78599.031      42.835686      42.835686      42.835686      0.88058965     654.02461     -1585.9784     -1151.9175    
     42000   42000          598.00275     -1065.1679      20333.486      21552.457      11442.077      10110.38       5260.0302      4498.259      -875.11153      412.95135      878.81621      3862.868      -3927.4333     -366.54249      78469.201      42.812088      42.812088      42.812088      0.88204662    -2010.902      -240.71876     -943.88283    
     42500   42500          594.22911      949.81368      22516.547      21442.407      11369.873      10072.534      5032.7171      4571.8378     -818.92659      422.06973      945.58744      3850.581      -3931.3322     -370.91708      77543.737      42.643114      42.643114      42.643114      0.8925736      2382.2816      1017.1864     -550.02702    
     43000   43000          608.19509      249.83945      21842.657      21559.208      11637.095      9922.1128      4984.8568      4518.5745     -820.72753      406.0321       902.02871      3857.3815     -3926.0334     -369.7305       77792.6        42.688684      42.688684      42.688684      0.88971821     1390.4953     -548.84929     -92.127625    
     43500   43500          605.60302     -479.4755       21056.413      21609.84       11587.499      10022.341      4995.2515      4633.3013     -864.56121      398.96583      929.59185      3854.2606     -3924.4689     -363.41727      79144.001      42.93446       42.93446       42.93446       0.87452608    -488.81337      450.69415     -1400.3073    
     44000   44000          595.9533      -994.90068      20219.775      21369.678      11402.863      9966.8151      5081.3298      4467.2575     -866.19473      391.07366      968.2078       3851.3041     -3926.163      -362.92577      79251.183      42.953832      42.953832      42.953832      0.87334334    -1529.3281     -868.74947     -586.6245     
     44500   44500          587.97219     -203.72041      21064.425      21299.641      11250.154      10049.488      5096.5416      4572.0172     -869.64469      397.69874      918.32311      3857.3435     -3922.7918     -363.30054      79169.43       42.939057      42.939057      42.939057      0.87424518    -965.89521     -749.31351      1104.0475    
     45000   45000          603.433       -592.85766      20701.761      21388.681      11545.978      9842.7024      4940.5471      4378.0159     -714.71603      401.72711      912.26603      3848.409      -3923.5466     -362.02949      79447.385      42.98925       42.98925       42.98925       0.87118654     885.57486     -1210.9214     -1453.2265    
     45500   45500          600.97718     -582.70081      20846.359      21518.177      11498.989      10019.188      5055.5652      4564.0675     -814.74069      403.06649      882.66417      3854.6838     -3926.118      -363.82558      79055.18       42.918392      42.918392      42.918392      0.87550864    -1252.1619     -782.77614      286.83564    
     46000   46000          598.24225      766.00145      22555.379      21676.66       11446.659      10230          5231.4444      4533.3062     -851.67863      394.34524      995.83177      3850.4546     -3923.7031     -365.6611       78658.344      42.846459      42.846459      42.846459      0.87992563     333.99337      1514.2356      449.77535    
     46500   46500          602.94837      117.98413      21901.192      21766.634      11536.705      10229.928      5122.3537      4570.8517     -783.7164       393.58879      993.54746      3860.6938     -3927.3908     -367.80167      78200.559      42.763176      42.763176      42.763176      0.8850767      285.42165     -1749.8051      1818.3358    
     47000   47000          611.39181     -293.97272      21124.448      21462.221      11698.261      9763.9603      4995.2766      4421.0931     -942.32362      396.21666      979.07499      3842.7438     -3928.1213     -365.07415      78784.807      42.869409      42.869409      42.869409      0.8785132     -1223.8724     -657.93161      999.88586    
     47500   47500          595.6168      -960.48439      20183.754      21288.226      11396.425      9891.8014      5007.8213      4433.7047     -819.85973      383.82707      956.15668      3861.0291     -3930.8777     -364.78334      78847.616      42.880798      42.880798      42.880798      0.87781339    -1795.5499     -1957.9301      872.02684    
     48000   48000          603.92488     -1514.3991      19885.505      21626.553      11555.39       10071.163      5159.101       4502.4821     -845.78487      382.73649      951.4426       3847.0039     -3925.8177     -364.86238      78830.534      42.877701      42.877701      42.877701      0.8780036     -747.96494     -865.31741     -2929.9149    
     48500   48500          613.31368      1208.2133      23086.862      21707.185      11735.033      9972.1515      5109.3505      4567.8681     -1003.7217      382.93177      1000.1907      3845.9751     -3930.4429     -367.33782      78299.306      42.781168      42.781168      42.781168      0.88396049     1485.2032      903.64541      1235.7911    
     49000   49000          608.65596      1097.7086      22785.913      21526.634      11645.913      9880.721       5055.8369      4463.4463     -987.10994      379.02238      1039.5913      3852.32       -3922.3859     -365.64935      78660.871      42.846918      42.846918      42.846918      0.87989737     1438.3869      944.20298      910.53582    
     49500   49500          602.99197     -886.27221      20447.113      21472.719      11537.54       9935.1796      5166.5953      4534.8741     -935.8515       376.83712      882.0011       3841.8532     -3931.1298     -362.48169      79348.274      42.971366      42.971366      42.971366      0.87227472     683.94914     -1902.0224     -1440.7434    
     50000   50000          592.94377      83.600031      21538.961      21442.164      11345.279      10096.884      5090.2279      4548.8293     -847.62793      412.87793      963.67594      3851.9322     -3923.031      -362.27794      79392.9        42.979421      42.979421      42.979421      0.87178441    -1218.5498      800.85567      668.49421    
     50500   50500          602.52003     -276.30432      21408.786      21724.316      11528.51       10195.807      5170.7522      4530.1809     -827.87376      397.67811      979.67836      3863.184      -3917.793      -367.32136      78302.814      42.781807      42.781807      42.781807      0.88392089     1838.2473     -1168.9729     -1498.1874    
     51000   51000          606.81568     -1477.5931      20020.446      21702.959      11610.702      10092.258      5043.4132      4653.1147     -844.40745      404.29985      894.33465      3862.9969     -3921.4943     -368.37979      78077.835      42.740794      42.740794      42.740794      0.88646788    -589.23116     -1694.1937     -2149.3544    
     51500   51500          593.48477     -625.49479      20668.817      21384.939      11355.631      10029.309      5013.5785      4593.9685     -836.35562      396.481        924.1723       3861.3409     -3923.877      -366.38371      78503.208      42.818272      42.818272      42.818272      0.88166452    -777.50661     -71.282952     -1027.6948    
     52000   52000          607.88613      1655.3404      23319.63       21421.535      11631.184      9790.351       4884.7419      4569.947      -949.80448      400.22626      961.49764      3849.1178     -3925.3752     -365.82116      78623.927      42.840209      42.840209      42.840209      0.88031081     790.14714      2421.8646      1754.0094    
     52500   52500          597.3489       32.252534      21552.542      21515.152      11429.566      10085.585      5081.8343      4510.4976     -847.27366      419.57462      990.43116      3854.2782     -3923.757      -361.8326       79490.617      42.997046      42.997046      42.997046      0.87071274    -406.33879      2825.1637     -2322.0673    
     53000   53000          592.80133      2413.6506      24350.858      21507.532      11342.554      10164.978      5087.1398      4665.1993     -1041.8918      406.5656       1100.9651      3860.2963     -3913.2958     -356.0797       80774.884      43.227367      43.227367      43.227367      0.85686899     2706.7291      1838.6348      2695.5878    
     53500   53500          586.80343      261.23246      21497.985      21194.247      11227.791      9966.4564      5064.2556      4468.4168     -904.4241       408.43581      989.47896      3856.3953     -3916.102      -360.76771      79725.253      43.03931       43.03931       43.03931       0.86815019    -113.06564      1647.1683     -750.40532    
     54000   54000          601.47907     -526.27204      20696.708      21294.96       11508.592      9786.3683      4912.6502      4428.0904     -809.55154      404.44606      907.65179      3862.9592     -3919.8778     -368.99911      77946.791      42.716869      42.716869      42.716869      0.88795821    -1099.3136      266.7941      -746.29662    
     54500   54500          611.15941      847.76397      22497.42       21525.955      11693.814      9832.1415      4988.188       4437.0034     -872.98848      406.8608       940.81617      3854.2365     -3921.975      -366.05605      78573.476      42.831043      42.831043      42.831043      0.88087605     842.192       -57.707015      1758.8069    
     55000   55000          600.09617     -716.62745      20603.515      21436.105      11482.132      9953.9732      5081.1543      4407.5624     -861.59767      413.72672      983.86659      3847.6295     -3918.3688     -361.04537      79663.939      43.028274      43.028274      43.028274      0.86881837    -3904.7433      1828.0339     -73.173015    
     55500   55500          597.98392     -195.0509       21246.754      21471.476      11441.716      10029.759      5074.6742      4588.3038     -926.42253      396.76846      950.33367      3862.6789     -3916.5772     -364.08453      78998.954      42.908215      42.908215      42.908215      0.87613177    -1297.4136      517.85595      194.40498    
     56000   56000          600.53576      2642.8069      24431.597      21388.089      11490.543      9897.5464      5098.2564      4472.1905     -961.46699      395.2576       958.5049       3855.8645     -3921.0605     -364.24244      78964.704      42.902013      42.902013      42.902013      0.87651178     1416.1828      2494.5096      4017.7284    
     56500   56500          606.5276       1049.8071      22750.788      21522.858      11605.19       9917.6687      5081.5186      4446.9683     -944.39462      397.28179      983.58183      3863.3694     -3910.6567     -358.62098      80202.493      43.125018      43.125018      43.125018      0.86298431    -555.2024       2197.8415      1506.7824    
     57000   57000          599.13452     -65.017832      21481.8        21557.183      11463.732      10093.451      4986.7128      4633.7514     -866.68213      390.77064      1011.0563      3852.0099     -3914.1674     -361.79         79499.976      42.998734      42.998734      42.998734      0.87061024     526.96783     -2588.548       1866.5267    
     57500   57500          601.90686      820.16203      22594.826      21649.62       11516.777      10132.843      5114.6312      4594.365      -873.93607      394.01683      970.53778      3854.4349     -3921.207      -363.97592      79022.526      42.912482      42.912482      42.912482      0.87587043     782.40961      435.28392      1242.7926    
     58000   58000          608.60671      303.59194      22225.41       21873.495      11644.971      10228.524      5266.2682      4544.1385     -909.17368      415.44608      984.69157      3848.7574     -3921.6041     -361.86959      79482.49       42.995581      42.995581      42.995581      0.87080177     1676.5194     -309.28889     -456.45474    
     58500   58500          606.51746      1201.7868      22908.015      21508.452      11604.996      9903.4559      4925.3138      4520.0123     -863.19571      408.70302      987.50001      3844.8369     -3919.7144     -360.19212      79852.653      43.062223      43.062223      43.062223      0.8667651      645.9924       1839.0274      1120.3407    
     59000   59000          590.43359      1263.4277      22912.039      21456.384      11297.25       10159.134      5091.1526      4565.5383     -840.58107      418.13694      996.92451      3849.8879     -3921.9249     -364.07544      79000.926      42.908572      42.908572      42.908572      0.8761099      1420.3636      1215.7882      1154.1314    
     59500   59500          602.94169      2594.0189      24396.236      21413.77       11536.578      9877.1925      5087.3467      4523.2281     -1043.2703      391.67383      987.66024      3851.7141     -3921.1602     -364.83548      78836.346      42.878755      42.878755      42.878755      0.87793887     1723.1583      904.47986      5154.4186    
     60000   60000          596.93421      497.89335      22001.929      21423.165      11421.631      10001.534      5025.2094      4507.9994     -838.35605      409.8839       975.03649      3838.8346     -3917.0741     -360.85664      79705.605      43.035774      43.035774      43.035774      0.86836419     1343.7215      394.64507     -244.68657    
     60500   60500          603.98132      1171.7191      22963.16       21602.998      11556.47       10046.528      5134.3474      4571.4045     -942.99961      377.39987      972.3973       3852.3755     -3918.3972     -361.35344      79596.023      43.016043      43.016043      43.016043      0.86955968     2300.6037      1876.9382     -662.38451    
     61000   61000          604.428       -828.0537       20604.957      21554.109      11565.016      9989.0931      5093.2575      4599.4086     -884.96612      399.26566      855.765        3851.9308     -3925.5683     -365.95025      78596.194      42.835171      42.835171      42.835171      0.88062144    -947.32726     -1370.0766     -166.75728    
     61500   61500          612.44807     -339.44046      21134.276      21519.476      11718.471      9801.0052      5069.045       4485.4288     -939.09191      385.2792       876.62464      3857.4227     -3933.7032     -369.63758      77812.155      42.69226       42.69226       42.69226       0.88949462    -134.65054     -1583.9346      700.26376    
     62000   62000          588.14931      145.11003      21358.593      21194.956      11253.543      9941.4136      5020.5482      4465.2103     -800.23343      407.44772      919.68054      3859.4309     -3930.6707     -371.97619      77322.951      42.602603      42.602603      42.602603      0.89512224     36.259999     -517.47611      916.5462     
     62500   62500          603.87079     -669.7856       20601.249      21365.077      11554.355      9810.7225      5033.2957      4429.7484     -921.73502      385.28974      946.01711      3863.2472     -3925.1406     -367.82369      78195.878      42.762323      42.762323      42.762323      0.88512969    -1621.0432     -523.65039      135.3368     
     63000   63000          612.93369     -320.9268       21197.267      21563.939      11727.763      9836.1759      5123.1477      4471.02       -953.93861      391.3183       871.04752      3860.0129     -3926.4319     -367.13682      78342.174      42.788974      42.788974      42.788974      0.8834768      188.69221     -983.51097     -167.96165    
     63500   63500          599.28323      57.512682      21595.906      21530.141      11466.577      10063.564      5234.4137      4446.7111     -852.77742      403.66619      901.13152      3855.3863     -3924.9677     -366.83274      78407.113      42.800794      42.800794      42.800794      0.88274507    -470.2506       231.79151      410.99713    
     64000   64000          600.71125      113.13187      21565.824      21436.541      11493.901      9942.6402      5070.5211      4480.9979     -873.85879      394.13914      926.09871      3863.5761     -3918.8339     -367.0656       78357.374      42.791741      42.791741      42.791741      0.88330542     1888.1779      495.63306     -2044.4154    
     64500   64500          600.18009      627.37896      22049.152      21327.332      11483.738      9843.5938      5119.1198      4432.311      -969.01929      387.92706      933.24373      3851.886      -3911.8744     -364.58602      78890.289      42.888532      42.888532      42.888532      0.87733856     16.357851      646.08964      1219.6894    
     65000   65000          592.73448     -870.9884       20465.88       21488.757      11341.275      10147.482      5109.8845      4650.8572     -957.11989      391.92871      1013.3544      3857.6533     -3919.0764     -357.18104      80525.821      43.182892      43.182892      43.182892      0.85951924    -532.18205     -977.33808     -1103.4451    
     65500   65500          601.23444     -549.63911      20866.797      21510.566      11503.911      10006.655      5151.3663      4461.8488     -905.52878      390.47418      972.74979      3851.4243     -3915.6801     -358.13506      80311.313      43.144513      43.144513      43.144513      0.86181499    -511.85254      34.583085     -1171.6479    
     66000   66000          610.42448     -1430.2372      20062.601      21721.475      11679.752      10041.724      5124.1703      4600.8994     -949.8886       389.4911       940.68807      3856.6346     -3920.2714     -361.6546       79529.74       43.004099      43.004099      43.004099      0.87028441    -1458.0628     -1035.8574     -1796.7914    
     66500   66500          602.22704      704.07676      22346.071      21540.802      11522.904      10017.898      5111.7543      4492.4912     -906.63756      385.78913      1003.4897      3853.3607     -3922.3491     -366.75717      78423.269      42.803733      42.803733      42.803733      0.88256322    -395.76825     -1611.6985      4119.697     
     67000   67000          598.06174     -874.91132      20561.636      21566.35       11443.205      10123.145      5201.8528      4468.63       -811.41457      399.41508      937.82234      3852.8842     -3926.0448     -365.27591      78741.289      42.861514      42.861514      42.861514      0.87899873    -743.71955      1072.0312     -2953.0456    
     67500   67500          604.05964     -3566.7347      17406.549      21513.326      11557.968      9955.3576      5064.1117      4518.6947     -821.79504      393.47864      870.97596      3857.5921     -3927.7004     -364.3084       78950.407      42.899424      42.899424      42.899424      0.87667051    -4092.7571     -4415.7998     -2191.6472    
     68000   68000          606.41704      567.05712      22079.135      21430.803      11603.074      9827.7291      4926.901       4425.5717     -801.01321      401.49402      946.09291      3853.7461     -3925.0635     -366.88452      78396.048      42.79878       42.79878       42.79878       0.88286967     459.38981      1448.1134     -206.33189    
     68500   68500          590.28581     -854.82535      20228.261      21196.991      11294.422      9902.5691      5031.1496      4478.1978     -858.77067      415.99218      914.20452      3850.6715     -3928.8758     -370.14658      77705.152      42.672682      42.672682      42.672682      0.89071949    -2330.5459      2505.1982     -2739.1284    
     69000   69000          605.32937     -1391.3463      19714.597      21300.043      11582.263      9717.7802      5074.1722      4316.5684     -865.02495      403.43446      855.54422      3860.8519     -3927.766      -368.11478      78134.045      42.751048      42.751048      42.751048      0.88583015    -1918.6403     -1230.1087     -1025.2898    
     69500   69500          597.77775      510.12934      21909.937      21321.024      11437.772      9883.2525      5109.3425      4474.0271     -941.66853      378.06939      943.11347      3847.6508     -3927.2822     -363.35324      79157.946      42.936981      42.936981      42.936981      0.87437202     747.10183      2322.871      -1539.5848    
     70000   70000          609.11599     -38.550263      21396.712      21440.607      11654.716      9785.8919      4978.2589      4413.7859     -857.60962      379.28375      919.5094       3877.2747     -3924.6111     -368.39123      78075.411      42.740352      42.740352      42.740352      0.8864954     -1412.3484      606.94919      689.74844    
     70500   70500          590.79534     -1077.9815      20037.842      21260.311      11304.172      9956.1392      5028.1004      4539.3771     -808.51688      394.85598      865.66927      3868.4419     -3931.7886     -369.89032      77758.987      42.682534      42.682534      42.682534      0.89010282    -2823.1228      460.51211     -871.33384    
     71000   71000          597.9175       1037.2994      22631.953      21450.562      11440.446      10010.116      5220.1841      4478.6746     -939.12994      409.16429      896.35279      3867.3885     -3922.5179     -368.30702      78093.262      42.743609      42.743609      42.743609      0.88629276     852.02191      1829.8696      430.00665    
     71500   71500          604.46339     -140.73834      21469.015      21631.807      11565.694      10066.114      5049.1683      4573.0084     -827.62168      388.49542      936.60609      3866.8456     -3920.3887     -362.64179      79313.244      42.965042      42.965042      42.965042      0.87265997     8.2808443     -162.34248     -268.15338    
     72000   72000          594.45386     -1051.5619      20338.59       21557.212      11374.173      10183.039      5175.791       4549.1278     -830.7828       390.84981      962.25193      3860.4153     -3924.6141     -361.96381      79461.801      42.99185       42.99185       42.99185       0.8710285     -1442.3491     -1748.2035      35.866993    
     72500   72500          596.36783      1192.8527      22648.852      21286.386      11410.795      9875.5916      5036.9147      4487.9452     -932.11055      408.3672       945.03567      3856.2019     -3926.7624     -367.24909      78318.223      42.784613      42.784613      42.784613      0.88374698     2522.5259      2421.7223     -1365.6902    
     73000   73000          595.82632      586.45322      21976.444      21306.692      11400.433      9906.2589      5015.4284      4445.5005     -841.38234      413.2063       951.96491      3847.0388     -3925.4976     -367.2985       78307.687      42.782694      42.782694      42.782694      0.88386588     404.61785      1233.8784      120.86337    
     73500   73500          609.97913      464.67808      22003.873      21468.189      11671.231      9796.9582      5046.9227      4500.6596     -937.23437      386.05302      871.06787      3849.294      -3919.8046     -363.86722      79046.133      42.916755      42.916755      42.916755      0.87560885    -336.59715      878.1964       852.435      
     74000   74000          606.46998      905.89725      22754.948      21730.446      11604.087      10126.358      5130.7416      4520.9211     -832.13753      415.3255       951.60743      3863.2477     -3923.3474     -370.90731      77545.78       42.643488      42.643488      42.643488      0.89255009     1019.1878      248.39181      1450.1121    
     74500   74500          601.89159      1436.2996      23185.221      21565.355      11516.485      10048.87       5081.7731      4567.0354     -875.71537      404.3085       936.39597      3860.4859     -3925.4132     -371.93382      77331.759      42.604221      42.604221      42.604221      0.89502028     219.93187      2028.0966      2060.8704    
     75000   75000          592.9918       1351.0133      22822.938      21298.434      11346.198      9952.236       5034.2996      4596.4004     -913.2573       410.9986       919.75694      3839.52       -3935.4823     -371.73251      77373.638      42.611911      42.611911      42.611911      0.89453585     1927.2951      112.41459      2013.3304    
[...]
   4179500   4179500        200.01664      283.38252      5766.3248      5481.0202      3827.0823      1653.9379      2113.3716      2013.3113     -2414.8008      144.79198     -66.579189      3836.8108     -3972.9677     -416.64264      69033.492      41.022295      41.022295      41.022295      1.0026074      1780.2776      100.27504     -1030.4051    
   4180000   4180000        196.50846      43.680969      5461.221       5416.9855      3759.9574      1657.0281      2157.8228      1989.2479     -2432.8096      144.99843     -66.164698      3837.3017     -3973.3684     -414.21015      69438.898      41.10244       41.10244       41.10244       0.9967539      362.89111      184.92509     -416.77329    
   4180500   4180500        199.89591     -272.45437      5248.1732      5520.2813      3824.7724      1695.5089      2114.8748      2008.6399     -2344.6713      139.90748     -74.01294       3830.2568     -3979.4859     -420.00246      68481.257      40.912615      40.912615      40.912615      1.0106925     -546.33392      634.15281     -905.18199    
   4181000   4181000        201.72697     -594.92215      4997.8641      5600.4806      3859.8075      1740.6731      2162.5387      2075.4752     -2402.8086      138.66796     -101.33651      3839.4101     -3971.2738     -414.11274      69455.233      41.105663      41.105663      41.105663      0.99651949     485.86142      804.38749     -3075.0153    
   4181500   4181500        202.181        426.76362      5952.8383      5526.2791      3868.4948      1657.7843      2094.4502      2010.0073     -2389.1351      148.63465     -64.032845      3839.3772     -3981.517      -419.66963      68535.568      40.923428      40.923428      40.923428      1.0098916      163.87132      201.39521      915.02431    
   4182000   4182000        198.28958     -894.0758       4638.7137      5537.8402      3794.0372      1743.803       2124.8749      2040.6751     -2349.8385      144.69806     -79.514327      3839.4404     -3976.5327     -417.11232      68955.758      41.006891      41.006891      41.006891      1.0037377     -1942.4775     -133.94441     -605.80547    
   4182500   4182500        199.16787      920.09483      6407.5439      5482.089       3810.8422      1671.2468      2160.4473      2014.9496     -2424.9645      139.47067     -78.991981      3835.6742     -3975.3384     -417.0391       68967.865      41.009291      41.009291      41.009291      1.0035615      103.41356      1961.1318      695.73913    
   4183000   4183000        199.05725     -841.23335      4648.0662      5494.6592      3808.7255      1685.9338      2131.9957      1991.822      -2382.0943      140.91009     -54.632754      3833.378      -3975.445      -416.81296      69005.283      41.016706      41.016706      41.016706      1.0030173     -850.64061     -578.08359     -1094.9758    
   4183500   4183500        203.04805      766.06027      6325.2499      5554.8841      3885.0848      1669.7992      2137.906       2042.4139     -2444.6748      137.57487     -59.959857      3833.5778     -3977.0387     -417.1242       68953.796      41.006502      41.006502      41.006502      1.0037663      852.75861      607.71469      837.70751    
   4184000   4184000        204.94125     -991.69767      4562.6724      5559.2995      3921.3089      1637.9907      2080.3077      2037.3962     -2379.3012      138.76454     -97.395526      3834.1306     -3975.9117     -417.39385      68909.249      40.99767       40.99767       40.99767       1.0044151     -1205.3263     -823.24498     -946.52169    
   4184500   4184500        195.79662     -343.41539      5054.5982      5399.6528      3746.3372      1653.3156      2103.0075      2007.2075     -2378.8853      140.89119     -71.330795      3831.0125     -3978.587      -417.47582      68895.718      40.994986      40.994986      40.994986      1.0046124      200.8761      -493.96441     -737.15785    
   4185000   4185000        198.53017      245.11762      5703.6279      5456.6782      3798.6404      1658.0378      2095.9211      2028.0287     -2407.8566      145.22839     -69.642715      3844.4396     -3978.0807     -416.35667      69080.907      41.031684      41.031684      41.031684      1.0019193     -416.56498      1825.0588     -673.14092    
   4185500   4185500        200.06488      825.46299      6415.9174      5583.7706      3828.0054      1755.7652      2197.3383      2041.2236     -2423.8881      149.66626     -60.25759       3827.0424     -3975.3597     -416.09941      69123.618      41.040139      41.040139      41.040139      1.0013002      767.29235     -332.50122      2041.5978    
   4186000   4186000        199.77976     -628.2546       4890.9238      5521.9079      3822.55        1699.3579      2190.1989      1985.9447     -2408.5345      146.91643     -74.92625       3834.4085     -3974.65       -417.65407      68866.314      40.989153      40.989153      40.989153      1.0050413     -1911.6213      13.439092      13.418371    
   4186500   4186500        200.68118     -38.148951      5494.6512      5533.2171      3839.7975      1693.4196      2183.1152      1994.8315     -2382.9359      136.05973     -85.748725      3824.776      -3976.6782     -414.93318      69317.899      41.078552      41.078552      41.078552      0.99849381    -786.8991       1630.9989     -958.54668    
   4187000   4187000        199.34566      784.72086      6317.0865      5531.543       3814.244       1717.2991      2168.2805      1997.2634     -2392.4384      144.27286     -58.095421      3833.3222     -3975.306      -419.02931      68640.297      40.944262      40.944262      40.944262      1.0083507     -284.93878      1313.1452      1325.9562    
   4187500   4187500        199.33404     -2476.0969      3005.1404      5507.3569      3814.0216      1693.3353      2131.8258      1987.1566     -2335.6631      143.00585     -90.93373       3835.2212     -3977.2773     -415.08992      69291.725      41.073381      41.073381      41.073381      0.99887098    -3304.5233     -1959.5776     -2164.1897    
   4188000   4188000        196.46896     -391.9951       5073.9389      5468.1275      3759.2016      1708.9259      2100.3709      2022.862      -2342.4704      139.91877     -73.897746      3837.482      -3975.3396     -417.13442      68952.105      41.006167      41.006167      41.006167      1.0037909      127.03272     -380.60792     -922.41011    
   4188500   4188500        198.67124      406.66442      5864.6254      5455.5813      3801.3397      1654.2416      2096.7227      2013.1837     -2389.6415      141.49474     -75.198035      3844.8814     -3977.2015     -417.02827      68969.657      41.009646      41.009646      41.009646      1.0035354     -378.89737      1895.8043     -296.91366    
   4189000   4189000        202.37991      419.70114      5990.2254      5568.6042      3872.3008      1696.3035      2121.3653      2021.3065     -2403.5593      143.75763     -43.802127      3835.7574     -3978.522      -417.5584       68882.093      40.992283      40.992283      40.992283      1.0048111      1469.9027     -107.54583     -103.25341    
   4189500   4189500        202.05098      513.76611      6025.8578      5508.1877      3866.0069      1642.1808      2148.2789      1989.0586     -2440.1038      141.98769     -57.672945      3834.7728     -3974.1405     -416.30519      69089.451      41.033376      41.033376      41.033376      1.0017954      946.41226      571.74167      23.144399    
   4190000   4190000        202.55426      680.47004      6310.2067      5621.9221      3875.6366      1746.2855      2146.6709      2024.6949     -2403.1219      145.4721      -29.573265      3835.4419     -3973.2992     -414.70611      69355.853      41.086048      41.086048      41.086048      0.99794739     1603.4055     -8.0510014      446.05567    
   4190500   4190500        200.51799      799.86762      6336.1653      5532.0103      3836.675       1695.3353      2155.6632      1992.9966     -2420.1076      144.96525     -52.525546      3847.8032     -3973.4597     -417.23218      68935.95       41.002964      41.002964      41.002964      1.0040261      948.18578      887.51848      563.89859    
   4191000   4191000        197.2823      -779.1027       4713.1988      5503.4683      3774.764       1728.7042      2132.8963      2016.8434     -2342.9385      142.36871     -96.233176      3846.042      -3970.2746     -413.54137      69551.195      41.124585      41.124585      41.124585      0.99514455     15.522942     -2395.698       42.866927    
   4191500   4191500        199.15741      438.07607      5900.5702      5461.8768      3810.642       1651.2348      2108.6102      2001.547      -2394.3447      135.80848     -69.6635        3843.5088     -3974.2315     -418.87831      68665.042      40.949182      40.949182      40.949182      1.0079873      428.62182     -236.81491      1122.4213    
   4192000   4192000        197.89692     -402.07613      5028.9691      5433.5422      3786.5239      1647.0183      2155.5469      1953.5655     -2393.9159      142.90887     -72.993241      3834.6962     -3972.7901     -416.87972      68994.233      41.014517      41.014517      41.014517      1.003178      -1448.2671      560.25687     -318.21817    
   4192500   4192500        196.67039     -784.03665      4626.233       5413.327       3763.0557      1650.2712      2126.499       2038.5197     -2405.166       133.5258      -116.69802      3846.1881     -3972.5974     -417.83925      68835.794      40.983097      40.983097      40.983097      1.0054869     -2038.0144     -472.4787       158.38319    
   4193000   4193000        202.31879      308.31571      5882.1434      5571.4113      3871.1313      1700.28        2155.291       2016.7403     -2408.6177      143.54548     -70.676307      3837.7631     -3973.7659     -416.20671      69105.797      41.036612      41.036612      41.036612      1.0015584     -555.23662      755.87801      724.30573    
   4193500   4193500        199.99832      555.64546      6089.939       5534.3007      3826.7318      1707.5689      2185.4876      1982.7349     -2401.6877      144.76079     -64.322488      3837.9842     -3977.3884     -419.47399      68567.532      40.929789      40.929789      40.929789      1.0094208      793.56664      963.70373     -90.33398     
   4194000   4194000        200.4255       402.53829      5956.3359      5549.9197      3834.9054      1715.0143      2136.2273      2030.31       -2408.7938      141.9274      -49.482923      3839.9437     -3975.1175     -415.46611      69228.984      41.060981      41.060981      41.060981      0.99977624     907.99866     -593.99195      893.60816    
   4194500   4194500        198.8936      -985.83988      4460.7885      5451.3818      3805.5944      1645.7875      2128.3172      2017.1058     -2380.5662      146.53188     -119.52043      3831.1147     -3977.1954     -417.45572      68899.036      40.995644      40.995644      40.995644      1.004564      -846.05435     -477.9085      -1633.5568    
   4195000   4195000        198.55493     -1011.3854      4471.423       5490.2791      3799.1142      1691.1649      2176.2112      1960.5141     -2362.6968      140.66113     -83.791122      3837.1611     -3976.8946     -416.39288      69074.9        41.030495      41.030495      41.030495      1.0020064     -705.90115     -480.30571     -1847.9492    
   4195500   4195500        201.61146      1066.5179      6598.0797      5530.059       3857.5973      1672.4617      2171.6279      1983.7775     -2424.7404      141.72309     -61.055068      3837.6193     -3976.4907     -418.87838      68665.031      40.94918       40.94918       40.94918       1.0079875      1416.1341      886.19192      897.22763    
   4196000   4196000        199.14454     -679.45758      4855.7241      5538.881       3810.3958      1728.4852      2202.0774      2057.7726     -2469.5855      137.71218     -60.165301      3835.5214     -3974.8477     -417.19719      68941.732      41.004111      41.004111      41.004111      1.0039419     -1467.3375     -891.34918      320.31392    
   4196500   4196500        201.88747     -1041.6611      4579.0411      5627.553       3862.8784      1764.6746      2162.5688      2025.3939     -2342.0074      146.13443     -91.764201      3839.9327     -3975.5836     -416.72789      69019.37       41.019497      41.019497      41.019497      1.0028126      60.04329      -2217.3305     -967.6961     
   4197000   4197000        200.05622      770.8652       6307.5788      5538.1948      3827.8396      1710.3552      2150.6547      2042.8161     -2414.8372      142.31918     -69.984274      3834.8012     -3975.4144     -420.27618      68436.656      40.903731      40.903731      40.903731      1.0113512      1142.2904      882.14733      288.15784    
   4197500   4197500        196.61513      287.34695      5758.5814      5470.4006      3761.9984      1708.4022      2193.0101      2015.3984     -2422.344       145.90238     -80.418805      3833.0893     -3976.2351     -418.25489      68767.389      40.969517      40.969517      40.969517      1.0064871      587.59685     -451.06714      725.51114    
   4198000   4198000        198.71772     -782.91511      4672.6783      5460.392       3802.229       1658.163       2137.2629      1984.163      -2374.1221      140.6529      -83.437502      3831.6153     -3977.9715     -416.9133       68988.675      41.013415      41.013415      41.013415      1.0032588     -1037.8301     -1431.4624      120.54716    
   4198500   4198500        202.56216      414.37544      5940.6196      5523.4417      3875.7878      1647.6539      2137.6192      1998.0052     -2412.5906      142.81343     -73.659347      3831.4633     -3975.9972     -416.65074      69032.151      41.022029      41.022029      41.022029      1.0026269     -247.46248      2147.8146     -657.22584    
   4199000   4199000        201.06594      531.05218      6110.8771      5576.5169      3847.1594      1729.3575      2142.3989      2011.3871     -2376.9543      143.30488     -41.333509      3828.529      -3977.9746     -416.87188      68995.531      41.014774      41.014774      41.014774      1.0031591      768.92359      405.56406      418.6689     
   4199500   4199500        201.9706      -844.3979       4761.3836      5611.7904      3864.469       1747.3214      2154.0443      2016.9228     -2351.8927      145.46866     -84.984985      3842.806      -3975.0427     -416.50467      69056.361      41.026824      41.026824      41.026824      1.0022754     -1100.7574     -1062.9688     -369.46757    
   4200000   4200000        200.15365     -1052.2375      4435.7278      5486.5949      3829.7038      1656.8911      2129.7565      1992.3042     -2369.755       146.5124      -108.86055      3843.9172     -3976.9837     -420.01564      68479.109      40.912187      40.912187      40.912187      1.0107242     -979.80584      208.21119     -2385.1178    
Loop time of 394.758 on 1 procs for 200000 steps with 6420 atoms

Performance: 43.774 ns/day, 0.548 hours/ns, 506.639 timesteps/s, 3.253 Matom-step/s
100.0% CPU use with 1 MPI tasks x 1 OpenMP threads

MPI task timing breakdown:
Section |  min time  |  avg time  |  max time  |%varavg| %total
---------------------------------------------------------------
Pair    | 44.212     | 44.212     | 44.212     |   0.0 | 11.20
Bond    | 57.327     | 57.327     | 57.327     |   0.0 | 14.52
Kspace  | 197.94     | 197.94     | 197.94     |   0.0 | 50.14
Neigh   | 18.152     | 18.152     | 18.152     |   0.0 |  4.60
Comm    | 3.7799     | 3.7799     | 3.7799     |   0.0 |  0.96
Output  | 0.053216   | 0.053216   | 0.053216   |   0.0 |  0.01
Modify  | 64.178     | 64.178     | 64.178     |   0.0 | 16.26
Other   |            | 9.116      |            |       |  2.31

Nlocal:           6420 ave        6420 max        6420 min
Histogram: 1 0 0 0 0 0 0 0 0 0
Nghost:          18017 ave       18017 max       18017 min
Histogram: 1 0 0 0 0 0 0 0 0 0
Neighs:              0 ave           0 max           0 min
Histogram: 1 0 0 0 0 0 0 0 0 0
FullNghs:  3.82987e+06 ave 3.82987e+06 max 3.82987e+06 min
Histogram: 1 0 0 0 0 0 0 0 0 0

Total # of neighbors = 3829870
Ave neighs/atom = 596.55296
Ave special neighs/atom = 5.8598131
Neighbor list builds = 3274
Dangerous builds = 0
  unfix npt_tg
  shell echo '{"stage":"T${temps}","status":"done"}' >> /home/alexzhao/PolyJarvis/data/PS4/lammps/thermal/tg_sweep_r100/tg_progress.jsonl
  dump per_t_snap all atom 1 per_t_structs.dump
  dump_modify per_t_snap append yes
  run 0
WARNING: No fixes with time integration, atoms won't move
For more information see https://docs.lammps.org/err0028 (src/verlet.cpp:60)
PPPM Kokkos initialization ...
  using 12-bit tables for long-range coulomb
  G vector (1/distance) = 0.30328449
  grid = 30 30 30
  stencil order = 5
  estimated absolute RMS force accuracy = 0.00026489395
  estimated relative force accuracy = 7.9772027e-07
  using double precision cuFFT
  3d grid and FFT values/proc = 50653 27000
Generated 6 of 6 mixed pair_coeff terms from sixthpower/sixthpower mixing rule
Per MPI rank memory allocation (min/avg/max) = 42.59 | 42.59 | 42.59 Mbytes
   Step          Time           Temp          Press         Enthalpy        TotEng         KinEng         PotEng         E_bond        E_angle        E_dihed        E_impro         E_vdwl         E_coul         E_long         E_tail         Volume           Lx             Ly             Lz          Density          Pxx            Pyy            Pzz      
   4200000   4200000        200.15365     -1052.2368      4435.7287      5486.595       3829.7038      1656.8913      2129.7565      1992.3042     -2369.755       146.5124      -108.86055      3847.4227     -3980.489      -420.01564      68479.109      40.912187      40.912187      40.912187      1.0107242     -979.80468      208.21176     -2385.1175    
Loop time of 8.2956e-05 on 1 procs for 0 steps with 6420 atoms

102.5% CPU use with 1 MPI tasks x 1 OpenMP threads

MPI task timing breakdown:
Section |  min time  |  avg time  |  max time  |%varavg| %total
---------------------------------------------------------------
Pair    | 0          | 0          | 0          |   0.0 |  0.00
Bond    | 0          | 0          | 0          |   0.0 |  0.00
Kspace  | 0          | 0          | 0          |   0.0 |  0.00
Neigh   | 0          | 0          | 0          |   0.0 |  0.00
Comm    | 0          | 0          | 0          |   0.0 |  0.00
Output  | 0          | 0          | 0          |   0.0 |  0.00
Modify  | 0          | 0          | 0          |   0.0 |  0.00
Other   |            | 8.296e-05  |            |       |100.00

Nlocal:           6420 ave        6420 max        6420 min
Histogram: 1 0 0 0 0 0 0 0 0 0
Nghost:          17996 ave       17996 max       17996 min
Histogram: 1 0 0 0 0 0 0 0 0 0
Neighs:              0 ave           0 max           0 min
Histogram: 1 0 0 0 0 0 0 0 0 0
FullNghs:  3.82722e+06 ave 3.82722e+06 max 3.82722e+06 min
Histogram: 1 0 0 0 0 0 0 0 0 0

Total # of neighbors = 3827218
Ave neighs/atom = 596.13988
Ave special neighs/atom = 5.8598131
Neighbor list builds = 0
Dangerous builds = 0
  undump per_t_snap
  print "STAGE COMPLETE: Tg step T=${temps}K P=1.0atm steps=200000"
STAGE COMPLETE: Tg step T=200K P=1.0atm steps=200000
  next temps
  jump SELF TEMP_LOOP

write_data tg_step_out.data
System init for write_data ...
PPPM Kokkos initialization ...
  using 12-bit tables for long-range coulomb
  G vector (1/distance) = 0.30328449
  grid = 30 30 30
  stencil order = 5
  estimated absolute RMS force accuracy = 0.00026489395
  estimated relative force accuracy = 7.9772027e-07
  using double precision cuFFT
  3d grid and FFT values/proc = 50653 27000
Generated 6 of 6 mixed pair_coeff terms from sixthpower/sixthpower mixing rule
Total wall time: 2:29:46
