units real
atom_style full
boundary p p p

# --- Force Field Styles ---
pair_style lj/class2/coul/long 9.5 9.5
kspace_style pppm 1e-6
dielectric 1.000000
bond_style class2
angle_style class2
dihedral_style class2
improper_style class2
special_bonds lj/coul 0 0 1
pair_modify mix sixthpower tail yes
neighbor 2.0 bin
neigh_modify delay 0 every 1 check yes
neigh_modify one 4000
# KOKKOS: package loaded via -pk kokkos on the command line

read_data /home/arz2/PolyJarvis/data/PLA2/lammps/equil/npt_prod300/npt_prod300_out.data
Reading data file ...
  orthogonal box = (4.5648927 4.5648927 4.5648927) to (41.068231 41.068231 41.068231)
  1 by 1 by 1 MPI processor grid
  reading atoms ...
  4520 atoms
  reading velocities ...
  4520 velocities
  scanning bonds ...
  4 = max bonds/atom
  scanning angles ...
  12 = max angles/atom
  scanning dihedrals ...
  21 = max dihedrals/atom
  scanning impropers ...
  8 = max impropers/atom
  orthogonal box = (4.5648927 4.5648927 4.5648927) to (41.068231 41.068231 41.068231)
  1 by 1 by 1 MPI processor grid
  reading bonds ...
  4510 bonds
  reading angles ...
  8000 angles
  reading dihedrals ...
  9970 dihedrals
  reading impropers ...
  4500 impropers
Finding 1-2 1-3 1-4 neighbors ...
  special bond factors lj:    0        0        1       
  special bond factors coul:  0        0        1       
     4 = max # of 1-2 neighbors
     6 = max # of 1-3 neighbors
    10 = max # of special neighbors
  special bonds CPU = 0.003 seconds
  read_data CPU = 0.314 seconds


# --- Thermo: stress tensor (pxx/pyy/pzz) required for elastic constant extraction ---
thermo_style custom step time temp press pxx pyy pzz lx ly lz vol density etotal
thermo_modify flush yes
thermo 100

# --- Trajectory (disabled by default — log is sufficient for elastic analysis) ---
# Dump disabled (thermo-only run)

# Velocities read from data file
fix shake_fix all shake 1e-4 1000 0 m 1.008
Finding SHAKE clusters ...
     500 = # of size 2 clusters
      10 = # of size 3 clusters
     500 = # of size 4 clusters
       0 = # of frozen angles
  find clusters CPU = 0.002 seconds

# ── Phase 1: NVT pre-equilibration ─────────────────────────────────────────
# Brief re-thermalisation at T_TARGET before applying strain.
timestep 1
fix nvt_eq all nvt temp 300 300 100
run 200000
PPPM Kokkos initialization ...
  using 12-bit tables for long-range coulomb
  G vector (1/distance) = 0.34316179
  grid = 45 45 45
  stencil order = 5
  estimated absolute RMS force accuracy = 0.00024931228
  estimated relative force accuracy = 7.5079654e-07
  using double precision cuFFT
  3d grid and FFT values/proc = 140608 91125
Generated 21 of 21 mixed pair_coeff terms from sixthpower/sixthpower mixing rule
Neighbor list info ...
  update: every = 1 steps, delay = 0 steps, check = yes
  max neighbors/atom: 4000, page size: 100000
  master list distance cutoff = 11.5
  ghost atom cutoff = 11.5
  binsize = 11.5, bins = 4 4 4
  1 neighbor lists, perpetual/occasional/extra = 1 0 0
  (1) pair lj/class2/coul/long/kk, perpetual
      attributes: full, newton off, kokkos_device
      pair build: full/bin/kk/device
      stencil: full/bin/3d
      bin: kk/device
Per MPI rank memory allocation (min/avg/max) = 38.42 | 38.42 | 38.42 Mbytes
   Step          Time           Temp          Press           Pxx            Pyy            Pzz             Lx             Ly             Lz           Volume        Density         TotEng    
         0   0              359.6985       2517.1357      1840.9866      670.63591      5039.7847      36.503338      36.503338      36.503338      48640.467      1.2307884      15788.77     
       100   100            306.93909      63.703421     -1125.0719      1051.6637      264.51844      36.503338      36.503338      36.503338      48640.467      1.2307884      15145.206    
       200   200            298.17894      886.04462      2159.013      -113.84361      612.96451      36.503338      36.503338      36.503338      48640.467      1.2307884      15050.615    
       300   300            301.16625      17.797025     -1891.222       560.75082      1383.8623      36.503338      36.503338      36.503338      48640.467      1.2307884      15034.854    
       400   400            300.58782     -1006.9292     -1418.0518     -1425.5019     -177.23376      36.503338      36.503338      36.503338      48640.467      1.2307884      15058.549    
       500   500            306.47598      2666.8526      1764.7699      3664.8269      2570.9611      36.503338      36.503338      36.503338      48640.467      1.2307884      15097.6      
       600   600            302.93489     -205.0124      -2296.345       630.33217      1050.9756      36.503338      36.503338      36.503338      48640.467      1.2307884      15132.654    
       700   700            300.70514     -555.42699     -1403.7812      449.12056     -711.62031      36.503338      36.503338      36.503338      48640.467      1.2307884      15119.804    
       800   800            293.54285      44.616464     -383.4162       346.16685      171.09874      36.503338      36.503338      36.503338      48640.467      1.2307884      14997.399    
       900   900            290.87034     -195.81872     -556.14969      653.01078     -684.31726      36.503338      36.503338      36.503338      48640.467      1.2307884      14993.451    
      1000   1000           298.00178      1202.7521      567.35663      1910.2444      1130.6554      36.503338      36.503338      36.503338      48640.467      1.2307884      15083.757    
      1100   1100           297.51933     -1182.9151     -1242.6911     -1287.3146     -1018.7396      36.503338      36.503338      36.503338      48640.467      1.2307884      15131.595    
      1200   1200           302.67688      516.12705     -1083.5244      756.54831      1875.3572      36.503338      36.503338      36.503338      48640.467      1.2307884      15143.498    
      1300   1300           298.49758      809.49835     -131.28057      1859.9988      699.77686      36.503338      36.503338      36.503338      48640.467      1.2307884      15119.809    
      1400   1400           294.90701     -1287.6228     -2458.4644     -1199.1376     -205.26625      36.503338      36.503338      36.503338      48640.467      1.2307884      15006.422    
      1500   1500           295.88402     -83.117403      687.16984      657.65593     -1594.178       36.503338      36.503338      36.503338      48640.467      1.2307884      14988.561    
      1600   1600           298.94331      1400.834       626.57247      1157.567       2418.3626      36.503338      36.503338      36.503338      48640.467      1.2307884      15060.777    
      1700   1700           299.24106      600.19738      334.91967      995.59316      470.07932      36.503338      36.503338      36.503338      48640.467      1.2307884      15109.511    
      1800   1800           297.74976     -396.94309     -973.46261     -1553.0971      1335.7304      36.503338      36.503338      36.503338      48640.467      1.2307884      15126.154    
      1900   1900           305.84783      588.9996       1010.6979      1803.0986     -1046.7977      36.503338      36.503338      36.503338      48640.467      1.2307884      15128.477    
      2000   2000           300.08111      1048.2388     -345.70507      454.70076      3035.7208      36.503338      36.503338      36.503338      48640.467      1.2307884      15053.028    
      2100   2100           291.26468     -1810.9354     -2651.027      -1777.3065     -1004.4726      36.503338      36.503338      36.503338      48640.467      1.2307884      14967.015    
      2200   2200           295.87365      223.74146     -179.75668      705.79252      145.18855      36.503338      36.503338      36.503338      48640.467      1.2307884      14999.264    
      2300   2300           300.29692      961.16144      1563.2637     -688.72293      2008.9435      36.503338      36.503338      36.503338      48640.467      1.2307884      15094.434    
      2400   2400           299.18814     -994.15965     -269.41595     -1124.2957     -1588.7673      36.503338      36.503338      36.503338      48640.467      1.2307884      15121.748    
      2500   2500           304.11929      1473.4814      932.50761      1156.5419      2331.3947      36.503338      36.503338      36.503338      48640.467      1.2307884      15128.157    
      2600   2600           303.86914      104.63516      179.67544     -278.76308      412.99313      36.503338      36.503338      36.503338      48640.467      1.2307884      15144.033    
      2700   2700           302.87491      1336.8778      2789.9495      1264.7636     -44.079834      36.503338      36.503338      36.503338      48640.467      1.2307884      15164.1      
      2800   2800           299.60787     -1043.8081     -716.48791     -1337.9448     -1076.9916      36.503338      36.503338      36.503338      48640.467      1.2307884      15111.46     
      2900   2900           297.85217      735.97624      265.81491      318.72615      1623.3877      36.503338      36.503338      36.503338      48640.467      1.2307884      15045.527    
      3000   3000           297.08827      477.64358      931.9006       276.87127      224.15888      36.503338      36.503338      36.503338      48640.467      1.2307884      15014.78     
      3100   3100           292.32356      209.74575      324.29693      659.15676     -354.21643      36.503338      36.503338      36.503338      48640.467      1.2307884      15056.807    
      3200   3200           301.61097     -379.20061     -1999.4481     -323.42626      1185.2726      36.503338      36.503338      36.503338      48640.467      1.2307884      15169.992    
      3300   3300           295.29914      465.26293      529.90362      1805.3956     -939.51042      36.503338      36.503338      36.503338      48640.467      1.2307884      15174.697    
      3400   3400           297.8245       1394.6815      2265.3825      1223.5529      695.1092       36.503338      36.503338      36.503338      48640.467      1.2307884      15085.078    
      3500   3500           299.79273     -1848.3943     -3698.2667     -1564.8991     -282.01707      36.503338      36.503338      36.503338      48640.467      1.2307884      15045.575    
      3600   3600           299.62145      307.08259     -1622.955       2254.7212      289.4816       36.503338      36.503338      36.503338      48640.467      1.2307884      15066.535    
      3700   3700           303.85885      649.9782       1326.874       1142.8351     -519.77445      36.503338      36.503338      36.503338      48640.467      1.2307884      15120.218    
      3800   3800           299.14361     -98.165182     -965.9367       106.48889      564.95227      36.503338      36.503338      36.503338      48640.467      1.2307884      15147.527    
      3900   3900           306.06153      192.68313     -156.3244       520.92105      213.45274      36.503338      36.503338      36.503338      48640.467      1.2307884      15126.647    
      4000   4000           295.97096     -771.27214     -1463.2167     -692.35553     -158.2442       36.503338      36.503338      36.503338      48640.467      1.2307884      15112.062    
      4100   4100           302.86917      769.84642      1703.1071      1268.0349     -661.60274      36.503338      36.503338      36.503338      48640.467      1.2307884      15102.176    
      4200   4200           296.16983      1517.0519      2497.7573     -447.63193      2501.0305      36.503338      36.503338      36.503338      48640.467      1.2307884      15075.673    
      4300   4300           295.93361     -580.62662     -1297.84        1046.2719     -1490.3117      36.503338      36.503338      36.503338      48640.467      1.2307884      15031.661    
      4400   4400           299.58237      1332.5901      1983.1889      559.13125      1455.4502      36.503338      36.503338      36.503338      48640.467      1.2307884      15009.315    
      4500   4500           299.69964     -1276.5276     -68.851144     -2488.063      -1272.6688      36.503338      36.503338      36.503338      48640.467      1.2307884      15104.322    
      4600   4600           304.67859      539.27619     -7.7217446     -34.419009      1659.9693      36.503338      36.503338      36.503338      48640.467      1.2307884      15166.931    
      4700   4700           302.09205     -868.26375     -1068.4499     -1066.1055     -470.23587      36.503338      36.503338      36.503338      48640.467      1.2307884      15137.373    
      4800   4800           297.33477      627.05842     -761.84517      201.41062      2441.6098      36.503338      36.503338      36.503338      48640.467      1.2307884      15085.337    
      4900   4900           296.9492       1018.311       1851.9389      2378.4421     -1175.4479      36.503338      36.503338      36.503338      48640.467      1.2307884      15007.05     
      5000   5000           293.55069     -671.5846      -2076.0759     -143.75193      205.07398      36.503338      36.503338      36.503338      48640.467      1.2307884      14923.345    
      5100   5100           300.35313     -1151.8831     -2322.8607     -384.75552     -748.03294      36.503338      36.503338      36.503338      48640.467      1.2307884      15006.33     
      5200   5200           302.77939      562.36691      1378.7227     -62.255066      370.63307      36.503338      36.503338      36.503338      48640.467      1.2307884      15094.952    
      5300   5300           302.22145      931.16238     -208.98797      249.86875      2752.6064      36.503338      36.503338      36.503338      48640.467      1.2307884      15128.506    
      5400   5400           300.444        61.077473     -199.25663      314.36772      68.121322      36.503338      36.503338      36.503338      48640.467      1.2307884      15158.878    
      5500   5500           296.02246     -958.22454     -816.50655     -1074.3955     -983.77157      36.503338      36.503338      36.503338      48640.467      1.2307884      15158.281    
      5600   5600           294.52601      723.13403      693.3151       766.56984      709.51717      36.503338      36.503338      36.503338      48640.467      1.2307884      15064.179    
      5700   5700           297.77311     -189.4955       408.19638     -429.34859     -547.33429      36.503338      36.503338      36.503338      48640.467      1.2307884      14998.497    
      5800   5800           301.53084      303.33876      1411.4187     -1896.1866      1394.7841      36.503338      36.503338      36.503338      48640.467      1.2307884      15028.354    
      5900   5900           299.13022      199.52842     -2363.3688      1662.0994      1299.8546      36.503338      36.503338      36.503338      48640.467      1.2307884      15097.461    
      6000   6000           296.77454      927.36891      860.36269      648.56975      1273.1743      36.503338      36.503338      36.503338      48640.467      1.2307884      15115.5      
      6100   6100           296.98609      337.71246     -70.245188      1020.6591      62.723512      36.503338      36.503338      36.503338      48640.467      1.2307884      15113.784    
      6200   6200           302.36439     -55.36227      -1464.8882      1679.2888     -380.48744      36.503338      36.503338      36.503338      48640.467      1.2307884      15095.715    
      6300   6300           299.7695       1120.7084      2746.4166      302.57865      313.13004      36.503338      36.503338      36.503338      48640.467      1.2307884      15047.683    
      6400   6400           296.73113     -755.21302     -2089.976      -1258.6447      1082.9817      36.503338      36.503338      36.503338      48640.467      1.2307884      15007.744    
      6500   6500           302.00133     -378.74018     -371.29271     -382.44844     -382.47938      36.503338      36.503338      36.503338      48640.467      1.2307884      15071.657    
      6600   6600           297.4561      -132.46429     -1425.6344     -937.68279      1965.9243      36.503338      36.503338      36.503338      48640.467      1.2307884      15155.811    
      6700   6700           310.12272      1689.6285      1947.4674      1977.7982      1143.6199      36.503338      36.503338      36.503338      48640.467      1.2307884      15169.51     
      6800   6800           298.60484     -261.58936      475.84367     -854.77777     -405.83398      36.503338      36.503338      36.503338      48640.467      1.2307884      15101.39     
      6900   6900           300.01822      134.56123     -232.37923     -230.88395      866.94687      36.503338      36.503338      36.503338      48640.467      1.2307884      15070.225    
      7000   7000           305.83585      1184.3799      1353.5576      763.97586      1435.6063      36.503338      36.503338      36.503338      48640.467      1.2307884      15093.525    
      7100   7100           305.82542      2249.6629      1221.2436      2777.7867      2749.9585      36.503338      36.503338      36.503338      48640.467      1.2307884      15112.043    
      7200   7200           298.45521      712.1573      -44.628806      518.13162      1662.9691      36.503338      36.503338      36.503338      48640.467      1.2307884      15115.104    
      7300   7300           299.13706     -553.96663     -659.93047     -1236.2488      234.27937      36.503338      36.503338      36.503338      48640.467      1.2307884      15054.008    
      7400   7400           294.50379      493.21445     -301.12886      961.58537      819.18683      36.503338      36.503338      36.503338      48640.467      1.2307884      14991.291    
      7500   7500           300.49499      144.08639      329.78953     -774.41758      876.88722      36.503338      36.503338      36.503338      48640.467      1.2307884      15047.21     
      7600   7600           297.39058      671.25641     -1066.2753      886.19835      2193.8462      36.503338      36.503338      36.503338      48640.467      1.2307884      15143.381    
      7700   7700           304.6176       1281.5742      581.40139      1958.226       1305.0953      36.503338      36.503338      36.503338      48640.467      1.2307884      15158.159    
      7800   7800           294.73835      233.91691      306.27447      791.103       -395.62674      36.503338      36.503338      36.503338      48640.467      1.2307884      15106.388    
      7900   7900           299.34708     -907.50538     -942.33961     -1106.9453     -673.23119      36.503338      36.503338      36.503338      48640.467      1.2307884      15055.362    
      8000   8000           298.78627      318.1641      -1600.9951      312.57091      2242.9165      36.503338      36.503338      36.503338      48640.467      1.2307884      15014.068    
      8100   8100           292.0955      -153.54974     -1234.3911      775.90696     -2.1650594      36.503338      36.503338      36.503338      48640.467      1.2307884      14991.156    
      8200   8200           294.63587      174.52592     -869.50138     -168.75919      1561.8383      36.503338      36.503338      36.503338      48640.467      1.2307884      15068.852    
      8300   8300           302.36162      161.49519      966.01667     -278.73165     -202.79945      36.503338      36.503338      36.503338      48640.467      1.2307884      15141.903    
      8400   8400           301.87485      1388.9123      2398.3653      957.12215      811.24943      36.503338      36.503338      36.503338      48640.467      1.2307884      15153.687    
      8500   8500           299.55832     -215.82491     -581.37574      168.82407     -234.92307      36.503338      36.503338      36.503338      48640.467      1.2307884      15102.281    
      8600   8600           289.45962      369.29514      2124.1963     -1567.1965      550.88563      36.503338      36.503338      36.503338      48640.467      1.2307884      15008.589    
      8700   8700           297.19034     -16.519183     -472.3265       1052.3885     -629.61956      36.503338      36.503338      36.503338      48640.467      1.2307884      15026.85     
      8800   8800           295.60959      459.04328      533.01033      1333.4068     -489.28731      36.503338      36.503338      36.503338      48640.467      1.2307884      15081.315    
      8900   8900           298.72488     -1172.886      -595.07264     -2462.7239     -460.86131      36.503338      36.503338      36.503338      48640.467      1.2307884      15108.069    
      9000   9000           301.15562     -279.54588     -193.13831      936.97913     -1582.4785      36.503338      36.503338      36.503338      48640.467      1.2307884      15129.68     
      9100   9100           300.60405      606.94544     -384.80077      1996.8097      208.82741      36.503338      36.503338      36.503338      48640.467      1.2307884      15130.275    
      9200   9200           303.64697     -448.85379     -501.8859      -1521.939       677.26356      36.503338      36.503338      36.503338      48640.467      1.2307884      15069.259    
      9300   9300           298.40524      1000.6453      899.10312      2354.0993     -251.26656      36.503338      36.503338      36.503338      48640.467      1.2307884      14976.953    
      9400   9400           294.0853       809.81134     -321.07041      1199.5657      1550.9387      36.503338      36.503338      36.503338      48640.467      1.2307884      14997.666    
      9500   9500           301.35011      682.73594      1503.6839      1458.1217     -913.59779      36.503338      36.503338      36.503338      48640.467      1.2307884      15093.302    
      9600   9600           300.09325     -74.622585     -530.15168      494.85118     -188.56726      36.503338      36.503338      36.503338      48640.467      1.2307884      15134.558    
      9700   9700           297.83086     -30.542206      1010.7733      223.2652      -1325.6651      36.503338      36.503338      36.503338      48640.467      1.2307884      15118.675    
      9800   9800           305.4034       645.12507      871.30407     -398.1942       1462.2653      36.503338      36.503338      36.503338      48640.467      1.2307884      15125.968    
      9900   9900           298.44962      865.59023      1286.3228      530.25573      780.19218      36.503338      36.503338      36.503338      48640.467      1.2307884      15104.212    
     10000   10000          297.76622     -536.532       -629.80355     -286.77864     -693.0138       36.503338      36.503338      36.503338      48640.467      1.2307884      15034.013    
     10100   10100          300.52771      819.9292       771.03454      1973.6297     -284.87666      36.503338      36.503338      36.503338      48640.467      1.2307884      15012.071    
     10200   10200          298.63616      487.24428     -422.10588      1348.8567      534.98198      36.503338      36.503338      36.503338      48640.467      1.2307884      15077.221    
     10300   10300          303.68823      105.85116      100.86176      321.38275     -104.69102      36.503338      36.503338      36.503338      48640.467      1.2307884      15168.83     
     10400   10400          298.98199     -766.61202     -1571.2471     -138.19419     -590.39481      36.503338      36.503338      36.503338      48640.467      1.2307884      15164.725    
     10500   10500          300.08169      1106.8013      2070.1555      974.84093      275.40729      36.503338      36.503338      36.503338      48640.467      1.2307884      15117.254    
     10600   10600          305.14514     -374.36461     -235.43845     -959.27783      71.622445      36.503338      36.503338      36.503338      48640.467      1.2307884      15055.319    
     10700   10700          291.9861      -323.72135     -1159.5611      272.34343     -83.946385      36.503338      36.503338      36.503338      48640.467      1.2307884      14940.328    
     10800   10800          291.66715      1558.564       2043.1147      2067.5496      565.02768      36.503338      36.503338      36.503338      48640.467      1.2307884      14960.362    
     10900   10900          295.88088      979.65983      1285.1045      1173.7207      480.1543       36.503338      36.503338      36.503338      48640.467      1.2307884      15055.904    
     11000   11000          303.11698      564.02416      981.9716       1469.6008     -759.49997      36.503338      36.503338      36.503338      48640.467      1.2307884      15120.448    
     11100   11100          298.49035     -394.68604      74.989816     -183.70077     -1075.3472      36.503338      36.503338      36.503338      48640.467      1.2307884      15148.647    
     11200   11200          300.89727      806.23113      1432.6371      953.33389      32.722395      36.503338      36.503338      36.503338      48640.467      1.2307884      15109.476    
     11300   11300          299.26725     -1103.5468     -2905.3516     -487.97272      82.683839      36.503338      36.503338      36.503338      48640.467      1.2307884      15031.134    
     11400   11400          294.4783       1355.9699     -154.23326      2565.0479      1657.095       36.503338      36.503338      36.503338      48640.467      1.2307884      14999.576    
     11500   11500          298.29326      1039.2336      1648.8898      1142.8833      325.92758      36.503338      36.503338      36.503338      48640.467      1.2307884      15080.554    
     11600   11600          302.64627      583.10955     -6.3503476      136.97888      1618.7001      36.503338      36.503338      36.503338      48640.467      1.2307884      15172.953    
     11700   11700          297.73294      541.05431     -1036.5353      1237.2794      1422.4189      36.503338      36.503338      36.503338      48640.467      1.2307884      15155.323    
     11800   11800          297.84206      368.28275      1483.8211     -566.48591      187.51303      36.503338      36.503338      36.503338      48640.467      1.2307884      15078.549    
     11900   11900          297.99354      294.83999      503.15162     -792.72911      1174.0975      36.503338      36.503338      36.503338      48640.467      1.2307884      15019.813    
     12000   12000          296.83287      627.47104      106.27846      2302.7824     -526.64776      36.503338      36.503338      36.503338      48640.467      1.2307884      15040.152    
     12100   12100          299.45527      1343.363       1560.543       1402.2091      1067.3368      36.503338      36.503338      36.503338      48640.467      1.2307884      15092.782    
     12200   12200          303.74255      339.60801      1375.4178     -561.01869      204.42495      36.503338      36.503338      36.503338      48640.467      1.2307884      15109.736    
     12300   12300          303.86592      1546.5316      1466.84        1954.0836      1218.6711      36.503338      36.503338      36.503338      48640.467      1.2307884      15112.377    
     12400   12400          300.24127     -188.7272      -1361.4883      868.76355     -73.456858      36.503338      36.503338      36.503338      48640.467      1.2307884      15102.518    
     12500   12500          291.42044     -50.61288       1091.9504     -672.43101     -571.35807      36.503338      36.503338      36.503338      48640.467      1.2307884      15067.761    
     12600   12600          299.52739      600.38429     -1285.4438      785.02309      2301.5736      36.503338      36.503338      36.503338      48640.467      1.2307884      15094.528    
     12700   12700          303.64794     -280.33247      516.74325      940.34657     -2298.0872      36.503338      36.503338      36.503338      48640.467      1.2307884      15189.108    
     12800   12800          305.03091      860.65231      1454.9759     -1081.8039      2208.785       36.503338      36.503338      36.503338      48640.467      1.2307884      15206.309    
     12900   12900          297.7225       1231.5819      1609.2607      730.06699      1355.418       36.503338      36.503338      36.503338      48640.467      1.2307884      15126.171    
     13000   13000          305.17001     -6.8295803      356.37627      203.95021     -580.81522      36.503338      36.503338      36.503338      48640.467      1.2307884      15070.484    
     13100   13100          296.92057     -127.4273      -750.41622     -224.00628      592.14059      36.503338      36.503338      36.503338      48640.467      1.2307884      15079.515    
     13200   13200          297.80831      21.186895     -590.8371      -490.28649      1144.6843      36.503338      36.503338      36.503338      48640.467      1.2307884      15119.999    
     13300   13300          302.33648     -499.87683      108.32111     -746.41574     -861.53585      36.503338      36.503338      36.503338      48640.467      1.2307884      15157.869    
     13400   13400          302.29255      531.26944      709.02786      1002.3111     -117.53061      36.503338      36.503338      36.503338      48640.467      1.2307884      15164.844    
     13500   13500          299.42905     -111.21151     -1010.714      -216.8009       893.88033      36.503338      36.503338      36.503338      48640.467      1.2307884      15079.471    
     13600   13600          292.25667      1284.0241      2384.1998      2459.0801     -991.2076       36.503338      36.503338      36.503338      48640.467      1.2307884      15014.419    
     13700   13700          296.66719      316.55858      39.494804      1051.563      -141.38206      36.503338      36.503338      36.503338      48640.467      1.2307884      15055.876    
     13800   13800          299.43891      360.98152      92.81758       1141.6932     -151.56625      36.503338      36.503338      36.503338      48640.467      1.2307884      15141.196    
     13900   13900          306.15812      1643.8388      1006.4723      3531.2925      393.75147      36.503338      36.503338      36.503338      48640.467      1.2307884      15142.975    
     14000   14000          299.1609       589.02733      455.3948       1952.5609     -640.87369      36.503338      36.503338      36.503338      48640.467      1.2307884      15102.691    
     14100   14100          300.4918       497.61984     -643.61896      821.83738      1314.6411      36.503338      36.503338      36.503338      48640.467      1.2307884      15093.196    
     14200   14200          302.89462     -41.028968      1008.0486      608.39076     -1739.5262      36.503338      36.503338      36.503338      48640.467      1.2307884      15105.069    
     14300   14300          305.20744      652.87873     -1578.8998      1992.8623      1544.6737      36.503338      36.503338      36.503338      48640.467      1.2307884      15186.444    
     14400   14400          299.40694      726.62606     -284.81855      2024.5367      440.16005      36.503338      36.503338      36.503338      48640.467      1.2307884      15236.623    
     14500   14500          300.91695      1126.2474      1060.3745      728.16573      1590.2019      36.503338      36.503338      36.503338      48640.467      1.2307884      15160.834    
     14600   14600          299.65991      84.156207      365.32718      400.20354     -513.0621       36.503338      36.503338      36.503338      48640.467      1.2307884      15085.664    
     14700   14700          292.02891     -248.04051     -549.52705     -116.54471     -78.049777      36.503338      36.503338      36.503338      48640.467      1.2307884      15075.794    
     14800   14800          302.17679     -53.04385       1158.3034     -1300.6655     -16.769423      36.503338      36.503338      36.503338      48640.467      1.2307884      15110.753    
     14900   14900          303.64522     -831.42941     -841.9422      -587.58704     -1064.759       36.503338      36.503338      36.503338      48640.467      1.2307884      15164.318    
     15000   15000          310.34572      132.60057     -842.16922      526.61514      713.3558       36.503338      36.503338      36.503338      48640.467      1.2307884      15261.27     
     15100   15100          305.04979      361.71209     -1138.2123      2302.5594     -79.210844      36.503338      36.503338      36.503338      48640.467      1.2307884      15242.486    
     15200   15200          300.7862       1395.1391      784.10574      780.41784      2620.8936      36.503338      36.503338      36.503338      48640.467      1.2307884      15133.869    
     15300   15300          296.80798     -146.02777     -129.69996      460.14746     -768.5308       36.503338      36.503338      36.503338      48640.467      1.2307884      15094.782    
     15400   15400          301.12783      376.45363      725.0728       97.363137      306.92495      36.503338      36.503338      36.503338      48640.467      1.2307884      15077.74     
     15500   15500          296.67164      1567.009       499.83022      2366.8324      1834.3645      36.503338      36.503338      36.503338      48640.467      1.2307884      15072.81     
     15600   15600          296.34057     -1498.7115     -146.59395     -1946.7953     -2402.7451      36.503338      36.503338      36.503338      48640.467      1.2307884      15101.771    
     15700   15700          304.98371      1742.5524      2456.8963      1828.0444      942.71657      36.503338      36.503338      36.503338      48640.467      1.2307884      15160.504    
     15800   15800          300.80493      1648.3586      2129.7492      1836.0226      979.30407      36.503338      36.503338      36.503338      48640.467      1.2307884      15140.491    
     15900   15900          296.31294      830.39748      1279.9474      325.80066      885.44437      36.503338      36.503338      36.503338      48640.467      1.2307884      15062.817    
     16000   16000          295.37522     -1721.7015     -2324.6341     -1912.7892     -927.68137      36.503338      36.503338      36.503338      48640.467      1.2307884      14995.38     
     16100   16100          295.28378      974.25521     -1087.3698      1051.7557      2958.3797      36.503338      36.503338      36.503338      48640.467      1.2307884      14969.739    
     16200   16200          297.43893      740.40472     -133.67187      3120.2788     -765.39278      36.503338      36.503338      36.503338      48640.467      1.2307884      15090.106    
     16300   16300          304.07803     -302.21395      1546.9312     -1385.551      -1068.0221      36.503338      36.503338      36.503338      48640.467      1.2307884      15155.447    
     16400   16400          301.61243      208.06952     -1357.8519      1024.4081      957.65232      36.503338      36.503338      36.503338      48640.467      1.2307884      15140.03     
     16500   16500          307.54432      495.06948      852.65185      252.99418      379.56242      36.503338      36.503338      36.503338      48640.467      1.2307884      15079.609    
     16600   16600          292.81013      895.9307       2247.4147      848.81542     -408.43803      36.503338      36.503338      36.503338      48640.467      1.2307884      15012.208    
     16700   16700          299.2456       51.011688      285.77039     -959.21011      826.47478      36.503338      36.503338      36.503338      48640.467      1.2307884      15052.572    
     16800   16800          305.31166     -136.08324     -830.40722      641.66814     -219.51064      36.503338      36.503338      36.503338      48640.467      1.2307884      15176.352    
     16900   16900          301.69396      715.70645      1511.4084      568.07746      67.633517      36.503338      36.503338      36.503338      48640.467      1.2307884      15148.192    
     17000   17000          299.85499      423.76856      1347.9875     -1013.8717      937.1899       36.503338      36.503338      36.503338      48640.467      1.2307884      15075.385    
     17100   17100          298.45093      383.92866      767.42256      120.10429      264.25912      36.503338      36.503338      36.503338      48640.467      1.2307884      15047.223    
     17200   17200          296.0418       1119.7525      612.1858       1880.4023      866.66928      36.503338      36.503338      36.503338      48640.467      1.2307884      15039.658    
     17300   17300          295.07363      336.07605      916.00413      899.57934     -807.35534      36.503338      36.503338      36.503338      48640.467      1.2307884      15090.648    
     17400   17400          302.278        469.30303      1966.4293     -523.64416     -34.876065      36.503338      36.503338      36.503338      48640.467      1.2307884      15178.508    
     17500   17500          308.76268      1860.6382     -101.06455      2802.6913      2880.2878      36.503338      36.503338      36.503338      48640.467      1.2307884      15185.734    
     17600   17600          297.51537      581.98414     -298.39061      1964.0847      80.258379      36.503338      36.503338      36.503338      48640.467      1.2307884      15092.263    
     17700   17700          294.52558      244.7159       164.44523     -131.53054      701.23302      36.503338      36.503338      36.503338      48640.467      1.2307884      15032.587    
     17800   17800          296.45029      707.09276      70.377228      2458.9157     -408.01463      36.503338      36.503338      36.503338      48640.467      1.2307884      15057.616    
     17900   17900          299.08948      411.29893     -1419.1405      1050.8828      1602.1545      36.503338      36.503338      36.503338      48640.467      1.2307884      15099.59     
     18000   18000          303.98361      462.05277      555.2217       451.75299      379.18363      36.503338      36.503338      36.503338      48640.467      1.2307884      15137.861    
     18100   18100          301.83594     -179.09911      728.4573       900.24696     -2166.0016      36.503338      36.503338      36.503338      48640.467      1.2307884      15191.061    
     18200   18200          304.1329       41.425223     -347.53768      360.11432      111.69903      36.503338      36.503338      36.503338      48640.467      1.2307884      15264.221    
     18300   18300          300.18882      1502.8031      2419.4522      1160.8077      928.14957      36.503338      36.503338      36.503338      48640.467      1.2307884      15201.732    
     18400   18400          296.28659      178.06285      128.9412       531.4062      -126.15886      36.503338      36.503338      36.503338      48640.467      1.2307884      15093.751    
     18500   18500          297.80702     -900.97345     -2083.7897     -183.94826     -435.18237      36.503338      36.503338      36.503338      48640.467      1.2307884      15056.062    
     18600   18600          300.30701      2153.5043      2916.9779      1302.5731      2240.9618      36.503338      36.503338      36.503338      48640.467      1.2307884      15070.289    
     18700   18700          298.55982      609.97318      795.21093      817.40694      217.30168      36.503338      36.503338      36.503338      48640.467      1.2307884      15135.08     
     18800   18800          302.29913     -1222.7441     -2184.435      -1423.8889     -59.908355      36.503338      36.503338      36.503338      48640.467      1.2307884      15209.911    
     18900   18900          295.75377      674.82144      970.55488     -115.34029      1169.2497      36.503338      36.503338      36.503338      48640.467      1.2307884      15171.179    
     19000   19000          296.07181      1296.5324      369.0688       1778.2223      1742.306       36.503338      36.503338      36.503338      48640.467      1.2307884      15045.752    
     19100   19100          297.75716     -222.46252     -899.79897      269.36072     -36.949304      36.503338      36.503338      36.503338      48640.467      1.2307884      15049.808    
     19200   19200          304.89866     -60.748448     -523.43707      851.85788     -510.66616      36.503338      36.503338      36.503338      48640.467      1.2307884      15110.067    
     19300   19300          306.26647     -323.0744      -1622.5708      924.56129     -271.21363      36.503338      36.503338      36.503338      48640.467      1.2307884      15160.821    
     19400   19400          298.78044      487.46028      724.52074      826.301       -88.440893      36.503338      36.503338      36.503338      48640.467      1.2307884      15161.409    
     19500   19500          298.29618      553.56713      296.69126      1182.6694      181.3407       36.503338      36.503338      36.503338      48640.467      1.2307884      15036.049    
     19600   19600          299.87925      241.33681      567.50214     -12.252904      168.7612       36.503338      36.503338      36.503338      48640.467      1.2307884      15020.9      
     19700   19700          300.98596      839.41669      823.05319      269.74175      1425.4551      36.503338      36.503338      36.503338      48640.467      1.2307884      15079.694    
     19800   19800          303.00421     -406.33142      794.75264      400.85603     -2414.6029      36.503338      36.503338      36.503338      48640.467      1.2307884      15159        
     19900   19900          306.81119      385.60074      722.57332     -1064.4827      1498.7116      36.503338      36.503338      36.503338      48640.467      1.2307884      15159.707    
     20000   20000          296.28815      277.83426     -1036.0892      1132.5422      737.04985      36.503338      36.503338      36.503338      48640.467      1.2307884      15112.339    
     20100   20100          301.92182     -334.13673     -694.06783     -555.56643      247.22408      36.503338      36.503338      36.503338      48640.467      1.2307884      15105.505    
     20200   20200          299.75835      1103.6309     -285.63324      2058.5293      1537.9967      36.503338      36.503338      36.503338      48640.467      1.2307884      15086.005    
     20300   20300          296.76539     -76.176277      314.24173     -507.67588     -35.094677      36.503338      36.503338      36.503338      48640.467      1.2307884      15077.638    
     20400   20400          299.31202      528.07811      1824.2449     -473.82137      233.81081      36.503338      36.503338      36.503338      48640.467      1.2307884      15097.184    
     20500   20500          301.02896      1970.6415      1132.9209      2954.7887      1824.2149      36.503338      36.503338      36.503338      48640.467      1.2307884      15150.914    
     20600   20600          304.57638     -740.92576     -1365.0517      5.2534282     -862.97904      36.503338      36.503338      36.503338      48640.467      1.2307884      15192.087    
     20700   20700          297.83588      1240.9132      2062.2972      1542.1676      118.27477      36.503338      36.503338      36.503338      48640.467      1.2307884      15168.76     
     20800   20800          298.73313      37.291581     -212.49289      648.30838     -323.94075      36.503338      36.503338      36.503338      48640.467      1.2307884      15059.007    
     20900   20900          301.06446      426.64518     -814.76295      30.782008      2063.9165      36.503338      36.503338      36.503338      48640.467      1.2307884      15033.05     
     21000   21000          295.95983     -371.64476     -831.32514      38.756621     -322.36578      36.503338      36.503338      36.503338      48640.467      1.2307884      15068.45     
     21100   21100          300.33923      211.47566      1012.1184      932.52619     -1310.2176      36.503338      36.503338      36.503338      48640.467      1.2307884      15141.771    
     21200   21200          298.64361      1656.2113      2496.7756      626.30167      1845.5568      36.503338      36.503338      36.503338      48640.467      1.2307884      15132.56     
     21300   21300          300.63396     -459.55108     -1770.2251      665.67101     -274.09918      36.503338      36.503338      36.503338      48640.467      1.2307884      15108.255    
     21400   21400          303.53064      346.46842      497.38533     -743.62373      1285.6437      36.503338      36.503338      36.503338      48640.467      1.2307884      15068.281    
     21500   21500          293.75668      232.98669     -71.229444      266.10859      504.08093      36.503338      36.503338      36.503338      48640.467      1.2307884      15007.578    
     21600   21600          301.50809     -805.78532     -1529.5604     -939.5863       51.790706      36.503338      36.503338      36.503338      48640.467      1.2307884      14984.538    
     21700   21700          299.81443      37.759713     -138.06344      499.89129     -248.54871      36.503338      36.503338      36.503338      48640.467      1.2307884      15083.803    
     21800   21800          300.41524     -475.81311     -1340.4086      404.10987     -491.14062      36.503338      36.503338      36.503338      48640.467      1.2307884      15153.05     
     21900   21900          303.11898      1760.0415      2559.479       1848.1387      872.50684      36.503338      36.503338      36.503338      48640.467      1.2307884      15164.92     
     22000   22000          297.95681     -224.32377     -14.227417     -1061.6526      402.90871      36.503338      36.503338      36.503338      48640.467      1.2307884      15107.63     
     22100   22100          298.75745      1109.6696      1996.9185      152.04149      1180.0489      36.503338      36.503338      36.503338      48640.467      1.2307884      15006.241    
     22200   22200          297.17737     -488.79327      461.60898      944.19161     -2872.1804      36.503338      36.503338      36.503338      48640.467      1.2307884      15007.952    
     22300   22300          296.74911      1215.4026      742.36452      1815.6846      1088.1586      36.503338      36.503338      36.503338      48640.467      1.2307884      15070.917    
     22400   22400          301.24759     -2005.0493     -1271.8431     -2405.1311     -2338.1738      36.503338      36.503338      36.503338      48640.467      1.2307884      15118.524    
     22500   22500          299.39681      1389.0338      2041.6071      912.58176      1212.9125      36.503338      36.503338      36.503338      48640.467      1.2307884      15120.189    
     22600   22600          296.30686      1097.6398      2409.1189      376.6767       507.12391      36.503338      36.503338      36.503338      48640.467      1.2307884      15099.498    
     22700   22700          302.38796      216.13145      393.87938     -69.930642      324.44562      36.503338      36.503338      36.503338      48640.467      1.2307884      15087.031    
     22800   22800          295.60247     -747.40064     -916.33165     -372.34769     -953.52258      36.503338      36.503338      36.503338      48640.467      1.2307884      15029.398    
     22900   22900          298.73234      854.58086      825.27374      1973.1668     -234.69796      36.503338      36.503338      36.503338      48640.467      1.2307884      15000.716    
     23000   23000          296.56813     -1377.9534     -146.46836     -2519.5436     -1467.8481      36.503338      36.503338      36.503338      48640.467      1.2307884      15050.632    
     23100   23100          297.22         698.31568     -1055.2539      2062.4657      1087.7352      36.503338      36.503338      36.503338      48640.467      1.2307884      15152.04     
     23200   23200          306.55172      1096.3768      1882.9252      985.43295      420.77211      36.503338      36.503338      36.503338      48640.467      1.2307884      15178.702    
     23300   23300          299.94796      218.95538      75.482839      902.50903     -321.12572      36.503338      36.503338      36.503338      48640.467      1.2307884      15136.82     
     23400   23400          297.44795      362.89534     -614.54438      1068.5362      634.69418      36.503338      36.503338      36.503338      48640.467      1.2307884      15064.016    
     23500   23500          293.98297     -606.61617     -1331.0166      279.00514     -767.83707      36.503338      36.503338      36.503338      48640.467      1.2307884      15016.48     
     23600   23600          299.09318     -943.48655     -318.75696     -1785.6317     -726.07095      36.503338      36.503338      36.503338      48640.467      1.2307884      15034.488    
     23700   23700          301.10183      751.53355      375.17437      1746.3308      133.09547      36.503338      36.503338      36.503338      48640.467      1.2307884      15057.017    
     23800   23800          300.11312      466.61686      1187.2681     -1176.4631      1389.0456      36.503338      36.503338      36.503338      48640.467      1.2307884      15117.832    
     23900   23900          305.40773     -699.75958     -727.99819      104.41273     -1475.6933      36.503338      36.503338      36.503338      48640.467      1.2307884      15172.645    
     24000   24000          304.34345      939.60827     -299.71478      1552.225       1566.3146      36.503338      36.503338      36.503338      48640.467      1.2307884      15183.897    
     24100   24100          296.45805     -1291.0239      343.65395     -3031.309      -1185.4168      36.503338      36.503338      36.503338      48640.467      1.2307884      15067.605    
     24200   24200          286.94165     -416.60807     -43.066746      361.23152     -1567.989       36.503338      36.503338      36.503338      48640.467      1.2307884      15022.15     
     24300   24300          297.7731       260.59302      269.03454     -267.64008      780.38458      36.503338      36.503338      36.503338      48640.467      1.2307884      15091.024    
     24400   24400          302.7481       557.59791      829.81872     -256.52376      1099.4988      36.503338      36.503338      36.503338      48640.467      1.2307884      15148.235    
     24500   24500          300.49071     -281.94569     -876.52718      1429.3336     -1398.6435      36.503338      36.503338      36.503338      48640.467      1.2307884      15152.829    
     24600   24600          301.45485      1234.5285      2879.2949     -213.65674      1037.9473      36.503338      36.503338      36.503338      48640.467      1.2307884      15131.584    
     24700   24700          295.29176      999.93381      1320.2712      320.07503      1359.4552      36.503338      36.503338      36.503338      48640.467      1.2307884      15102.824    
     24800   24800          295.6954       523.70385      656.76896      492.99354      421.34905      36.503338      36.503338      36.503338      48640.467      1.2307884      15059.437    
     24900   24900          289.41079      43.348459      987.59632      46.077092     -903.62804      36.503338      36.503338      36.503338      48640.467      1.2307884      14900.179    
     25000   25000          292.28542      504.43479     -86.308896      625.41969      974.19356      36.503338      36.503338      36.503338      48640.467      1.2307884      14936.795    
     25100   25100          293.03584      543.79134      1030.5095     -900.68609      1501.5506      36.503338      36.503338      36.503338      48640.467      1.2307884      15046.019    
     25200   25200          300.4945       1289.7826      951.01524      1926.695       991.6375       36.503338      36.503338      36.503338      48640.467      1.2307884      15114.775    
     25300   25300          300.13566     -745.59787     -1300.7009      153.2837      -1089.3765      36.503338      36.503338      36.503338      48640.467      1.2307884      15153.919    
     25400   25400          298.49344      1471.5203      2002.5469      526.94138      1885.0727      36.503338      36.503338      36.503338      48640.467      1.2307884      15168.03     
     25500   25500          300.66071      643.67449      1488.863       1123.5997     -681.43923      36.503338      36.503338      36.503338      48640.467      1.2307884      15145.432    
     25600   25600          298.59475      898.23001     -180.31046      1948.1326      926.86792      36.503338      36.503338      36.503338      48640.467      1.2307884      15055.432    
     25700   25700          291.56594     -586.83122     -3312.6947     -790.83923      2343.0402      36.503338      36.503338      36.503338      48640.467      1.2307884      15025.905    
     25800   25800          298.74296      1961.2685      2130.7187      3242.6601      510.42673      36.503338      36.503338      36.503338      48640.467      1.2307884      15090.645    
     25900   25900          303.50157      1317.7296      46.235683      1292.9802      2613.9727      36.503338      36.503338      36.503338      48640.467      1.2307884      15187.111    
     26000   26000          304.58193     -942.06084     -2187.2062     -1284.8373      645.8609       36.503338      36.503338      36.503338      48640.467      1.2307884      15201.528    
     26100   26100          298.7534       1124.9081      12.60626       1934.4135      1427.7044      36.503338      36.503338      36.503338      48640.467      1.2307884      15164.563    
     26200   26200          299.56415      224.98998      38.64361       217.65025      418.67606      36.503338      36.503338      36.503338      48640.467      1.2307884      15115.171    
     26300   26300          297.00899     -1003.4084     -1129.7558     -2107.0956      226.62616      36.503338      36.503338      36.503338      48640.467      1.2307884      15089.48     
     26400   26400          294.98151      501.87879     -575.89398      1751.8261      329.7043       36.503338      36.503338      36.503338      48640.467      1.2307884      15075.58     
     26500   26500          297.72119      663.71699     -1249.5426      2300.2669      940.42671      36.503338      36.503338      36.503338      48640.467      1.2307884      15086.65     
     26600   26600          297.99658      16.03319       311.51801     -687.25051      423.83207      36.503338      36.503338      36.503338      48640.467      1.2307884      15122.187    
     26700   26700          303.20855     -273.90327     -2326.6982      741.41408      763.57426      36.503338      36.503338      36.503338      48640.467      1.2307884      15186.447    
     26800   26800          301.07286      775.52435      88.78313       601.12317      1636.6668      36.503338      36.503338      36.503338      48640.467      1.2307884      15188.748    
     26900   26900          300.95482     -310.99225     -1106.1418     -534.49894      707.66397      36.503338      36.503338      36.503338      48640.467      1.2307884      15086.457    
     27000   27000          296.77162     -203.09858      18.552092      4.5219413     -632.36977      36.503338      36.503338      36.503338      48640.467      1.2307884      15042.851    
     27100   27100          297.41193      1116.6767      1004.0569      1435.9504      910.02295      36.503338      36.503338      36.503338      48640.467      1.2307884      15066.604    
     27200   27200          300.93161     -633.66409      599.87616     -1435.4048     -1065.4636      36.503338      36.503338      36.503338      48640.467      1.2307884      15120.863    
     27300   27300          305.32903     -252.13399     -44.256983     -1173.8586      461.71362      36.503338      36.503338      36.503338      48640.467      1.2307884      15173.613    
     27400   27400          308.47333      2127.7028      1865.5558      1497.4989      3020.0537      36.503338      36.503338      36.503338      48640.467      1.2307884      15274.845    
     27500   27500          305.08833      1550.7334      703.77093      1854.5531      2093.8763      36.503338      36.503338      36.503338      48640.467      1.2307884      15325.562    
     27600   27600          301.03544     -544.37309     -1049.6863     -51.433857     -531.99915      36.503338      36.503338      36.503338      48640.467      1.2307884      15196.787    
     27700   27700          303.4386       531.78299      2243.4464     -265.23264     -382.86482      36.503338      36.503338      36.503338      48640.467      1.2307884      15116.559    
     27800   27800          295.92661     -804.48721     -23.585781     -108.22973     -2281.6461      36.503338      36.503338      36.503338      48640.467      1.2307884      15057.56     
     27900   27900          295.42055      118.45365     -135.06614      1139.2829     -648.85577      36.503338      36.503338      36.503338      48640.467      1.2307884      15051.91     
     28000   28000          294.77652     -504.34709      4.3352725      669.83841     -2187.2149      36.503338      36.503338      36.503338      48640.467      1.2307884      15120.382    
     28100   28100          306.33622      798.57103      113.10886      1750.2867      532.3175       36.503338      36.503338      36.503338      48640.467      1.2307884      15209.386    
     28200   28200          305.48029     -764.94107      1055.4462     -1878.1046     -1472.1648      36.503338      36.503338      36.503338      48640.467      1.2307884      15196.788    
     28300   28300          302.22607      1037.2736      1648.5121     -711.49152      2174.8003      36.503338      36.503338      36.503338      48640.467      1.2307884      15142.673    
     28400   28400          301.68575      266.57801      1183.9396     -175.36998     -208.83558      36.503338      36.503338      36.503338      48640.467      1.2307884      15102.555    
     28500   28500          298.62985      32.564444     -993.24778      585.58975      505.35136      36.503338      36.503338      36.503338      48640.467      1.2307884      15107.399    
     28600   28600          305.42193     -286.10275     -1627.3746      716.52658      52.539817      36.503338      36.503338      36.503338      48640.467      1.2307884      15128.044    
     28700   28700          304.21335      647.56376      1416.1511      1174.6458     -648.10556      36.503338      36.503338      36.503338      48640.467      1.2307884      15185.315    
     28800   28800          307.99252      179.26365     -700.71997      400.14932      838.36159      36.503338      36.503338      36.503338      48640.467      1.2307884      15263.286    
     28900   28900          308.7438      -509.61034      700.01391      44.386077     -2273.231       36.503338      36.503338      36.503338      48640.467      1.2307884      15187.255    
     29000   29000          304.41724     -446.56229     -1725.9583     -68.762329      455.03376      36.503338      36.503338      36.503338      48640.467      1.2307884      15095.184    
     29100   29100          302.03679      529.89818     -196.17937      1886.893      -101.01913      36.503338      36.503338      36.503338      48640.467      1.2307884      15059.636    
     29200   29200          300.91542      1194.7245     -117.14228      2108.419       1592.8966      36.503338      36.503338      36.503338      48640.467      1.2307884      15072.227    
     29300   29300          306.59549     -470.67991     -1116.9473      1052.8402     -1347.9326      36.503338      36.503338      36.503338      48640.467      1.2307884      15162.567    
     29400   29400          306.60297      817.10179     -19.570989      837.9996       1632.8767      36.503338      36.503338      36.503338      48640.467      1.2307884      15212.311    
     29500   29500          303.25373      312.5088       263.81573      762.2337      -88.523039      36.503338      36.503338      36.503338      48640.467      1.2307884      15157.772    
     29600   29600          303.41302      815.91315      1377.5174      144.13687      926.08518      36.503338      36.503338      36.503338      48640.467      1.2307884      15113.383    
     29700   29700          297.74892     -800.04633     -1128.3496     -809.4772      -462.31213      36.503338      36.503338      36.503338      48640.467      1.2307884      15082.955    
     29800   29800          296.04663      1598.9857      1216.7148      2493.7906      1086.4518      36.503338      36.503338      36.503338      48640.467      1.2307884      15085.693    
     29900   29900          305.38248      438.95404      566.39363      595.31567      155.1528       36.503338      36.503338      36.503338      48640.467      1.2307884      15133.253    
     30000   30000          309.23571      864.25029      392.24635     -51.849368      2252.3539      36.503338      36.503338      36.503338      48640.467      1.2307884      15214.047    
     30100   30100          301.26497     -532.89265     -1084.1359      64.780199     -579.32224      36.503338      36.503338      36.503338      48640.467      1.2307884      15183.487    
     30200   30200          296.3583      -305.2267       14.310471     -667.17986     -262.8107       36.503338      36.503338      36.503338      48640.467      1.2307884      15064.803    
     30300   30300          296.02333      470.19598      618.74233      1045.4712     -253.62559      36.503338      36.503338      36.503338      48640.467      1.2307884      15039.808    
     30400   30400          294.90298     -335.29099     -74.119792     -34.250675     -897.50251      36.503338      36.503338      36.503338      48640.467      1.2307884      15078.704    
     30500   30500          296.22419      1366.055      -278.68256      1927.1623      2449.6852      36.503338      36.503338      36.503338      48640.467      1.2307884      15134.844    
     30600   30600          297.43339     -984.83676     -636.14428      278.5942      -2596.9602      36.503338      36.503338      36.503338      48640.467      1.2307884      15144.527    
     30700   30700          298.52471      2830.6574      2788.5696      3486.777       2216.6255      36.503338      36.503338      36.503338      48640.467      1.2307884      15108.991    
     30800   30800          299.05621     -2214.565      -3691.6342     -1666.8518     -1285.2089      36.503338      36.503338      36.503338      48640.467      1.2307884      15037.964    
     30900   30900          293.9778       634.54775      585.35949      2097.5894     -779.30563      36.503338      36.503338      36.503338      48640.467      1.2307884      15007.903    
     31000   31000          299.45287      191.20932      250.54928     -338.57278      661.65145      36.503338      36.503338      36.503338      48640.467      1.2307884      15078.781    
     31100   31100          304.65069      930.10933      709.67259      1920.9221      159.73332      36.503338      36.503338      36.503338      48640.467      1.2307884      15154.176    
     31200   31200          295.78389     -1051.6566     -1566.0711     -477.83597     -1111.0626      36.503338      36.503338      36.503338      48640.467      1.2307884      15152.61     
     31300   31300          301.17832      855.3857       513.48598      43.54665       2009.1245      36.503338      36.503338      36.503338      48640.467      1.2307884      15108.841    
     31400   31400          295.1329       1234.1953      1342.4787      1538.3958      821.71131      36.503338      36.503338      36.503338      48640.467      1.2307884      15001.605    
     31500   31500          290.56233     -1351.2878     -2425.8641     -545.52813     -1082.4712      36.503338      36.503338      36.503338      48640.467      1.2307884      14970.328    
     31600   31600          301.0393      -78.089203      832.63688     -1300.9354      234.03089      36.503338      36.503338      36.503338      48640.467      1.2307884      15025.486    
     31700   31700          300.83681      750.90526      931.44619      120.4239       1200.8457      36.503338      36.503338      36.503338      48640.467      1.2307884      15073.904    
     31800   31800          306.28833     -178.17357     -972.53222      269.94456      168.06696      36.503338      36.503338      36.503338      48640.467      1.2307884      15131.29     
     31900   31900          300.70711      666.98798     -1455.6114      109.90848      3346.6668      36.503338      36.503338      36.503338      48640.467      1.2307884      15168.987    
     32000   32000          304.72159      1462.0856      1615.8723      1899.6165      870.7681       36.503338      36.503338      36.503338      48640.467      1.2307884      15156.942    
     32100   32100          299.21659      479.71046     -104.41707      1887.1052     -343.5567       36.503338      36.503338      36.503338      48640.467      1.2307884      15028.175    
     32200   32200          295.72993      395.76718      1186.4103     -546.11068      547.00188      36.503338      36.503338      36.503338      48640.467      1.2307884      15018.039    
     32300   32300          297.57741      395.297       -590.03661      2136.2285     -360.30085      36.503338      36.503338      36.503338      48640.467      1.2307884      15102.785    
     32400   32400          302.22024      442.69988     -1.0026594      1080.4447      248.65761      36.503338      36.503338      36.503338      48640.467      1.2307884      15154.725    
     32500   32500          301.46903      1511.7162      1400.7596      860.94262      2273.4462      36.503338      36.503338      36.503338      48640.467      1.2307884      15146.639    
     32600   32600          292.93591     -175.12822     -1497.9377      408.29325      564.2598       36.503338      36.503338      36.503338      48640.467      1.2307884      15098.352    
     32700   32700          295.60953      327.18736      439.13601      408.32828      134.09779      36.503338      36.503338      36.503338      48640.467      1.2307884      15051.809    
     32800   32800          294.55941     -448.0168      -1054.5323     -2005.2241      1715.706       36.503338      36.503338      36.503338      48640.467      1.2307884      14921.171    
     32900   32900          293.72458     -51.984704     -85.175537      504.05995     -574.83853      36.503338      36.503338      36.503338      48640.467      1.2307884      14910.965    
     33000   33000          295.02764      331.09233     -101.27603      229.15701      865.39601      36.503338      36.503338      36.503338      48640.467      1.2307884      15015.31     
     33100   33100          298.19246      231.15339     -689.84959      760.49326      622.8165       36.503338      36.503338      36.503338      48640.467      1.2307884      15089.382    
     33200   33200          303.30403      962.32336      349.77161      1887.9083      649.29022      36.503338      36.503338      36.503338      48640.467      1.2307884      15153.183    
     33300   33300          302.21574      126.60348     -89.193288     -560.30639      1029.3101      36.503338      36.503338      36.503338      48640.467      1.2307884      15184.475    
     33400   33400          305.00116      590.87899      1636.3382     -36.771144      173.06996      36.503338      36.503338      36.503338      48640.467      1.2307884      15136.974    
     33500   33500          295.82215      1315.4198      286.12324      1230.8528      2429.2834      36.503338      36.503338      36.503338      48640.467      1.2307884      15027.148    
     33600   33600          297.19382     -612.23434     -1160.9854     -866.05505      190.33741      36.503338      36.503338      36.503338      48640.467      1.2307884      15038.261    
     33700   33700          300.00731     -10.478662     -128.9523      -683.57782      781.09413      36.503338      36.503338      36.503338      48640.467      1.2307884      15086.066    
     33800   33800          301.85459      764.78551      871.54365      749.26775      673.54513      36.503338      36.503338      36.503338      48640.467      1.2307884      15118.658    
     33900   33900          299.4503       706.98589      546.98305      556.45462      1017.52        36.503338      36.503338      36.503338      48640.467      1.2307884      15129.787    
     34000   34000          303.70183      150.38277     -407.35203      523.64041      334.85992      36.503338      36.503338      36.503338      48640.467      1.2307884      15132.057    
     34100   34100          299.2422      -773.7637       818.70155     -650.70405     -2489.2886      36.503338      36.503338      36.503338      48640.467      1.2307884      15119.283    
     34200   34200          301.96785      2509.4798      2037.8178      3748.2134      1742.4083      36.503338      36.503338      36.503338      48640.467      1.2307884      15115.106    
     34300   34300          301.29585     -95.890283      375.54604     -438.60999     -224.6069       36.503338      36.503338      36.503338      48640.467      1.2307884      15091.845    
     34400   34400          299.7563       113.69457     -1596.6779      509.9735       1427.7881      36.503338      36.503338      36.503338      48640.467      1.2307884      15028.56     
     34500   34500          294.49116      107.95904      287.11131      316.84503     -280.07923      36.503338      36.503338      36.503338      48640.467      1.2307884      14975.589    
     34600   34600          294.72224      1056.0505      439.98712      1930.1164      798.04806      36.503338      36.503338      36.503338      48640.467      1.2307884      14996.285    
     34700   34700          302.45446     -491.65292     -2413.5705     -279.39615      1218.0079      36.503338      36.503338      36.503338      48640.467      1.2307884      15121.768    
     34800   34800          300.43274      1052.2462      558.39306      1573.273       1025.0727      36.503338      36.503338      36.503338      48640.467      1.2307884      15148.1      
     34900   34900          301.93479     -213.29494     -334.14238      434.95205     -740.6945       36.503338      36.503338      36.503338      48640.467      1.2307884      15132.184    
     35000   35000          302.53241      1402.8176      51.450552      2457.2538      1699.7485      36.503338      36.503338      36.503338      48640.467      1.2307884      15084.985    
     35100   35100          293.64157      544.83145     -193.48883      735.88613      1092.097       36.503338      36.503338      36.503338      48640.467      1.2307884      15020.653    
     35200   35200          293.46446     -437.03219     -1031.7895     -157.13335     -122.1737       36.503338      36.503338      36.503338      48640.467      1.2307884      15020.12     
     35300   35300          302.23641      2499.1221      1589.5627      2448.8133      3458.9901      36.503338      36.503338      36.503338      48640.467      1.2307884      15132.871    
     35400   35400          305.89387      506.51239      667.36985     -622.63312      1474.8004      36.503338      36.503338      36.503338      48640.467      1.2307884      15156.744    
     35500   35500          297.67291      488.88024      1010.0026     -325.70362      782.34179      36.503338      36.503338      36.503338      48640.467      1.2307884      15154.04     
     35600   35600          305.48583      773.08907      146.68372      368.54356      1804.0399      36.503338      36.503338      36.503338      48640.467      1.2307884      15196.358    
     35700   35700          300.81963     -1409.8343     -1307.2042     -970.38545     -1951.9134      36.503338      36.503338      36.503338      48640.467      1.2307884      15176.078    
     35800   35800          298.67571      2012.2711      3063.3412      1660.4812      1312.9908      36.503338      36.503338      36.503338      48640.467      1.2307884      15076.97     
     35900   35900          294.42866     -589.89233     -2854.0926      1763.4018     -678.98619      36.503338      36.503338      36.503338      48640.467      1.2307884      15049.793    
     36000   36000          299.26706      301.39486      200.16982     -95.667905      799.68267      36.503338      36.503338      36.503338      48640.467      1.2307884      15071.114    
     36100   36100          301.41633      1432.5374      1068.9007      1422.9171      1805.7944      36.503338      36.503338      36.503338      48640.467      1.2307884      15180.147    
     36200   36200          300.80511      258.21865      2490.7142     -1298.7576     -417.3007       36.503338      36.503338      36.503338      48640.467      1.2307884      15215.516    
     36300   36300          307.17654     -1108.4407     -3134.187      -162.81086     -28.324352      36.503338      36.503338      36.503338      48640.467      1.2307884      15158.161    
     36400   36400          298.95253      28.217741      1245.1253      333.38864     -1493.8607      36.503338      36.503338      36.503338      48640.467      1.2307884      15112.055    
     36500   36500          302.26278      1758.2281      1629.3175      1863.0437      1782.3232      36.503338      36.503338      36.503338      48640.467      1.2307884      15078.127    
     36600   36600          296.7896      -161.67617     -907.05216      1719.02       -1296.9964      36.503338      36.503338      36.503338      48640.467      1.2307884      15051.813    
     36700   36700          302.20254      35.129718      461.14887     -1122.5997      766.83997      36.503338      36.503338      36.503338      48640.467      1.2307884      15099.616    
     36800   36800          301.48661      969.04067      366.76744      1455.95        1084.4046      36.503338      36.503338      36.503338      48640.467      1.2307884      15197.427    
     36900   36900          298.59727     -412.53561     -1199.3657     -36.980362     -1.2607529      36.503338      36.503338      36.503338      48640.467      1.2307884      15193.288    
     37000   37000          298.44726     -16.827527      1054.1517     -137.80409     -966.83018      36.503338      36.503338      36.503338      48640.467      1.2307884      15100.406    
     37100   37100          300.47416      154.78692      1127.7031     -1371.2366      707.89427      36.503338      36.503338      36.503338      48640.467      1.2307884      15063.546    
     37200   37200          296.94147      136.11937      778.74243      2186.4116     -2556.7959      36.503338      36.503338      36.503338      48640.467      1.2307884      15068.166    
     37300   37300          304.54601     -246.95909     -1529.933       656.99306      132.0627       36.503338      36.503338      36.503338      48640.467      1.2307884      15112.115    
     37400   37400          300.47565      555.94454      1398.841      -1003.2114      1272.204       36.503338      36.503338      36.503338      48640.467      1.2307884      15121.092    
     37500   37500          297.96996      1307.6462      1953.5948      1523.6883      445.65549      36.503338      36.503338      36.503338      48640.467      1.2307884      15087.424    
     37600   37600          299.28595      445.70848     -375.48783      1281.5027      431.11057      36.503338      36.503338      36.503338      48640.467      1.2307884      15025.221    
     37700   37700          298.02861     -487.12611      954.71795     -1199.2212     -1216.8751      36.503338      36.503338      36.503338      48640.467      1.2307884      14991.782    
     37800   37800          297.70295     -212.85078     -1297.0948     -890.32598      1548.8685      36.503338      36.503338      36.503338      48640.467      1.2307884      15065.534    
     37900   37900          304.94069      1026.6912      209.7136       2113.1945      757.1656       36.503338      36.503338      36.503338      48640.467      1.2307884      15150.693    
     38000   38000          298.66756     -759.23234     -1875.3826      281.35929     -683.67374      36.503338      36.503338      36.503338      48640.467      1.2307884      15158.376    
     38100   38100          304.86555      637.6674       553.84501      1007.2735      351.88369      36.503338      36.503338      36.503338      48640.467      1.2307884      15108.641    
     38200   38200          299.12305      548.6195       74.505973      1562.2908      9.0617272      36.503338      36.503338      36.503338      48640.467      1.2307884      15049.897    
     38300   38300          299.35211      193.51156      460.01227     -353.69251      474.21491      36.503338      36.503338      36.503338      48640.467      1.2307884      15054.499    
     38400   38400          294.64878      566.25547     -518.97435      1291.5416      926.19913      36.503338      36.503338      36.503338      48640.467      1.2307884      15079.337    
     38500   38500          295.9493       611.11077      1519.0831      1022.2888     -708.03954      36.503338      36.503338      36.503338      48640.467      1.2307884      15133.812    
     38600   38600          303.06009      224.70851     -1149.0904      1711.8699      111.34612      36.503338      36.503338      36.503338      48640.467      1.2307884      15140.31     
     38700   38700          297.05637      810.47906      713.27795      1397.2153      320.94392      36.503338      36.503338      36.503338      48640.467      1.2307884      15064.335    
     38800   38800          297.76481     -238.10275     -43.667592      1049.7632     -1720.4039      36.503338      36.503338      36.503338      48640.467      1.2307884      14967.83     
     38900   38900          299.46966      56.659517      179.92781      17.606138     -27.555392      36.503338      36.503338      36.503338      48640.467      1.2307884      15020.823    
     39000   39000          301.68568     -270.97607      577.69055     -1430.7361      40.117339      36.503338      36.503338      36.503338      48640.467      1.2307884      15077.73     
     39100   39100          298.59748     -82.998072     -216.00325     -646.28896      613.29799      36.503338      36.503338      36.503338      48640.467      1.2307884      15096.348    
     39200   39200          298.06445      1501.3037      445.31519      2600.4208      1458.175       36.503338      36.503338      36.503338      48640.467      1.2307884      15110.798    
     39300   39300          304.27316     -1726.5149     -2069.3188     -1387.2911     -1722.9348      36.503338      36.503338      36.503338      48640.467      1.2307884      15123.08     
     39400   39400          301.51009      853.43685      173.44822      449.88217      1936.9802      36.503338      36.503338      36.503338      48640.467      1.2307884      15105.672    
     39500   39500          296.34506      884.3169       840.70528      1112.6585      699.5869       36.503338      36.503338      36.503338      48640.467      1.2307884      15078.401    
     39600   39600          294.61773      678.60531      1827.1033     -1269.5342      1478.2469      36.503338      36.503338      36.503338      48640.467      1.2307884      15069.032    
     39700   39700          299.68054     -620.8735      -1945.0054      104.70754     -22.322646      36.503338      36.503338      36.503338      48640.467      1.2307884      15118.683    
[...]
    491400   491400         300.82135     -1535.9389     -1274.957      -1225.5818     -2107.278       36.503338      37.567045      36.503338      50057.851      1.1959387      15243.725    
    491500   491500         305.9368       32.773283      66.445441      216.00867     -184.13426      36.503338      37.56741       36.503338      50058.337      1.1959271      15274.636    
    491600   491600         300.86559     -859.30881     -1746.8524     -994.92822      163.85424      36.503338      37.567775      36.503338      50058.823      1.1959155      15205.031    
    491700   491700         301.61177     -783.89528     -264.07958     -341.37699     -1746.2293      36.503338      37.56814       36.503338      50059.31       1.1959039      15121.668    
    491800   491800         296.38569     -1579.5639     -2182.558      -1528.4342     -1027.6994      36.503338      37.568505      36.503338      50059.796      1.1958922      15115.979    
    491900   491900         304.9001      -646.58979     -2181.9045     -1200.537       1442.6721      36.503338      37.56887       36.503338      50060.283      1.1958806      15186.344    
    492000   492000         307.32255     -1306.4737     -2529.9077     -1255.6183     -133.89492      36.503338      37.569235      36.503338      50060.769      1.195869       15264.459    
    492100   492100         300.76747     -1730.4298     -2125.1471     -2579.4653     -486.67714      36.503338      37.5696        36.503338      50061.255      1.1958574      15245.772    
    492200   492200         300.49845     -1204.841      -744.39331     -2109.1831     -760.94659      36.503338      37.569966      36.503338      50061.742      1.1958458      15208.488    
    492300   492300         299.32833     -465.50351     -1741.4368      1399.9699     -1055.0436      36.503338      37.570331      36.503338      50062.228      1.1958342      15181.476    
    492400   492400         298.59645     -1417.1226     -1342.6654     -1125.8649     -1782.8375      36.503338      37.570696      36.503338      50062.715      1.1958225      15168.315    
    492500   492500         300.60362     -1172.3693     -2002.7504     -1232.8603     -281.49716      36.503338      37.571061      36.503338      50063.201      1.1958109      15170.399    
    492600   492600         301.37083      795.0875       1035.5667      1144.5302      205.16552      36.503338      37.571426      36.503338      50063.687      1.1957993      15173.49     
    492700   492700         302.76973     -1143.8699     -2126.7697     -1206.8473     -97.992769      36.503338      37.571791      36.503338      50064.174      1.1957877      15167.668    
    492800   492800         298.7491      -2901.2593     -2515.2614     -2667.5288     -3520.9878      36.503338      37.572156      36.503338      50064.66       1.1957761      15155.085    
    492900   492900         298.63319      435.66463      659.17035      369.11749      278.70604      36.503338      37.572521      36.503338      50065.147      1.1957644      15142.92     
    493000   493000         300.74161     -2245.7259     -2431.4797     -1936.8565     -2368.8414      36.503338      37.572886      36.503338      50065.633      1.1957528      15134.078    
    493100   493100         294.61637     -367.45301     -321.34405     -988.44309      207.42809      36.503338      37.573251      36.503338      50066.119      1.1957412      15148.355    
    493200   493200         298.71596     -379.60985      284.40209     -2323.1616      899.92998      36.503338      37.573616      36.503338      50066.606      1.1957296      15226.426    
    493300   493300         307.10047     -1380.779      -1042.0065     -1417.9594     -1682.3711      36.503338      37.573981      36.503338      50067.092      1.195718       15260.921    
    493400   493400         298.1618      -1078.1999     -1323.6138     -1061.9792     -849.00667      36.503338      37.574346      36.503338      50067.579      1.1957064      15170.788    
    493500   493500         297.22468     -1145.1241     -1133.603      -1870.7076     -431.06163      36.503338      37.574711      36.503338      50068.065      1.1956947      15121.676    
    493600   493600         300.21059     -636.71487     -820.0087      -1300.9996      210.86367      36.503338      37.575076      36.503338      50068.551      1.1956831      15137.794    
    493700   493700         303.22229     -400.09609     -145.57099     -1057.3898      2.6724793      36.503338      37.575441      36.503338      50069.038      1.1956715      15185.664    
    493800   493800         302.71191     -553.86217     -965.33139      307.62631     -1003.8814      36.503338      37.575806      36.503338      50069.524      1.1956599      15235.23     
    493900   493900         307.78352     -194.6634      -1604.029       854.96756      165.07126      36.503338      37.576171      36.503338      50070.011      1.1956483      15299.295    
    494000   494000         306.44327     -775.13739      316.60137     -339.52676     -2302.4868      36.503338      37.576536      36.503338      50070.497      1.1956367      15368.824    
    494100   494100         307.33097     -710.24559      486.43814     -2297.5955     -319.57945      36.503338      37.576901      36.503338      50070.984      1.1956251      15288.497    
    494200   494200         297.20094     -1150.7867     -937.67957     -468.11014     -2046.5704      36.503338      37.577266      36.503338      50071.47       1.1956134      15184.969    
    494300   494300         297.21859     -1129.2854     -1472.0834     -1138.7528     -777.01998      36.503338      37.577631      36.503338      50071.956      1.1956018      15136.079    
    494400   494400         297.29516     -837.19754     -1586.6686     -626.05095     -298.87303      36.503338      37.577996      36.503338      50072.443      1.1955902      15135.266    
    494500   494500         300.97421     -861.52398     -536.94031     -357.04961     -1690.582       36.503338      37.578361      36.503338      50072.929      1.1955786      15197.746    
    494600   494600         299.48667     -2112.0709     -1994.3058     -2407.9479     -1933.959       36.503338      37.578726      36.503338      50073.416      1.195567       15262.715    
    494700   494700         301.28471      125.68333     -317.10939     -258.25425      952.41363      36.503338      37.579091      36.503338      50073.902      1.1955554      15286.258    
    494800   494800         295.50433      1183.6881      1555.0421      1258.9193      737.10292      36.503338      37.579456      36.503338      50074.388      1.1955438      15200.973    
    494900   494900         295.25303     -1603.4811     -1800.9543     -2004.2515     -1005.2377      36.503338      37.579821      36.503338      50074.875      1.1955321      15115.707    
    495000   495000         300.37087     -982.47293     -478.48209     -1154.7765     -1314.1602      36.503338      37.580186      36.503338      50075.361      1.1955205      15115.701    
    495100   495100         301.60287      628.30294      157.92301      242.18566      1484.8002      36.503338      37.580552      36.503338      50075.848      1.1955089      15174.49     
    495200   495200         300.99501     -1064.5713     -2072.9557     -944.28196     -176.47618      36.503338      37.580917      36.503338      50076.334      1.1954973      15268.649    
    495300   495300         304.49243     -2138.8013     -1123.3293     -2910.7265     -2382.3482      36.503338      37.581282      36.503338      50076.82       1.1954857      15268.906    
    495400   495400         304.65979     -457.20517     -214.926        238.31716     -1395.0067      36.503338      37.581647      36.503338      50077.307      1.1954741      15220.053    
    495500   495500         298.23014     -98.128714     -436.32644      812.76099     -670.82069      36.503338      37.582012      36.503338      50077.793      1.1954625      15190.463    
    495600   495600         308.51703     -2640.7562     -3619.5525     -2371.2699     -1931.4461      36.503338      37.582377      36.503338      50078.28       1.1954509      15177.961    
    495700   495700         304.43556     -1025.2716     -564.11097     -690.42948     -1821.2742      36.503338      37.582742      36.503338      50078.766      1.1954392      15171.856    
    495800   495800         295.33915     -370.33103     -115.74199     -1418.7647      423.51362      36.503338      37.583107      36.503338      50079.252      1.1954276      15183.495    
    495900   495900         301.73917     -902.67662     -1926.006      -362.84765     -419.17619      36.503338      37.583472      36.503338      50079.739      1.195416       15194.507    
    496000   496000         300.66284     -1272.8459     -2024.7701     -689.47746     -1104.2903      36.503338      37.583837      36.503338      50080.225      1.1954044      15191.461    
    496100   496100         306.45067     -1696.6707     -1268.806      -1966.6191     -1854.5872      36.503338      37.584202      36.503338      50080.712      1.1953928      15183.659    
    496200   496200         301.31008     -1448.4317     -178.0971      -1886.6455     -2280.5526      36.503338      37.584567      36.503338      50081.198      1.1953812      15159.759    
    496300   496300         298.64029     -684.80181     -1079.5846     -2167.2189      1192.3981      36.503338      37.584932      36.503338      50081.684      1.1953696      15115.028    
    496400   496400         289.72689     -1776.8143     -912.13394     -2642.7003     -1775.6086      36.503338      37.585297      36.503338      50082.171      1.195358       15063.936    
    496500   496500         297.88135     -1376.9889     -1754.6829     -1778.6252     -597.65862      36.503338      37.585662      36.503338      50082.657      1.1953464      15151.333    
    496600   496600         299.71409     -1984.7545     -278.11342     -2503.1149     -3173.0353      36.503338      37.586027      36.503338      50083.144      1.1953348      15220.402    
    496700   496700         302.49986     -1055.1638     -1777.8304     -448.49359     -939.16751      36.503338      37.586392      36.503338      50083.63       1.1953231      15231.573    
    496800   496800         300.03225     -997.02602      423.16406     -2816.1652     -598.07692      36.503338      37.586757      36.503338      50084.116      1.1953115      15193.084    
    496900   496900         296.71067     -2324.2584     -2438.0293     -1545.3046     -2989.4411      36.503338      37.587122      36.503338      50084.603      1.1952999      15105.572    
    497000   497000         295.75574      88.961437      962.02378     -1195.8512      500.71175      36.503338      37.587487      36.503338      50085.089      1.1952883      15065.795    
    497100   497100         303.74262     -1331.3495     -995.00595     -1986.4796     -1012.5629      36.503338      37.587852      36.503338      50085.576      1.1952767      15192.369    
    497200   497200         298.81888     -1013.5547      454.6992      -703.86668     -2791.4967      36.503338      37.588217      36.503338      50086.062      1.1952651      15240.589    
    497300   497300         298.44285     -1509.0086      10.728718     -2181.5174     -2356.237       36.503338      37.588582      36.503338      50086.548      1.1952535      15220.438    
    497400   497400         297.17643      1146.5883      1718.596      -317.4735       2038.6425      36.503338      37.588947      36.503338      50087.035      1.1952419      15176.33     
    497500   497500         295.57175     -2109.0128     -2850.1484     -1765.0158     -1711.8742      36.503338      37.589312      36.503338      50087.521      1.1952303      15114.103    
    497600   497600         298.08782     -710.9492       418.93426     -900.06582     -1651.7161      36.503338      37.589677      36.503338      50088.008      1.1952187      15084.133    
    497700   497700         300.61716     -740.64546     -390.2264       65.685311     -1897.3953      36.503338      37.590042      36.503338      50088.494      1.1952071      15172.128    
    497800   497800         309.90795     -724.31924     -1293.3353     -1429.6717      550.04929      36.503338      37.590407      36.503338      50088.98       1.1951955      15238.873    
    497900   497900         299.68784     -1089.2402      260.68293     -1212.4271     -2315.9763      36.503338      37.590772      36.503338      50089.467      1.1951839      15200.275    
    498000   498000         302.5856      -558.71522     -2186.7854      340.75551      169.88427      36.503338      37.591137      36.503338      50089.953      1.1951723      15132.059    
    498100   498100         295.69243     -769.71734     -1239.1255     -1789.7092      719.6827       36.503338      37.591503      36.503338      50090.44       1.1951606      15077.404    
    498200   498200         292.80111     -1480.0632     -2208.2222     -1211.8101     -1020.1572      36.503338      37.591868      36.503338      50090.926      1.195149       15162.188    
    498300   498300         303.41145     -1165.5114     -122.33882     -2793.7825     -580.41291      36.503338      37.592233      36.503338      50091.412      1.1951374      15270.878    
    498400   498400         300.56182     -1914.8914     -2492.3399     -1545.3289     -1707.0054      36.503338      37.592598      36.503338      50091.899      1.1951258      15259.697    
    498500   498500         296.73916     -1908.5045     -2466.5449     -1115.0832     -2143.8853      36.503338      37.592963      36.503338      50092.385      1.1951142      15166.636    
    498600   498600         297.18561     -103.06576      682.85704     -657.13046     -334.92387      36.503338      37.593328      36.503338      50092.872      1.1951026      15113.262    
    498700   498700         296.42967     -1971.3947     -1857.4519     -1630.9935     -2425.7388      36.503338      37.593693      36.503338      50093.358      1.195091       15120.638    
    498800   498800         304.23667     -961.27495     -774.09947     -1090.6855     -1019.0399      36.503338      37.594058      36.503338      50093.845      1.1950794      15220.986    
    498900   498900         304.16436     -780.74357     -723.83741     -2370.4426      752.04933      36.503338      37.594423      36.503338      50094.331      1.1950678      15280.241    
    499000   499000         306.03945     -964.81996     -1264.5545     -1572.6709     -57.234452      36.503338      37.594788      36.503338      50094.817      1.1950562      15244.995    
    499100   499100         301.41376     -602.29003     -722.85045     -220.72706     -863.29258      36.503338      37.595153      36.503338      50095.304      1.1950446      15183.573    
    499200   499200         300.24476     -1168.918      -1035.7766     -1157.7086     -1313.2687      36.503338      37.595518      36.503338      50095.79       1.195033       15155.834    
    499300   499300         301.03526     -738.75763     -1474.5572     -1075.1687      333.45304      36.503338      37.595883      36.503338      50096.277      1.1950214      15160.098    
    499400   499400         304.15537     -791.85964     -912.56852      72.236705     -1535.2471      36.503338      37.596248      36.503338      50096.763      1.1950098      15225.512    
    499500   499500         304.48868     -792.44345     -182.44015     -468.2692      -1726.621       36.503338      37.596613      36.503338      50097.249      1.1949982      15313.861    
    499600   499600         304.48791     -1199.2936      231.38238     -3781.4257     -47.837647      36.503338      37.596978      36.503338      50097.736      1.1949866      15265.651    
    499700   499700         295.77423     -663.10448     -336.06704     -3355.8494      1702.603       36.503338      37.597343      36.503338      50098.222      1.194975       15185.007    
    499800   499800         302.35861     -1524.177      -91.757731     -2512.5055     -1968.2676      36.503338      37.597708      36.503338      50098.709      1.1949634      15191.038    
    499900   499900         299.07395     -1561.752      -803.25529     -2612.1843     -1269.8163      36.503338      37.598073      36.503338      50099.195      1.1949518      15189.354    
    500000   500000         296.99736     -1594.5907     -1124.0434     -2444.7218     -1215.0069      36.503338      37.598438      36.503338      50099.681      1.1949402      15126.9      
Loop time of 967.341 on 1 procs for 300000 steps with 4520 atoms

Performance: 26.795 ns/day, 0.896 hours/ns, 310.128 timesteps/s, 1.402 Matom-step/s
100.0% CPU use with 1 MPI tasks x 1 OpenMP threads

MPI task timing breakdown:
Section |  min time  |  avg time  |  max time  |%varavg| %total
---------------------------------------------------------------
Pair    | 10.045     | 10.045     | 10.045     |   0.0 |  1.04
Bond    | 317.55     | 317.55     | 317.55     |   0.0 | 32.83
Kspace  | 370.85     | 370.85     | 370.85     |   0.0 | 38.34
Neigh   | 60.007     | 60.007     | 60.007     |   0.0 |  6.20
Comm    | 9.5478     | 9.5478     | 9.5478     |   0.0 |  0.99
Output  | 0.36229    | 0.36229    | 0.36229    |   0.0 |  0.04
Modify  | 178.05     | 178.05     | 178.05     |   0.0 | 18.41
Other   |            | 20.93      |            |       |  2.16

Nlocal:           4520 ave        4520 max        4520 min
Histogram: 1 0 0 0 0 0 0 0 0 0
Nghost:          14805 ave       14805 max       14805 min
Histogram: 1 0 0 0 0 0 0 0 0 0
Neighs:              0 ave           0 max           0 min
Histogram: 1 0 0 0 0 0 0 0 0 0
FullNghs:  2.59702e+06 ave 2.59702e+06 max 2.59702e+06 min
Histogram: 1 0 0 0 0 0 0 0 0 0

Total # of neighbors = 2597020
Ave neighs/atom = 574.56195
Ave special neighs/atom = 5.5353982
Neighbor list builds = 10039
Dangerous builds = 0
unfix def
unfix nvt_def

unfix shake_fix



write_data 05_deform_out.data
System init for write_data ...
PPPM Kokkos initialization ...
  using 12-bit tables for long-range coulomb
  G vector (1/distance) = 0.33584885
  grid = 40 45 40
  stencil order = 5
  estimated absolute RMS force accuracy = 0.00038229343
  estimated relative force accuracy = 1.1512653e-06
  using double precision cuFFT
  3d grid and FFT values/proc = 114868 72000
Generated 21 of 21 mixed pair_coeff terms from sixthpower/sixthpower mixing rule

print "STAGE COMPLETE: npt_deform T=300K rate=1e-07/fs steps=300000"
STAGE COMPLETE: npt_deform T=300K rate=1e-07/fs steps=300000
quit
   0.0 |  0.99
Output  | 0.36229    | 0.36229    | 0.36229    |   0.0 |  0.04
Modify  | 178.05     | 178.05     | 178.05     |   0.0 | 18.41
Other   |            | 20.93      |            |       |  2.16

Nlocal:           4520 ave        4520 max        4520 min
Histogram: 1 0 0 0 0 0 0 0 0 0
Nghost:          14805 ave       14805 max       14805 min
Histogram: 1 0 0 0 0 0 0 0 0 0
Neighs:              0 ave           0 max           0 min
Histogram: 1 0 0 0 0 0 0 0 0 0
FullNghs:  2.59702e+06 ave 2.59702e+06 max 2.59702e+06 min
Histogram: 1 0 0 0 0 0 0 0 0 0

Total # of neighbors = 2597020
Ave neighs/atom = 574.56195
Ave special neighs/atom = 5.5353982
Neighbor list builds = 10039
Dangerous builds = 0
System init for write_data ...
PPPM Kokkos initialization ...
  using 12-bit tables for long-range coulomb
  G vector (1/distance) = 0.33584885
  grid = 40 45 40
  stencil order = 5
  estimated absolute RMS force accuracy = 0.00038229343
  estimated relative force accuracy = 1.1512653e-06
  using double precision cuFFT
  3d grid and FFT values/proc = 114868 72000
Generated 21 of 21 mixed pair_coeff terms from sixthpower/sixthpower mixing rule
STAGE COMPLETE: npt_deform T=300K rate=1e-07/fs steps=300000
