units real
atom_style full
boundary p p p

# --- Force Field (injected via PAIR_STYLE_BLOCK) ---
pair_style lj/class2/coul/cut 9.5 9.5
dielectric 1.000000
bond_style class2
angle_style class2
dihedral_style class2
improper_style class2
special_bonds lj/coul 0 0 1
pair_modify mix sixthpower tail yes
neighbor 2.0 bin
neigh_modify delay 0 every 1 check yes
neigh_modify one 4000
# KOKKOS: package loaded via -pk kokkos on the command line

read_data /home/arz2/PolyJarvis/data/PSU4/lammps/equil/nvt_softheat/nvt_softheat_out.data
Reading data file ...
  orthogonal box = (0 0 0) to (61.892642 61.892642 61.892642)
  1 by 1 by 1 MPI processor grid
WARNING: Pair style lj/class2/coul/long/kk in data file differs from currently defined pair style lj/class2/coul/cut/kk (src/read_data.cpp:811)
  reading atoms ...
  10816 atoms
  reading velocities ...
  10816 velocities
  scanning bonds ...
  4 = max bonds/atom
  scanning angles ...
  16 = max angles/atom
  scanning dihedrals ...
  38 = max dihedrals/atom
  scanning impropers ...
  12 = max impropers/atom
  orthogonal box = (0 0 0) to (61.892642 61.892642 61.892642)
  1 by 1 by 1 MPI processor grid
  reading bonds ...
  11608 bonds
  reading angles ...
  19600 angles
  reading dihedrals ...
  29184 dihedrals
  reading impropers ...
  8000 impropers
Finding 1-2 1-3 1-4 neighbors ...
  special bond factors lj:    0        0        1       
  special bond factors coul:  0        0        1       
     4 = max # of 1-2 neighbors
    10 = max # of 1-3 neighbors
    14 = max # of special neighbors
  special bonds CPU = 0.006 seconds
  read_data CPU = 0.383 seconds
include /home/arz2/PolyJarvis/data/PSU4/lammps/equil/emc_build.params
# LAMMPS parameters created by EMC v9.4.4, build Jul 31 2025 20:33:44

# Variables

variable	seed		index	734512
variable	ntotal		index	10816
variable	fshape		index	1
variable	output		index	emc_build
variable	field		index	pcff/pcff
variable	location1	index	/home/arz2/emc/field/
variable	nav		index	0.6022141179
variable	temperature	index	300
variable	radius		index	5
variable	nrelax		index	100
variable	weight_nonbond	index	0.0001
variable	weight_bond	index	0.0001
variable	weight_focus	index	1
variable	cutoff		index	9.5
variable	charge_cutoff	index	9.5
variable	kappa		index	4
variable	density1	index	0.62
variable	lprevious	index	0
variable	lphase		index	61.8926417911
variable	f_poly		index	8
variable	chem_repeat	index	*Oc1ccc(C(C)(C)c2ccc(Oc3ccc(S(=O)(=O)c4ccc(*)cc4)cc3)cc2)cc1
variable	chem_cap	index	*[H]
variable	lg_repeat	index	54
variable	lg_cap		index	1
variable	norm_poly	index	100
variable	l_poly		index	1352
variable	mg_repeat	index	414.52744
variable	mg_cap		index	0
variable	m_poly		index	10363.186
variable	n_poly		index	8
variable	mtotal		index	88523.72552
variable	nphase1		index	10816
variable	mphase1		index	88523.72552
variable	vphase1		index	237092.087694
variable	lbox		index	61.8926417911
variable	lphase1		index	61.8926417911
variable	lxx		index	61.8926417911
variable	lyy		index	61.8926417911
variable	lzz		index	61.8926417911
variable	lzy		index	0
variable	lzx		index	0
variable	lyx		index	0
variable	vtotal		index	237092.087694
variable	nl_poly		index	8

# Types

variable	type_c		index	1
variable	type_cp		index	2
variable	type_hc		index	3
variable	type_ho		index	4
variable	type_oe		index	5
variable	type_oc		index	6
variable	type_oh		index	7
variable	type_sf		index	8

variable	type_bond_c_c	index	1
variable	type_bond_c_cp	index	2
variable	type_bond_c_hc	index	3
variable	type_bond_cp_cp	index	4
variable	type_bond_cp_hc	index	5
variable	type_bond_cp_oc	index	6
variable	type_bond_cp_oh	index	7
variable	type_bond_cp_sf	index	8
variable	type_bond_ho_oh	index	9
variable	type_bond_oe_sf	index	10

variable	type_angle_c_c_c index	1
variable	type_angle_c_c_cp index	2
variable	type_angle_c_c_hc index	3
variable	type_angle_c_cp_cp index	4
variable	type_angle_cp_c_cp index	5
variable	type_angle_cp_cp_cp index	6
variable	type_angle_cp_cp_hc index	7
variable	type_angle_cp_cp_oc index	8
variable	type_angle_cp_cp_oh index	9
variable	type_angle_cp_cp_sf index	10
variable	type_angle_cp_oc_cp index	11
variable	type_angle_cp_oh_ho index	12
variable	type_angle_cp_sf_cp index	13
variable	type_angle_cp_sf_oe index	14
variable	type_angle_hc_c_hc index	15
variable	type_angle_oe_sf_oe index	16

# Clusters

variable	n0_poly		index	1
variable	n1_poly		index	8
variable	nl_poly		index	8

# Flags

variable	flag_charged	index	1

# Masses

mass		1    12.01115  # c
mass		2    12.01115  # cp
mass		3     1.00797  # hc
mass		4     1.00797  # ho
mass		5    15.99940  # o=
mass		6    15.99940  # oc
mass		7    15.99940  # oh
mass		8    32.06400  # sf

# Potentials

pair_modify	mix sixthpower tail yes
special_bonds	lj/coul 0 0 1

# Pair Coeffs

pair_coeff	 1  1    0.05400    4.01000  # c,c
pair_coeff	 2  2    0.06400    4.01000  # cp,cp
pair_coeff	 3  3    0.02000    2.99500  # hc,hc
pair_coeff	 4  4    0.01300    1.09800  # ho,ho
pair_coeff	 5  5    0.06000    3.53500  # o=,o=
pair_coeff	 6  6    0.24000    3.53500  # oc,oc
pair_coeff	 7  7    0.24000    3.53500  # oh,oh
pair_coeff	 8  8    0.25000    4.02700  # sf,sf

# Bond Coeffs

bond_coeff	 1    1.53000  299.67000 -501.77000  679.81000  # c,c
bond_coeff	 2    1.50100  321.90210 -521.82080  572.16280  # c,cp
bond_coeff	 3    1.10100  345.00000 -691.89000  844.60000  # c,hc
bond_coeff	 4    1.41700  470.83610 -627.61790 1327.63450  # cp,cp
bond_coeff	 5    1.09820  372.82510 -803.45260  894.31730  # cp,hc
bond_coeff	 6    1.37680  428.87980 -738.23510 1114.96550  # cp,oc
bond_coeff	 7    1.37680  428.87980 -738.23510 1114.96550  # cp,oh
bond_coeff	 8    1.72000  239.80240    0.00000    0.00000  # cp,sf
bond_coeff	 9    0.96500  532.50620 -1282.90500 2004.76580  # ho,oh
bond_coeff	10    1.43080  743.76000    0.00000    0.00000  # o=,sf

# Angle Coeffs

angle_coeff	 1  112.67000   39.51600   -7.44300   -9.55830  # c,c,c
angle_coeff	 2  108.40000   43.95940   -8.39240   -9.33790  # c,c,cp
angle_coeff	 3  110.77000   41.45300  -10.60400    5.12900  # c,c,hc
angle_coeff	 4  120.05000   44.71480  -22.73520    0.00000  # c,cp,cp
angle_coeff	 5  111.00000   44.32340   -9.44540    0.00000  # cp,c,cp
angle_coeff	 6  118.90000   61.02260  -34.99310    0.00000  # cp,cp,cp
angle_coeff	 7  117.94000   35.15580  -12.46820    0.00000  # cp,cp,hc
angle_coeff	 8  123.42000   73.67810  -21.67870    0.00000  # cp,cp,oc
angle_coeff	 9  123.42000   73.67810  -21.67870    0.00000  # cp,cp,oh
angle_coeff	10  120.00000   60.00000    0.00000    0.00000  # cp,cp,sf
angle_coeff	11  109.50000   60.00000    0.00000    0.00000  # cp,oc,cp
angle_coeff	12  108.19000   53.12500   -8.50160    0.00000  # cp,oh,ho
angle_coeff	13  102.00000   58.00000    0.00000    0.00000  # cp,sf,cp
angle_coeff	14  113.10000   42.30000    0.00000    0.00000  # cp,sf,o=
angle_coeff	15  107.66000   39.64100  -12.92100   -2.43180  # hc,c,hc
angle_coeff	16  119.32900  135.00000    0.00000    0.00000  # o=,sf,o=

# BondBond Coeffs

angle_coeff	 1 bb    0.00000    1.53000    1.53000  # c,c,c
angle_coeff	 2 bb    0.00000    1.53000    1.50100  # c,c,cp
angle_coeff	 3 bb    3.38720    1.53000    1.10100  # c,c,hc
angle_coeff	 4 bb   12.06760    1.50100    1.41700  # c,cp,cp
angle_coeff	 5 bb    0.00000    1.50100    1.50100  # cp,c,cp
angle_coeff	 6 bb   68.28560    1.41700    1.41700  # cp,cp,cp
angle_coeff	 7 bb    1.07950    1.41700    1.09820  # cp,cp,hc
angle_coeff	 8 bb   48.47540    1.41700    1.37680  # cp,cp,oc
angle_coeff	 9 bb   48.47540    1.41700    1.37680  # cp,cp,oh
angle_coeff	10 bb    0.00000    1.41700    1.72000  # cp,cp,sf
angle_coeff	11 bb    0.00000    1.37680    1.37680  # cp,oc,cp
angle_coeff	12 bb   20.65770    1.37680    0.96500  # cp,oh,ho
angle_coeff	13 bb    0.00000    1.72000    1.72000  # cp,sf,cp
angle_coeff	14 bb    0.00000    1.72000    1.43080  # cp,sf,o=
angle_coeff	15 bb    5.33160    1.10100    1.10100  # hc,c,hc
angle_coeff	16 bb   40.00000    1.43080    1.43080  # o=,sf,o=

# BondAngle Coeffs

angle_coeff	 1 ba    8.01600    8.01600    1.53000    1.53000  # c,c,c
angle_coeff	 2 ba    0.00000    0.00000    1.53000    1.50100  # c,c,cp
angle_coeff	 3 ba   20.75400   11.42100    1.53000    1.10100  # c,c,hc
angle_coeff	 4 ba   47.05790   31.07710    1.50100    1.41700  # c,cp,cp
angle_coeff	 5 ba    0.00000    0.00000    1.50100    1.50100  # cp,c,cp
angle_coeff	 6 ba   28.87080   28.87080    1.41700    1.41700  # cp,cp,cp
angle_coeff	 7 ba   20.00330   24.21830    1.41700    1.09820  # cp,cp,hc
angle_coeff	 8 ba   58.47900  107.68060    1.41700    1.37680  # cp,cp,oc
angle_coeff	 9 ba   58.47900  107.68060    1.41700    1.37680  # cp,cp,oh
angle_coeff	10 ba    0.00000    0.00000    1.41700    1.72000  # cp,cp,sf
angle_coeff	11 ba    0.00000    0.00000    1.37680    1.37680  # cp,oc,cp
angle_coeff	12 ba   53.86140   23.92240    1.37680    0.96500  # cp,oh,ho
angle_coeff	13 ba    0.00000    0.00000    1.72000    1.72000  # cp,sf,cp
angle_coeff	14 ba    0.00000    0.00000    1.72000    1.43080  # cp,sf,o=
angle_coeff	15 ba   18.10300   18.10300    1.10100    1.10100  # hc,c,hc
angle_coeff	16 ba    0.00000    0.00000    1.43080    1.43080  # o=,sf,o=

# Dihedral Coeffs

dihedral_coeff	 1    0.00000    0.00000    0.03160    0.00000   -0.16810    0.00000  # c,c,c,hc
dihedral_coeff	 2   -0.28020    0.00000   -0.06780    0.00000   -0.01220    0.00000  # c,c,cp,cp
dihedral_coeff	 3    0.00000    0.00000    4.40720    0.00000    0.00000    0.00000  # c,cp,cp,cp
dihedral_coeff	 4    0.00000    0.00000    1.55900    0.00000    0.00000    0.00000  # c,cp,cp,hc
dihedral_coeff	 5   -0.02280    0.00000    0.02800    0.00000   -0.18630    0.00000  # cp,c,c,hc
dihedral_coeff	 6   -0.28020    0.00000   -0.06780    0.00000   -0.01220    0.00000  # cp,c,cp,cp
dihedral_coeff	 7    8.36670    0.00000    1.19320    0.00000    0.00000    0.00000  # cp,cp,cp,cp
dihedral_coeff	 8    0.00000    0.00000    3.96610    0.00000    0.00000    0.00000  # cp,cp,cp,hc
dihedral_coeff	 9    0.00000    0.00000    4.84980    0.00000    0.00000    0.00000  # cp,cp,cp,oc
dihedral_coeff	10    0.00000    0.00000    4.84980    0.00000    0.00000    0.00000  # cp,cp,cp,oh
dihedral_coeff	11    0.00000    0.00000    3.00000    0.00000    0.00000    0.00000  # cp,cp,cp,sf
dihedral_coeff	12    0.00000    0.00000    1.80000    0.00000    0.00000    0.00000  # cp,cp,oc,cp
dihedral_coeff	13   -0.69000    0.00000    0.50970    0.00000    0.00950    0.00000  # cp,cp,oh,ho
dihedral_coeff	14    0.00000    0.00000    1.50000    0.00000    0.00000    0.00000  # cp,cp,sf,cp
dihedral_coeff	15    0.00000    0.00000    1.50000    0.00000    0.00000    0.00000  # cp,cp,sf,o=
dihedral_coeff	16    0.00000    0.00000    1.87690    0.00000    0.00000    0.00000  # hc,cp,cp,hc
dihedral_coeff	17    0.00000    0.00000    1.72340    0.00000    0.00000    0.00000  # hc,cp,cp,oc
dihedral_coeff	18    0.00000    0.00000    1.72340    0.00000    0.00000    0.00000  # hc,cp,cp,oh
dihedral_coeff	19    0.00000    0.00000    3.00000    0.00000    0.00000    0.00000  # hc,cp,cp,sf

# MiddleBondTorsion Coeffs

dihedral_coeff	 1 mbt  -14.87900   -3.65810   -0.31380    1.53000  # c,c,c,hc
dihedral_coeff	 2 mbt    0.00000    0.00000    0.00000    1.50100  # c,c,cp,cp
dihedral_coeff	 3 mbt    0.00000    9.17920    0.00000    1.41700  # c,cp,cp,cp
dihedral_coeff	 4 mbt    0.00000    3.94210    0.00000    1.41700  # c,cp,cp,hc
dihedral_coeff	 5 mbt    0.00000    0.00000    0.00000    1.53000  # cp,c,c,hc
dihedral_coeff	 6 mbt    0.00000    0.00000    0.00000    1.50100  # cp,c,cp,cp
dihedral_coeff	 7 mbt   27.59890   -2.31200    0.00000    1.41700  # cp,cp,cp,cp
dihedral_coeff	 8 mbt    0.00000   -1.15210    0.00000    1.41700  # cp,cp,cp,hc
dihedral_coeff	 9 mbt    0.00000    4.82550    0.00000    1.41700  # cp,cp,cp,oc
dihedral_coeff	10 mbt    0.00000    4.82550    0.00000    1.41700  # cp,cp,cp,oh
dihedral_coeff	11 mbt    0.00000    0.00000    0.00000    1.41700  # cp,cp,cp,sf
dihedral_coeff	12 mbt    0.00000    0.00000    0.00000    1.37680  # cp,cp,oc,cp
dihedral_coeff	13 mbt    1.15800    3.26970    3.51320    1.37680  # cp,cp,oh,ho
dihedral_coeff	14 mbt    0.00000    0.00000    0.00000    1.72000  # cp,cp,sf,cp
dihedral_coeff	15 mbt    0.00000    0.00000    0.00000    1.72000  # cp,cp,sf,o=
dihedral_coeff	16 mbt    0.00000    4.82280    0.00000    1.41700  # hc,cp,cp,hc
dihedral_coeff	17 mbt    0.00000    5.54320    0.00000    1.41700  # hc,cp,cp,oc
dihedral_coeff	18 mbt    0.00000    5.54320    0.00000    1.41700  # hc,cp,cp,oh
dihedral_coeff	19 mbt    0.00000    0.00000    0.00000    1.41700  # hc,cp,cp,sf

# EndBondTorsion Coeffs

dihedral_coeff	 1 ebt    0.24860    0.24220   -0.09250    0.08140    0.05910    0.22190    1.53000    1.10100  # c,c,c,hc
dihedral_coeff	 2 ebt    0.00000    0.00000    0.00000    0.00000    0.00000    0.00000    1.53000    1.41700  # c,c,cp,cp
dihedral_coeff	 3 ebt    0.00000    0.24210    0.00000    0.00000   -0.69180    0.00000    1.50100    1.41700  # c,cp,cp,cp
dihedral_coeff	 4 ebt    0.00000   -1.79700    0.00000    0.00000   -0.48790    0.00000    1.50100    1.09820  # c,cp,cp,hc
dihedral_coeff	 5 ebt    0.00000    0.00000    0.00000    0.00000    0.00000    0.00000    1.50100    1.10100  # cp,c,c,hc
dihedral_coeff	 6 ebt    0.00000    0.00000    0.00000    0.00000    0.00000    0.00000    1.50100    1.41700  # cp,c,cp,cp
dihedral_coeff	 7 ebt   -0.11850    6.32040    0.00000   -0.11850    6.32040    0.00000    1.41700    1.41700  # cp,cp,cp,cp
dihedral_coeff	 8 ebt    0.00000   -6.89580    0.00000    0.00000   -0.46690    0.00000    1.41700    1.09820  # cp,cp,cp,hc
dihedral_coeff	 9 ebt    0.00000    0.26550    0.00000    0.00000    4.89050    0.00000    1.41700    1.37680  # cp,cp,cp,oc
dihedral_coeff	10 ebt    0.00000    0.26550    0.00000    0.00000    4.89050    0.00000    1.41700    1.37680  # cp,cp,cp,oh
dihedral_coeff	11 ebt    0.00000    0.00000    0.00000    0.00000    0.00000    0.00000    1.41700    1.72000  # cp,cp,cp,sf
dihedral_coeff	12 ebt    0.00000    0.00000    0.00000    0.00000    0.00000    0.00000    1.41700    1.37680  # cp,cp,oc,cp
dihedral_coeff	13 ebt    0.90000   -1.34560    1.19000    3.41320    0.58730   -0.13230    1.41700    0.96500  # cp,cp,oh,ho
dihedral_coeff	14 ebt    0.00000    0.00000    0.00000    0.00000    0.00000    0.00000    1.41700    1.72000  # cp,cp,sf,cp
dihedral_coeff	15 ebt    0.00000    0.00000    0.00000    0.00000    0.00000    0.00000    1.41700    1.43080  # cp,cp,sf,o=
dihedral_coeff	16 ebt    0.00000   -0.68900    0.00000    0.00000   -0.68900    0.00000    1.09820    1.09820  # hc,cp,cp,hc
dihedral_coeff	17 ebt    0.00000   -1.58670    0.00000    0.00000    4.26410    0.00000    1.09820    1.37680  # hc,cp,cp,oc
dihedral_coeff	18 ebt    0.00000   -1.58670    0.00000    0.00000    4.26410    0.00000    1.09820    1.37680  # hc,cp,cp,oh
dihedral_coeff	19 ebt    0.00000    0.00000    0.00000    0.00000    0.00000    0.00000    1.09820    1.72000  # hc,cp,cp,sf

# AngleTorsion Coeffs

dihedral_coeff	 1 at   -0.24540    0.00000   -0.11360    0.31130    0.45160   -0.19880  112.67000  110.77000  # c,c,c,hc
dihedral_coeff	 2 at    0.00000    0.00000    0.00000    0.00000    0.00000    0.00000  108.40000  120.05000  # c,c,cp,cp
dihedral_coeff	 3 at    0.00000   -4.46830    0.00000    0.00000    3.89870    0.00000  120.05000  118.90000  # c,cp,cp,cp
dihedral_coeff	 4 at    0.00000   -0.12420    0.00000    0.00000    3.46010    0.00000  120.05000  117.94000  # c,cp,cp,hc
dihedral_coeff	 5 at    0.00000    0.00000    0.00000    0.00000    0.00000    0.00000  108.40000  110.77000  # cp,c,c,hc
dihedral_coeff	 6 at    0.00000    0.00000    0.00000    0.00000    0.00000    0.00000  111.00000  120.05000  # cp,c,cp,cp
dihedral_coeff	 7 at    1.97670    1.02390    0.00000    1.97670    1.02390    0.00000  118.90000  118.90000  # cp,cp,cp,cp
dihedral_coeff	 8 at    0.00000    2.50140    0.00000    0.00000    2.71470    0.00000  118.90000  117.94000  # cp,cp,cp,hc
dihedral_coeff	 9 at    0.00000   10.01550    0.00000    0.00000    1.74040    0.00000  118.90000  123.42000  # cp,cp,cp,oc
dihedral_coeff	10 at    0.00000   10.01550    0.00000    0.00000    1.74040    0.00000  118.90000  123.42000  # cp,cp,cp,oh
dihedral_coeff	11 at    0.00000    0.00000    0.00000    0.00000    0.00000    0.00000  118.90000  120.00000  # cp,cp,cp,sf
dihedral_coeff	12 at    0.00000    0.00000    0.00000    0.00000    0.00000    0.00000  123.42000  109.50000  # cp,cp,oc,cp
dihedral_coeff	13 at   -5.13600   -1.01220    0.00000    4.68520    0.02300   -0.59800  123.42000  108.19000  # cp,cp,oh,ho
dihedral_coeff	14 at    0.00000    0.00000    0.00000    0.00000    0.00000    0.00000  120.00000  102.00000  # cp,cp,sf,cp
dihedral_coeff	15 at    0.00000    0.00000    0.00000    0.00000    0.00000    0.00000  120.00000  113.10000  # cp,cp,sf,o=
dihedral_coeff	16 at    0.00000    2.45010    0.00000    0.00000    2.45010    0.00000  117.94000  117.94000  # hc,cp,cp,hc
dihedral_coeff	17 at    0.00000    1.87290    0.00000    0.00000    2.57060    0.00000  117.94000  123.42000  # hc,cp,cp,oc
dihedral_coeff	18 at    0.00000    1.87290    0.00000    0.00000    2.57060    0.00000  117.94000  123.42000  # hc,cp,cp,oh
dihedral_coeff	19 at    0.00000    0.00000    0.00000    0.00000    0.00000    0.00000  117.94000  120.00000  # hc,cp,cp,sf

# AngleAngleTorsion Coeffs

dihedral_coeff	 1 aat  -16.16400  112.67000  110.77000  # c,c,c,hc
dihedral_coeff	 2 aat    0.00000  108.40000  120.05000  # c,c,cp,cp
dihedral_coeff	 3 aat  -14.40970  120.05000  118.90000  # c,cp,cp,cp
dihedral_coeff	 4 aat    4.44440  120.05000  117.94000  # c,cp,cp,hc
dihedral_coeff	 5 aat    0.00000  108.40000  110.77000  # cp,c,c,hc
dihedral_coeff	 6 aat    0.00000  111.00000  120.05000  # cp,c,cp,cp
dihedral_coeff	 7 aat    0.00000  118.90000  118.90000  # cp,cp,cp,cp
dihedral_coeff	 8 aat   -4.81410  118.90000  117.94000  # cp,cp,cp,hc
dihedral_coeff	 9 aat  -21.02470  118.90000  123.42000  # cp,cp,cp,oc
dihedral_coeff	10 aat  -21.02470  118.90000  123.42000  # cp,cp,cp,oh
dihedral_coeff	11 aat    0.00000  118.90000  120.00000  # cp,cp,cp,sf
dihedral_coeff	12 aat    0.00000  123.42000  109.50000  # cp,cp,oc,cp
dihedral_coeff	13 aat   -4.60720  123.42000  108.19000  # cp,cp,oh,ho
dihedral_coeff	14 aat    0.00000  120.00000  102.00000  # cp,cp,sf,cp
dihedral_coeff	15 aat    0.00000  120.00000  113.10000  # cp,cp,sf,o=
dihedral_coeff	16 aat    0.35980  117.94000  117.94000  # hc,cp,cp,hc
dihedral_coeff	17 aat    4.22960  117.94000  123.42000  # hc,cp,cp,oc
dihedral_coeff	18 aat    4.22960  117.94000  123.42000  # hc,cp,cp,oh
dihedral_coeff	19 aat    0.00000  117.94000  120.00000  # hc,cp,cp,sf

# BondBond13 Coeffs

dihedral_coeff	 1 bb13    0.00000    1.53000    1.10100  # c,c,c,hc
dihedral_coeff	 2 bb13    0.00000    1.53000    1.41700  # c,c,cp,cp
dihedral_coeff	 3 bb13    2.50850    1.50100    1.41700  # c,cp,cp,cp
dihedral_coeff	 4 bb13    0.87430    1.50100    1.09820  # c,cp,cp,hc
dihedral_coeff	 5 bb13    0.00000    1.50100    1.10100  # cp,c,c,hc
dihedral_coeff	 6 bb13    0.00000    1.50100    1.41700  # cp,c,cp,cp
dihedral_coeff	 7 bb13   53.00000    1.41700    1.41700  # cp,cp,cp,cp
dihedral_coeff	 8 bb13   -6.27410    1.41700    1.09820  # cp,cp,cp,hc
dihedral_coeff	 9 bb13   -2.24360    1.41700    1.37680  # cp,cp,cp,oc
dihedral_coeff	10 bb13   -2.24360    1.41700    1.37680  # cp,cp,cp,oh
dihedral_coeff	11 bb13    0.00000    1.41700    1.72000  # cp,cp,cp,sf
dihedral_coeff	12 bb13    0.00000    1.41700    1.37680  # cp,cp,oc,cp
dihedral_coeff	13 bb13    1.15900    1.41700    0.96500  # cp,cp,oh,ho
dihedral_coeff	14 bb13    0.00000    1.41700    1.72000  # cp,cp,sf,cp
dihedral_coeff	15 bb13    0.00000    1.41700    1.43080  # cp,cp,sf,o=
dihedral_coeff	16 bb13   -1.70770    1.09820    1.09820  # hc,cp,cp,hc
dihedral_coeff	17 bb13    2.05170    1.09820    1.37680  # hc,cp,cp,oc
dihedral_coeff	18 bb13    2.05170    1.09820    1.37680  # hc,cp,cp,oh
dihedral_coeff	19 bb13    0.00000    1.09820    1.72000  # hc,cp,cp,sf

# Improper Coeffs

improper_coeff	 1    0.00000    0.00000  # c,c,c,cp
improper_coeff	 2    0.00000    0.00000  # c,c,cp,cp
improper_coeff	 3    0.00000    0.00000  # c,c,hc,hc
improper_coeff	 4    0.00000    0.00000  # c,hc,hc,hc
improper_coeff	 5    7.81530    0.00000  # cp,c,cp,cp
improper_coeff	 6    4.89120    0.00000  # cp,cp,cp,hc
improper_coeff	 7   13.04210    0.00000  # cp,cp,cp,oc
improper_coeff	 8   13.04210    0.00000  # cp,cp,cp,oh
improper_coeff	 9    0.00000    0.00000  # cp,cp,cp,sf
improper_coeff	10    0.00000    0.00000  # sf,cp,cp,o=
improper_coeff	11    0.00000    0.00000  # sf,cp,o=,o=

# AngleAngle Coeffs

improper_coeff	 1 aa    0.00000    0.00000    0.00000  112.67000  108.40000  108.40000  # c,c,c,cp
improper_coeff	 2 aa    0.00000    0.00000    0.00000  108.40000  108.40000  111.00000  # c,c,cp,cp
improper_coeff	 3 aa    0.27380   -0.48250    0.27380  110.77000  110.77000  107.66000  # c,c,hc,hc
improper_coeff	 4 aa   -0.31570   -0.31570   -0.31570  107.66000  107.66000  107.66000  # c,hc,hc,hc
improper_coeff	 5 aa    0.00000    0.00000    0.00000  120.05000  120.05000  118.90000  # cp,c,cp,cp
improper_coeff	 6 aa    0.00000    0.00000    0.00000  118.90000  117.94000  117.94000  # cp,cp,cp,hc
improper_coeff	 7 aa    0.00000    0.00000    0.00000  118.90000  123.42000  123.42000  # cp,cp,cp,oc
improper_coeff	 8 aa    0.00000    0.00000    0.00000  118.90000  123.42000  123.42000  # cp,cp,cp,oh
improper_coeff	 9 aa    0.00000    0.00000    0.00000  118.90000  120.00000  120.00000  # cp,cp,cp,sf
improper_coeff	10 aa    0.00000    0.00000    0.00000  102.00000  113.10000  113.10000  # sf,cp,cp,o=
improper_coeff	11 aa    0.00000    0.00000    0.00000  113.10000  113.10000  119.32900  # sf,cp,o=,o=


# --- Thermo Output ---
thermo_style custom step time temp press enthalpy etotal ke pe ebond eangle edihed eimp evdwl ecoul vol lx ly lz density pxx pyy pzz
thermo_modify flush yes
thermo 1000

# --- Trajectory ---
dump dump_comp all custom 2000 npt_compress.dump id type mol x y z ix iy iz vx vy vz

restart 10000 compress_1.rst compress_2.rst
velocity all create 600.0 481627 mom yes rot yes dist gaussian
# SHAKE disabled

# --- NPT Compression ---
# High pressure compresses the cell from low to target density
# P ramp: 1.0 -> 50000.0 atm
timestep 0.5
fix npt_comp all npt temp 780.0 780.0 100.0 iso 1.0 50000.0 1000.0

run 500000
Generated 28 of 28 mixed pair_coeff terms from sixthpower/sixthpower mixing rule
Neighbor list info ...
  update: every = 1 steps, delay = 0 steps, check = yes
  max neighbors/atom: 4000, page size: 100000
  master list distance cutoff = 11.5
  ghost atom cutoff = 11.5
  binsize = 11.5, bins = 6 6 6
  1 neighbor lists, perpetual/occasional/extra = 1 0 0
  (1) pair lj/class2/coul/cut/kk, perpetual
      attributes: full, newton off, kokkos_device
      pair build: full/bin/kk/device
      stencil: full/bin/3d
      bin: kk/device
Per MPI rank memory allocation (min/avg/max) = 41.29 | 41.29 | 41.29 Mbytes
   Step          Time           Temp          Press         Enthalpy        TotEng         KinEng         PotEng         E_bond        E_angle        E_dihed        E_impro         E_vdwl         E_coul         Volume           Lx             Ly             Lz          Density          Pxx            Pyy            Pzz      
         0   0              600           -2182.4373      45365.1        52911.412      19342.476      33568.935      10453.446      9526.4613      7727.0349      1000.454       3370.1391      1491.4003      237092.09      61.892642      61.892642      61.892642      0.61999999    -1676.6111     -2169.899      -2700.8017    
      1000   500            779.22578     -34.675871      58904.802      59021.977      25120.26       33901.716      10585.981      9810.836       7798.8856      951.89938      3256.3213      1497.7927      231702.52      61.420062      61.420062      61.420062      0.63442165    -641.86324     -154.32064      692.15628    
      2000   1000           773.83412     -1372.1171      53544.016      58076.974      24946.447      33130.526      10485.328      9414.0279      7819.8586      972.85897      3048.6166      1389.836       226524.2       60.959052      60.959052      60.959052      0.64892445    -1243.1901     -1308.546      -1564.6153    
      3000   1500           775.88694      117.08103      58479.862      58102.949      25012.625      33090.325      10337.478      9763.809       7560.0993      937.4341       3029.4995      1462.0042      220738.44      60.435575      60.435575      60.435575      0.66593336     423.62257      336.49766     -408.87714    
      4000   2000           781.47669     -364.29315      57221.569      58360.242      25192.824      33167.418      10400.446      9600.3248      7661.3366      941.35362      2999.8128      1564.1449      214324.78      59.844484      59.844484      59.844484      0.6858614      576.42228     -1492.7447     -176.55709    
      5000   2500           786.81845     -1589.6233      53795.731      58625.36       25365.029      33260.331      10450.015      9383.7477      7912.1402      982.53568      2953.736       1578.1566      208326.08      59.280867      59.280867      59.280867      0.7056106     -1355.97       -1451.8669     -1961.0332    
      6000   3000           779.34094      1125.003       61944.45       58624.83       25123.973      33500.857      10859.966      9443.9646      7627.2841      972.70108      2899.2352      1697.706       202329.34      58.706514      58.706514      58.706514      0.72652384     1395.9515      1414.1319      564.92569    
      7000   3500           775.30156     -133.2217       57734.808      58116.843      24993.754      33123.089      10538.061      9363.1696      7896.6796      980.01941      2741.2762      1603.8834      196630.89      58.150116      58.150116      58.150116      0.74757883     361.16434      1078.6519     -1839.4814    
      8000   4000           773.4555       1253.0099      61267.341      57775.74       24934.241      32841.499      10459.186      9473.7831      7430.6243      924.92003      2899.3104      1653.675       191070.73      57.59676       57.59676       57.59676       0.76933337     1386.02        1068.1457      1304.864     
      9000   4500           779.67295      690.20997      59907.725      58041.302      25134.676      32906.626      10411.776      9448.5919      7534.4037      970.06173      2832.732       1709.0605      185418.4       57.023115      57.023115      57.023115      0.79278591     477.90788      846.79182      745.93021    
     10000   5000           781.90716      11.171622      58452.716      58423.348      25206.701      33216.647      10418.74       9534.2226      7825.718       951.3128       2723.0567      1763.5964      180252.44      56.488545      56.488545      56.488545      0.81550678     97.799565     -1138.4191      1074.1344    
     11000   5500           785.63875      1925.5653      63132.418      58214.532      25326.998      32887.534      10650.685      9488.5831      7663.2598      963.62134      2583.8059      1537.5792      175123.44      55.947596      55.947596      55.947596      0.83939128     2549.7655      2035.6066      1191.3238    
     12000   6000           782.33008      769.05173      59568.81       57661.077      25220.335      32440.742      10322.271      9447.9098      7642.2264      963.01226      2532.5741      1532.7491      170092.89      55.406671      55.406671      55.406671      0.86421654     2195.7928     -546.65155      658.01399    
     13000   6500           774.85438      371.7985       58785.275      57885.634      24979.338      32906.296      10565.13       9548.4485      7704.4473      971.9549       2402.746       1713.5692      165915.1       54.949275      54.949275      54.949275      0.88597779     1079.7858      40.691123     -5.0814465    
     14000   7000           774.5883      -116.33172      57555.197      57828.061      24970.76       32857.301      10524.488      9484.0534      7791.779       979.4194       2385.8929      1691.6688      160831.86      54.382274      54.382274      54.382274      0.91397991    -381.39621      1006.6214     -974.22036    
     15000   7500           780.04521      1784.9242      61306.369      57228.324      25146.677      32081.647      10325.218      9380.1971      7511.0812      972.25524      2254.5554      1638.3408      156659.35      53.907862      53.907862      53.907862      0.93832315     2693.6835      1336.1803      1324.9089    
     16000   8000           785.13603      879.45213      59584.477      57618.58       25310.792      32307.788      10341.426      9349.5678      7881.0136      951.96858      2090.8367      1692.9747      153275.49      53.516895      53.516895      53.516895      0.95903846     1943.5123      340.22267      354.62142    
     17000   8500           779.29858     -180.16655      57083.594      57477.455      25122.607      32354.847      10163.195      9538.8538      7981.003       979.95425      2011.9927      1679.8489      149897.03      53.120767      53.120767      53.120767      0.98065382    -2140.393       833.59925      766.29412    
     18000   9000           773.24113      2457.4474      62161.754      56907.727      24927.33       31980.397      10354.777      9615.7901      7661.9358      978.92749      1899.6601      1469.3054      146599.39      52.728335      52.728335      52.728335      1.0027128      300.26055      2339.0629      4733.0188    
     19000   9500           776.42634      2485.2217      62631.699      57406.023      25030.014      32376.009      10517.215      9435.1766      7743.6089      956.84982      1950.978       1772.181       144178.83      52.436517      52.436517      52.436517      1.019547       3027.6423      2065.6416      2362.3813    
     20000   10000          784.49652      2290.9954      62200.218      57426.893      25290.176      32136.717      10180.499      9668.7065      7860.9563      941.55174      1957.1683      1527.8345      142863.39      52.276557      52.276557      52.276557      1.0289347      2515.3802      2916.958       1440.6479    
     21000   10500          787.21343      882.29608      59013.373      57197.673      25377.762      31819.911      10364.536      9368.6809      7792.8008      960.54042      1797.7138      1535.6394      141108.67      52.061647      52.061647      52.061647      1.0417297     -448.40041      2190.1908      905.09785    
     22000   11000          777.88041      1232.1927      59818.046      57300.524      25076.889      32223.635      10198.013      9492.657       8000.8177      958.00568      1761.2436      1812.8981      140093.72      51.936524      51.936524      51.936524      1.0492768      3711.0768     -895.20358      880.70486    
     23000   11500          775.043        2880.4873      62699.491      56888.288      24985.418      31902.87       10216.305      9562.4339      7868.043       984.99945      1748.3832      1522.7049      138332.49      51.717961      51.717961      51.717961      1.0626361      1279.1925      4371.1579      2991.1115    
     24000   12000          774.5486       2137.2365      60979.347      56701.021      24969.48       31731.54       10158.823      9586.4495      7749.7171      1004.9029      1640.9683      1590.6797      137260.45      51.584015      51.584015      51.584015      1.0709355      1931.6688      1691.4648      2788.576     
     25000   12500          787.31482      3194.2606      63425.346      57078.336      25381.031      31697.305      10421.33       9350.3912      7661.1647      943.52104      1610.3383      1710.5602      136245.74      51.456587      51.456587      51.456587      1.0789115      2189.7855      4735.1332      2657.863     
     26000   13000          772.89179      2558.4783      61149.64       56118.309      24916.069      31202.24       10180.998      9440.8011      7666.0784      958.05176      1537.0698      1419.2415      134842.02      51.279261      51.279261      51.279261      1.090143       4019.7523      2072.6879      1582.9947    
     27000   13500          774.87336      2754.7029      61754.749      56389.522      24979.949      31409.573      10268.521      9432.7057      7716.4337      962.7208       1553.8141      1475.3778      133548         51.114698      51.114698      51.114698      1.1007061      3235.4824      2435.9117      2592.7144    
     28000   14000          778.7481       3634.1352      63521.897      56474.996      25104.861      31370.134      10338.073      9356.7543      7692.4525      957.93741      1545.5418      1479.3752      132960.06      51.039577      51.039577      51.039577      1.1055733      3199.4297      3901.0363      3801.9397    
     29000   14500          786.65659      3910.143       64229.181      56685.971      25359.811      31326.16       10419.788      9321.5511      7740.2595      939.69388      1427.9177      1476.9499      132278.02      50.952156      50.952156      50.952156      1.1112738      3288.864       4088.3909      4353.1741    
     30000   15000          781.38087      2712.8253      62183.905      56984.986      25189.735      31795.251      10436.618      9781.4745      7813.7039      957.20638      1318.2061      1488.0421      131406.04      50.839949      50.839949      50.839949      1.1186479      2668.95        3979.4459      1490.08      
     31000   15500          783.22257      3063.8149      62515.567      56642.187      25249.107      31393.08       10219.703      9704.647       7651.3653      926.72281      1354.5361      1536.1059      131446.7       50.845192      50.845192      50.845192      1.1183019      2308.5352      2754.332       4128.5775    
     32000   16000          783.92674      2812.4322      62170.322      56815.27       25271.808      31543.462      10447.914      9399.2069      7843.2671      945.51996      1374.2069      1533.3473      130558.68      50.730435      50.730435      50.730435      1.1259082      1603.9846      4733.7293      2099.5826    
     33000   16500          780.27189      2902.4679      62099.614      56580.836      25153.985      31426.852      10252.79       9467.5329      7802.2148      960.73223      1352.7797      1590.8024      130376.57      50.706837      50.706837      50.706837      1.1274809      4225.4891      2679.6459      1802.2687    
     34000   17000          774.48224      5582.347       66881.156      56331.889      24967.341      31364.548      10317.742      9496.5833      7633.3838      946.74849      1393.6845      1576.4064      129577.5       50.603031      50.603031      50.603031      1.1344338      6511.4586      4174.8749      6060.7073    
     35000   17500          778.41098      3726.6142      63464.69       56426.608      25093.993      31332.614      10272.013      9477.641       7686.84        975.96685      1421.7695      1498.3845      129498.29      50.592718      50.592718      50.592718      1.1351277      4627.1871      2706.4494      3846.2063    
     36000   18000          779.17874      3667.0995      63488.644      56636.763      25118.744      31518.019      10418.413      9581.909       7774.5419      967.66299      1327.8798      1447.6128      128118.31      50.412365      50.412365      50.412365      1.1473543      3402.9996      4377.669       3220.6297    
     37000   18500          780.6872       2608.9651      61675.251      56799.387      25167.373      31632.014      10517.894      9680.9821      7901.2378      976.78544      1156.9861      1398.1291      128146.69      50.416086      50.416086      50.416086      1.1471002      3073.734       2994.7178      1758.4435    
     38000   19000          784.24674      1417.7058      59068.734      56421.687      25282.123      31139.564      10431.976      9659.1697      7771.6964      955.70527      1116.0127      1205.0036      128026.4       50.400307      50.400307      50.400307      1.1481779      3102.9498      724.4876       425.68       
     39000   19500          779.00743      5533.5852      66507.901      56270.995      25113.221      31157.773      10514.978      9546.0279      7511.4683      932.63043      1244.5398      1408.1287      126848.77      50.245297      50.245297      50.245297      1.1588374      4380.6109      6135.965       6084.1798    
     40000   20000          775.76649      4596.8898      65022.65       56532.079      25008.742      31523.337      10282.937      9510.9844      7752.2458      1002.3896      1181.6839      1793.0963      126647.6       50.218722      50.218722      50.218722      1.1606781      6148.6955      4309.0977      3332.8763    
     41000   20500          775.69         4680.2597      64731.718      56029.424      25006.276      31023.148      10379.574      9431.7507      7686.7475      973.87212      1148.969       1402.234       127493.48      50.330277      50.330277      50.330277      1.1529774      4401.6618      5213.9717      4425.1456    
     42000   21000          781.16374      4935.2818      65207.899      56130.575      25182.735      30947.84       10515.876      9370.7365      7574.0424      951.34346      1114.9592      1420.882       126115.94      50.148351      50.148351      50.148351      1.1655711      3896.6492      6727.0136      4182.1824    
     43000   21500          778.87346      4621.9447      64564.334      56114.539      25108.903      31005.636      10244.046      9521.8498      7725.4672      966.46655      1181.3177      1366.489       125356.12      50.047438      50.047438      50.047438      1.1726359      4560.4704      5160.5646      4144.7992    
     44000   22000          782.89393      4951.0542      65630.904      56580.903      25238.512      31342.391      10470.878      9583.1311      7605.9209      1010.2063      1072.6298      1599.6251      125335.77      50.04473       50.04473       50.04473       1.1728263      4598.9649      3625.2899      6628.9079    
     45000   22500          782.88636      5846.9274      67122.836      56459.648      25238.268      31221.38       10464.135      9589.1508      7627.4645      961.97749      1136.9102      1441.7423      125049.93      50.006657      50.006657      50.006657      1.1755071      5448.9556      7515.1899      4576.6368    
     46000   23000          782.73676      6246.492       67643.03       56310.145      25233.446      31076.7        10462.749      9587.0649      7475.3369      946.68804      1120.5154      1484.3458      124402.29      49.920178      49.920178      49.920178      1.1816269      6286.4616      6740.1859      5712.8287    
     47000   23500          778.08072      5929.1212      66944.147      56112.517      25083.347      31029.17       10446.829      9618.0032      7464.6291      1001.0095      1059.3452      1439.3538      125264.38      50.035226      50.035226      50.035226      1.1734947      6175.6872      5587.6539      6024.0226    
     48000   24000          774.05756      6634.9012      67819.744      55843.713      24953.65       30890.063      10375.905      9522.0201      7600.9723      982.14744      1095.3131      1313.7048      123766.34      49.834968      49.834968      49.834968      1.1876984      7084.2139      6989.925       5830.5645    
     49000   24500          783.04728      4333.129       64305.099      56467.385      25243.456      31223.929      10609.282      9454.7688      7620.9886      946.36278      1026.8139      1565.7127      124025.77      49.869764      49.869764      49.869764      1.1852141      4754.8718      3547.7257      4696.7895    
     50000   25000          793.48336      4033.5755      64337.058      57075.507      25579.889      31495.619      10405.475      9611.0446      7812.0666      990.27076      1010.3471      1666.4145      123442.1       49.791411      49.791411      49.791411      1.1908181      5372.0265      4782.925       1945.7749    
     51000   25500          786.94182      6075.0846      67334.409      56443.31       25369.006      31074.304      10501.589      9602.8013      7529.456       962.34802      1146.4904      1331.6195      122925.92      49.721912      49.721912      49.721912      1.1958185      5127.984       4765.5097      8331.7601    
     52000   26000          785.19203      5895.6569      66615.925      56011.794      25312.597      30699.196      10463.002      9553.6592      7391.083       974.91346      1054.0061      1262.5326      123329.51      49.776268      49.776268      49.776268      1.1919053      5213.6654      6495.9762      5977.3292    
     53000   26500          783.70677      5660.507       66501.912      56330.758      25264.716      31066.041      10337.434      9451.9518      7599.6222      931.56107      1105.1606      1640.3121      123208.03      49.75992       49.75992       49.75992       1.1930804      5215.4518      6828.0487      4938.0204    
     54000   27000          772.79135      6067.3844      66754.794      55956.092      24912.831      31043.261      10373.824      9424.7545      7564.5642      947.01936      1143.1891      1589.9105      122037.74      49.60187       49.60187       49.60187       1.2045216      5341.685       6135.7017      6724.7665    
     55000   27500          786.10568      4749.1492      64945.586      56462.678      25342.051      31120.628      10205.965      9528.9202      7912.8397      999.87877      1028.7083      1444.3159      122476.57      49.661253      49.661253      49.661253      1.2002058      7304.9517      3522.5159      3419.9799    
     56000   28000          776.44673      5481.3842      66157.331      56376.915      25030.671      31346.244      10519.209      9604.7133      7737.0281      1039.1583      1148.2885      1297.847       122346.4       49.643653      49.643653      49.643653      1.2014828      4444.6413      5210.0297      6789.4815    
     57000   28500          782.68463      6489.7102      67537.567      56078.234      25231.765      30846.469      10376.887      9736.2014      7430.8214      960.32181      940.17421      1402.0636      121076.02      49.47123       49.47123       49.47123       1.2140892      6155.5203      6822.684       6490.9263    
     58000   29000          770.99376      5131.9635      65093.304      55974.55       24854.881      31119.669      10316.49       9690.293       7682.4083      970.98447      911.07092      1548.4223      121836.12      49.574539      49.574539      49.574539      1.2065149      8527.3318      3690.6782      3177.8805    
     59000   29500          781.23382      7813.9484      69936.327      56083.74       25184.995      30898.745      10467.48       9450.3295      7457.14        964.04531      1129.7698      1429.9811      121558.25      49.536823      49.536823      49.536823      1.2092729      8132.2666      7526.2035      7783.3753    
     60000   30000          785.31064      7544.5776      69526.365      56184.853      25316.421      30868.432      10187.839      9407.6363      7801.4716      996.29568      1020.1734      1455.0164      121253.49      49.49539       49.49539       49.49539       1.2123123      6143.7669      8186.0289      8303.937     
     61000   30500          790.77821      4427.4728      64339.365      56513.477      25492.681      31020.795      10299.395      9579.9822      7817.3868      987.86584      972.46065      1363.7049      121199.78      49.488081      49.488081      49.488081      1.2128495      5712.8151      3709.8497      3859.7535    
     62000   31000          777.14816      5639.0297      65871.124      55920.517      25053.283      30867.233      10478.4        9524.4711      7753.1976      1000.4135      882.3309       1228.42        120995.53      49.460265      49.460265      49.460265      1.2148969      6547.6305      5404.9021      4964.5564    
     63000   31500          773.41856      6595.3287      67200.381      55564.311      24933.051      30631.261      10307.756      9435.769       7542.079       921.22431      1188.8951      1235.5373      120974.54      49.457405      49.457405      49.457405      1.2151077      7313.6718      6658.6212      5813.693     
     64000   32000          785.45096      5286.9177      65607.229      56244.172      25320.945      30923.227      10301.136      9473.0292      7707.9327      988.57761      969.08704      1483.4647      121433.71      49.5199        49.5199        49.5199        1.210513       6128.8894      5085.3386      4646.525     
     65000   32500          776.20715      5776.9998      66067.857      55975.288      25022.947      30952.341      10346.356      9491.2432      7745.0686      976.98284      931.69144      1460.9986      119790.8       49.295562      49.295562      49.295562      1.227115       7363.9409      4327.9322      5639.1263    
     66000   33000          778.03494      4936.0989      64404.651      55733.404      25081.871      30651.533      10252.752      9328.034       7805.3811      968.4184       918.52188      1378.4266      120454.16      49.386388      49.386388      49.386388      1.2203571      4576.0682      5272.5193      4959.7091    
     67000   33500          782.10087      7234.997       69329.93       56677.143      25212.946      31464.197      10546.58       9671.7974      7819.4686      1028.6538      1066.5952      1331.1024      119914.57      49.312534      49.312534      49.312534      1.2258485      7389.7211      7634.3697      6680.9002    
     68000   34000          785.98164      7904.7971      70401.24       56562.162      25338.052      31224.11       10452.731      9639.836       7632.8666      935.13815      974.92681      1588.6109      120044.03      49.330273      49.330273      49.330273      1.2245265      8265.1785      10465.488      4983.7251    
     69000   34500          781.71386      6817.2234      67989.167      56125.17       25200.47       30924.7        10363.621      9555.3082      7656.9756      980.22938      966.13453      1402.4308      119329.45      49.232196      49.232196      49.232196      1.2318593      7140.6887      7459.164       5851.8175    
     70000   35000          777.31768      5907.5932      66770.723      56479.439      25058.748      31420.691      10522.728      9714.7229      7760.2152      980.05452      978.84287      1464.1276      119449.15      49.248653      49.248653      49.248653      1.2306248      5466.338       5529.3509      6727.0906    
     71000   35500          778.59825      7142.0379      68645.311      56203.08       25100.031      31103.049      10593.632      9479.0075      7504.643       949.25851      1181.9845      1394.5235      119453.87      49.249302      49.249302      49.249302      1.2305762      9113.7574      6238.804       6073.5522    
     72000   36000          773.66041      9490.3702      72620.403      56042.284      24940.847      31101.437      10362.483      9671.993       7596.1004      958.57823      1117.351       1394.9318      119777.77      49.293774      49.293774      49.293774      1.2272486      11062.676      10340.697      7067.7381    
     73000   36500          786.4826       8361.6189      70679.011      56254.597      25354.202      30900.395      10700.579      9580.6941      7437.6317      957.17698      1043.8033      1180.5106      118285.61      49.088223      49.088223      49.088223      1.2427301      8891.0475      8952.9515      7240.8577    
     74000   37000          781.21343      7735.3291      69856.271      56418.94       25184.337      31234.603      10595.971      9729.7504      7770.4435      987.90152      1007.5676      1142.9685      119112.77      49.202379      49.202379      49.202379      1.2341002      7669.2346      6911.3551      8625.3976    
     75000   37500          778.38391      8377.1971      70221.864      55735.098      25093.121      30641.977      10335.857      9389.892       7690.9671      965.18524      1070.2282      1189.8477      118576.01      49.128361      49.128361      49.128361      1.2396866      9039.5759      7264.3261      8827.6894    
     76000   38000          772.68397      6457.2369      67445.147      56338.449      24909.369      31429.08       10763.394      9657.6483      7729.2137      959.723        993.5773       1325.523       117940.33      49.040413      49.040413      49.040413      1.2463683      4800.6939      6110.8988      8460.1179    
     77000   38500          785.58926      6342.5703      67024.423      56071.732      25325.403      30746.329      10243.919      9588.3313      7775.1681      977.02634      933.77792      1228.1067      118407.62      49.105095      49.105095      49.105095      1.2414496      4415.8331      5363.0614      9248.8166    
     78000   39000          783.6125       8902.5969      71319.818      55993.718      25261.677      30732.04       10481.064      9586.35        7528.7392      962.36964      978.13703      1195.3807      118042.68      49.054594      49.054594      49.054594      1.2452877      10046.939      8207.5266      8453.3256    
     79000   39500          773.95035      8334.4564      69871.173      55514.074      24950.194      30563.88       10384.77       9389.5008      7530.6782      988.55516      982.61165      1287.7639      118117.3       49.064929      49.064929      49.064929      1.2445009      9200.8187      8173.3848      7629.1658    
     80000   40000          768.96611      7156.8759      67817.717      55581.762      24789.515      30792.248      10434.557      9435.8118      7644.9316      1000.6416      1039.751       1236.5547      117229.92      48.94175       48.94175       48.94175       1.2539212      6314.2154      7673.2375      7483.1749    
     81000   40500          778.24489      8148.847       70128.553      56123.362      25088.639      31034.723      10354.166      9473.3473      7727.1191      977.8346       987.59891      1514.6567      117846.58      49.027416      49.027416      49.027416      1.2473598      7960.6705      8154.2753      8331.5952    
     82000   41000          785.9659       7980.2527      69942.763      56244.153      25337.545      30906.608      10284.818      9682.3463      7682.3117      977.2981       1044.3585      1235.4752      117702.04      49.007362      49.007362      49.007362      1.2488916      6526.5112      8185.4047      9228.8423    
     83000   41500          782.4804       7111.641       68473.421      56331.003      25225.181      31105.822      10414.704      9635.1436      7869.5781      1021.7632      969.41877      1195.2137      117073.74      48.920005      48.920005      48.920005      1.2555941      7541.9483      8381.3513      5411.6233    
     84000   42000          782.55188      9895.7937      73152.878      56243.033      25227.486      31015.548      10226.187      9563.6838      7645.3756      958.75109      1050.6345      1570.9161      117169.1       48.933284      48.933284      48.933284      1.2545722      11547.184      9231.8495      8908.347     
     85000   42500          778.48763      10028.562      72856.616      55703.472      25096.464      30607.008      10621.44       9519.0889      7340.7511      945.98556      982.61029      1197.1318      117281.41      48.948914      48.948914      48.948914      1.2533708      9290.8996      11163.394      9631.3923    
     86000   43000          771.71611      8828.9219      70714.317      55700.42       24878.168      30822.252      10142.159      9533.4418      7775.8481      1029.4986      972.00235      1369.3027      116603.04      48.854355      48.854355      48.854355      1.2606627      10060.915      7840.8543      8584.9963    
     87000   43500          776.90443      8530.29        70172.819      55686.474      25045.426      30641.048      10235.677      9445.2584      7593.7338      966.28213      990.73914      1409.3575      116444.54      48.832209      48.832209      48.832209      1.2623786      6340.842       9359.6013      9890.4268    
     88000   44000          784.39697      8805.827       70918.458      55970.907      25286.967      30683.94       10447.617      9403.138       7545.9729      977.37527      906.36827      1403.4691      116392.24      48.824897      48.824897      48.824897      1.2629458      7940.0772      9912.374       8565.0299    
     89000   44500          778.25217      8950.2912      71119.252      55984.089      25088.874      30895.215      10607.457      9442.3495      7816.8342      974.41299      954.17865      1099.9829      115950.88      48.763104      48.763104      48.763104      1.2677532      7867.6269      9717.7954      9265.4512    
     90000   45000          778.40117      8346.8874      70346.526      56265.634      25093.677      31171.957      10279.21       9604.1586      7938.1693      975.78098      876.73966      1497.8988      115672.39      48.724034      48.724034      48.724034      1.2708053      11488.48       6669.9305      6882.2514    
     91000   45500          773.292        8559.0513      70185.208      55698.707      24928.97       30769.737      10554.465      9462.0324      7637.6209      971.11316      799.65707      1344.8481      116054.5       48.777626      48.777626      48.777626      1.2666212      7770.7553      12403.608      5502.7902    
     92000   46000          778.13096      9574.742       72032.677      55953.837      25084.966      30868.871      10520.958      9612.7914      7558.7133      980.80702      954.64281      1240.9583      115146.76      48.650119      48.650119      48.650119      1.2766064      9429.0716      10758.882      8536.2729    
     93000   46500          791.02894      8414.7184      70543.686      56305.975      25500.764      30805.21       10468.971      9359.9471      7805.5832      971.15334      908.78617      1290.7692      116017.82      48.772487      48.772487      48.772487      1.2670217      8031.3614      7458.9474      9753.8463    
     94000   47000          781.84707      9943.7338      72619.098      55990.123      25204.764      30785.359      10526.152      9516.9191      7614.2857      987.20749      1087.9302      1052.865       114667.44      48.58252       48.58252       48.58252       1.2819428      9223.0873      10843.71       9764.4045    
     95000   47500          784.42281      11444.296      75291.184      55963.707      25287.8        30675.908      10472.84       9425.1957      7591.6357      995.92105      1078.8284      1111.4866      115800.43      48.742006      48.742006      48.742006      1.2694002      13182.022      11391.63       9759.2368    
     96000   48000          772.73498      9330.7509      70936.861      55286.247      24911.014      30375.234      10333.487      9507.1397      7581.8506      967.79425      951.05914      1033.9029      115010.87      48.630973      48.630973      48.630973      1.2781148      7861.1638      9670.2765      10460.813    
     97000   48500          786.32136      9871.3217      72702.699      56094.131      25349.004      30745.127      10588.802      9398.4848      7382.1966      965.8905       949.95308      1459.8002      115366.84      48.681094      48.681094      48.681094      1.2741711      10952.727      9462.4658      9198.7728    
     98000   49000          783.44409      10637.871      74096.296      56309.551      25256.248      31053.303      10458.638      9757.9135      7485.7851      958.40182      1006.1742      1386.3907      114647.84      48.579751      48.579751      48.579751      1.2821619      10929.804      9981.4204      11002.39     
     99000   49500          786.16775      11020.569      74944.156      56524.434      25344.052      31180.382      10579.027      9421.251       7640.1448      974.79235      1144.1183      1421.048       114604.89      48.573685      48.573685      48.573685      1.2826424      10411.812      9659.2356      12990.66     
    100000   50000          789.10677      10645.792      74374.342      56598.622      25438.799      31159.823      10615.139      9600.6752      7540.4475      1007.4536      1095.3043      1300.804       114491.53      48.557664      48.557664      48.557664      1.2839124      10745.633      12648.661      8543.0807    
    101000   50500          772.10852      9724.6211      72250.538      56056.811      24890.818      31165.993      10586.075      9670.0445      7645.2984      979.47127      959.18985      1325.9134      114182.15      48.513888      48.513888      48.513888      1.2873911      10753.805      9000.8199      9419.2382    
    102000   51000          786.69194      10739.499      73821.303      55809.339      25360.951      30448.388      10480.683      9495.0909      7212.3181      921.65996      1054.8329      1283.8037      115000.88      48.629566      48.629566      48.629566      1.2782258      10140.433      11413.868      10664.195    
    103000   51500          780.12563      10349.219      72800.894      55639.162      25149.269      30489.893      10290.746      9571.8817      7487.8291      962.0248       1155.9296      1021.4824      113704.5       48.446144      48.446144      48.446144      1.2927993      12883.999      8294.6374      9869.0192    
    104000   52000          787.99609      9378.6702      71791.853      56196.56       25402.993      30793.567      10299.408      9614.481       7771.54        957.44488      1078.7637      1071.9289      114018.78      48.490738      48.490738      48.490738      1.2892358      10250.398      9922.9032      7962.709     
    105000   52500          785.5239       8767.4621      71033.306      56436.411      25323.296      31113.115      10480.04       9419.1828      7802.6878      973.08774      946.93568      1491.1812      114159.15      48.510629      48.510629      48.510629      1.2876506      10338.354      9517.0157      6447.0163    
    106000   53000          785.69247      11748.757      75668.03       56251.669      25328.73       30922.939      10100.579      9726.5497      7624.693       1023.576       1012.0749      1435.4668      113318.29      48.391231      48.391231      48.391231      1.2972054      11348.276      11957.976      11940.02     
    107000   53500          784.28088      10357.164      73083.517      55921.905      25283.224      30638.681      10260.446      9442.9358      7561.8361      994.38704      957.09999      1421.9757      113616.48      48.43364       48.43364       48.43364       1.2938008      11689.506      9336.2424      10045.744    
    108000   54000          772.51249      10266.691      72881.749      55877.633      24903.841      30973.792      10344.433      9570.8248      7700.2424      968.63515      1000.9086      1388.7487      113565.83      48.426442      48.426442      48.426442      1.2943778      13914.171      8738.4764      8147.4247    
    109000   54500          784.37403      11783.086      75610.881      56202.049      25286.227      30915.822      10360.627      9592.7721      7649.6153      985.04955      1118.364       1209.3941      112944.33      48.337941      48.337941      48.337941      1.3015004      12545.095      11640.41       11163.754    
    110000   55000          782.47979      11227.826      74337.555      55781.165      25225.162      30556.004      10389.184      9409.5251      7659.4524      967.35124      958.96755      1171.5233      113324.01      48.392045      48.392045      48.392045      1.2971399      13576.686      10038.265      10068.527    
    111000   55500          770.16067      11040.441      73779.792      55468.71       24828.024      30640.686      10397.991      9617.4509      7496.3464      986.02567      1024.8055      1118.0664      113723.88      48.448897      48.448897      48.448897      1.2925789      12446.199      9950.7457      10724.378    
    112000   56000          775.82987      10431.656      72998.421      55820.709      25010.785      30809.924      10393.051      9598.0639      7705.4944      994.96391      987.07305      1131.2778      112910.98      48.333182      48.333182      48.333182      1.3018848      10783.238      11002.026      9509.705     
    113000   56500          782.06309      12918.545      77410.531      56030.042      25211.728      30818.314      10479.888      9402.572       7496.6152      1004.349       1171.3128      1263.5773      113482.3       48.414566      48.414566      48.414566      1.2953306      14826.94       12202.748      11725.948    
    114000   57000          785.30977      10420.982      73456.583      56340.732      25316.393      31024.339      10327.633      9720.5891      7716.1866      1016.1013      1047.6839      1196.1451      112619.59      48.291569      48.291569      48.291569      1.3052533      11267.65       10206.606      9788.689     
    115000   57500          786.89383      9920.1071      72783.867      56422.452      25367.459      31054.993      10339.944      9674.0174      7806.6489      1006.118       1048.1382      1180.1258      113091.15      48.358877      48.358877      48.358877      1.2998107      10721.219      10546.073      8493.0294    
    116000   58000          775.9089       11241.333      74572.983      56139.811      25013.333      31126.478      10313.362      9553.6812      7766.0682      963.27888      1111.415       1418.6729      112436.26      48.26535       48.26535       48.26535       1.3073816      10384.729      11714.858      11624.412    
    117000   58500          784.54767      12830.793      77180.375      56066.688      25291.825      30774.863      10277.769      9469.917       7732.5582      993.54552      996.28263      1304.7911      112832.62      48.321999      48.321999      48.321999      1.3027889      12772.004      12453.251      13267.126    
    118000   59000          789.496        13735.795      78913.226      56330.538      25451.346      30879.191      10587.764      9511.8664      7361.4502      960.74188      1209.9248      1247.4439      112731.67      48.307584      48.307584      48.307584      1.3039556      11711.592      16321.987      13173.807    
    119000   59500          776.8165       11405.285      74725.486      56040.271      25042.591      30997.68       10524.224      9653.859       7694.6916      945.76677      990.94526      1188.1926      112335.25      48.250893      48.250893      48.250893      1.3085571      12851.611      10678.977      10685.268    
    120000   60000          771.96391      11775.04       74970.715      55698.884      24886.156      30812.728      10230.43       9691.6996      7688.5916      988.14009      1065.6376      1148.2285      112223.73      48.23492       48.23492       48.23492       1.3098575      13650.153      12299.23       9375.7382    
    121000   60500          780.89165      13922.156      78400.847      55579.43       25173.964      30405.467      10322.723      9485.7102      7394.9549      981.07699      1182.2031      1038.7984      112398.42      48.259936      48.259936      48.259936      1.3078217      14098.243      14024.916      13643.309    
    122000   61000          767.22403      12011.566      74683.51       55189.161      24733.355      30455.806      10355.621      9458.769       7629.5972      969.77446      1151.9489      890.09537      111284.12      48.099925      48.099925      48.099925      1.320917       12669.065      10847.064      12518.568    
    123000   61500          783.5805       12589.84       76283.186      55598.791      25260.646      30338.145      10580.214      9353.46        7337.3005      969.45518      1076.7181      1020.9974      112654.02      48.29649       48.29649       48.29649       1.3048543      10569.344      14694.833      12505.342    
    124000   62000          771.02886      11830.608      75140.046      56013.712      24856.013      31157.699      10609.506      9648.2898      7626.4861      982.65027      1157.3655      1133.4017      110853.34      48.03778       48.03778       48.03778       1.3260502      12628.029      13299.476      9564.3202    
    125000   62500          776.66447      9538.9644      71338.27       55758.583      25037.69       30720.893      10414.622      9480.7186      7769.7051      987.59458      1114.0852      954.16816      111990.6       48.201497      48.201497      48.201497      1.3125841      9970.9446      9906.3578      8739.5906    
    126000   63000          781.96114      11389.305      74412.55       55870.257      25208.442      30661.816      10318.023      9313.4912      7576.9782      947.50497      1162.2531      1343.5648      111632.42      48.150054      48.150054      48.150054      1.3167958      12605.971      10264.22       11297.724    
    127000   63500          781.11386      13264.214      77165.344      55532.616      25181.127      30351.488      10396.029      9324.921       7543.0101      978.42588      997.07757      1112.0242      111828.85      48.17828       48.17828       48.17828       1.3144827      13835.146      13259.948      12697.549    
    128000   64000          771.94818      11797.38       74760.688      55632.147      24885.649      30746.498      10307.12       9566.0074      7534.9404      938.45381      1069.0467      1330.9292      111178.39      48.084687      48.084687      48.084687      1.3221732      10849.56       11587.848      12954.732    
    129000   64500          771.63347      13226.592      77251.311      55744.467      24875.504      30868.963      10523.657      9548.7859      7627.263       1000.3559      1191.1243      977.77691      111494.34      48.130194      48.130194      48.130194      1.3184264      14434.96       12074.466      13170.35     
    130000   65000          775.69287      13093.876      77293.664      56217.684      25006.368      31211.316      10648.103      9447.6595      7727.1368      993.19335      1228.5706      1166.653       110368.13      47.967589      47.967589      47.967589      1.3318799      14573.64       12875.564      11832.424    
    131000   65500          774.80438      11849.515      75206.769      55959.924      24977.726      30982.198      10550.905      9670.349       7569.9273      1016.0462      1209.2859      965.68491      111373.81      48.112844      48.112844      48.112844      1.3198533      13608.856      10400.375      11539.314    
    132000   66000          781.19129      9945.2564      72389.467      56314.936      25183.623      31131.313      10481.339      9576.1442      7913.005       993.60578      1019.254       1147.9648      110827.21      48.034006      48.034006      48.034006      1.3263628      11209.811      9150.9617      9474.9966    
    133000   66500          780.2919       12912.128      76853.269      55900.569      25154.629      30745.94       10352.082      9538.0726      7636.2072      987.97811      1093.7833      1137.8162      111266.98      48.097455      48.097455      48.097455      1.3211206      12668.151      12419.561      13648.671    
    134000   67000          776.16091      12176.888      75141.436      55492.305      25021.457      30470.849      10188.669      9413.2764      7599.5799      955.00715      1224.1291      1090.1869      110644.83      48.007642      48.007642      48.007642      1.3285491      11519.03       12554.681      12456.953    
    135000   67500          778.93692      12443.305      76021.048      55922.959      25110.948      30812.011      10241.22       9642.6008      7666.7573      978.51097      1156.8723      1126.0492      110749.84      48.022825      48.022825      48.022825      1.3272894      11856.644      13154.464      12318.807    
    136000   68000          789.17309      13774.137      78453.857      56272.479      25440.937      30831.542      10328.175      9548.2905      7569.6769      945.23111      1156.7201      1283.4483      110420.13      47.975122      47.975122      47.975122      1.3312527      14418.804      14476.053      12427.553    
    137000   68500          774.13161      12552.643      75988.885      55816.782      24956.037      30860.744      10275.12       9599.4202      7585.1852      970.07145      1155.1216      1275.8259      110189.47      47.941693      47.941693      47.941693      1.3340393      11056.381      13142.158      13459.389    
    138000   69000          775.28425      12599.212      76216.183      55922.745      24993.196      30929.549      10259.407      9469.8637      7737.3659      1019.471       1143.4364      1300.0051      110442.53      47.978366      47.978366      47.978366      1.3309826      13426.299      12640.611      11730.726    
    139000   69500          783.72145      13046.115      77378.302      56418.599      25265.189      31153.41       10352.56       9461.9284      7676.1735      963.42031      1223.0194      1476.3087      110161.04      47.93757       47.93757       47.93757       1.3343836      12462.028      12541.416      14134.9      
    140000   70000          782.01894      14976.615      79828.465      55840.653      25210.305      30630.348      10438.486      9476.2476      7499.5337      973.35358      1212.9023      1029.8249      109824.97      47.888771      47.888771      47.888771      1.338467       16227.558      13711.339      14990.948    
    141000   70500          786.58943      11272.386      74383.722      56130.109      25357.646      30772.463      10460.352      9660.0137      7541.9374      961.22975      1136.5963      1012.3341      111034.28      48.063903      48.063903      48.063903      1.3238892      10794.65       11444.518      11577.991    
    142000   71000          790.47148      16657.271      83430.17       56820.206      25482.793      31337.413      10470.911      9693.5963      7543.4881      977.94958      1476.4794      1174.9892      109537.93      47.847015      47.847015      47.847015      1.3419743      15441.432      16878.502      17651.879    
    143000   71500          785.7254       14165.274      78648.911      55841.919      25329.792      30512.127      10243.913      9516.6282      7573.319       991.9915       1305.3346      880.94055      110399.51      47.972135      47.972135      47.972135      1.3315013      16285.915      10869.819      15340.088    
    144000   72000          776.28864      14572.902      79286.383      55981.015      25025.575      30955.441      10587.202      9436.5843      7528.6237      967.3306       1229.2802      1206.42        109656.41      47.864259      47.864259      47.864259      1.3405244      14176.419      14860.412      14681.877    
    145000   72500          771.92815      13852.243      77977.461      55779.275      24885.003      30894.272      10426.332      9495.1926      7496.4652      973.65498      1337.7596      1164.8667      109880.72      47.896874      47.896874      47.896874      1.3377878      14963.149      12953.007      13640.573    
    146000   73000          785.01804      14367.112      79444.665      56482.135      25306.988      31175.146      10404.517      9580.5022      7819.3984      1023.8479      1213.9907      1132.8902      109590.87      47.854721      47.854721      47.854721      1.3413261      18342.047      12878.464      11880.824    
    147000   73500          777.1487       14157.22       79018.027      56399.439      25053.301      31346.139      10330.195      9728.5569      7679.9576      997.51614      1250.1448      1359.7683      109549.8       47.848743      47.848743      47.848743      1.3418289      14166.986      11748.972      16555.703    
    148000   74000          776.50685      13668.511      77621.361      55789.461      25032.609      30756.852      10313.54       9597.0631      7655.4867      996.29198      1166.6255      1027.8443      109520.26      47.844441      47.844441      47.844441      1.3421909      12390.273      15257.997      13357.261    
    149000   74500          780.39932      13236.436      77018.935      55889.566      25158.092      30731.473      10181.402      9474.8747      7877.2673      987.87719      1131.1163      1078.9359      109456         47.835082      47.835082      47.835082      1.3429788      13367.858      11806.336      14535.116    
    150000   75000          786.36175      15824.068      81482.518      56334.597      25350.306      30984.291      10225.328      9686.3747      7675.9848      1003.6246      1267.8109      1125.1678      108970.28      47.764219      47.764219      47.764219      1.348965       14926.911      16182.561      16362.732    
    151000   75500          788.11708      13156.867      77276.836      56231.966      25406.893      30825.073      10289.457      9517.3804      7720.8304      990.90522      1252.2839      1054.2163      109677.58      47.867339      47.867339      47.867339      1.3402657      13507.419      13347.291      12615.892    
    152000   76000          775.44118      14562.158      79130.422      55996.698      24998.254      30998.443      10258.686      9547.8114      7782.8183      978.77775      1290.5114      1139.8386      108929.1       47.758203      47.758203      47.758203      1.3494749      15157.326      14414.702      14114.445    
    153000   76500          766.22591      13500.526      77179.706      55660.378      24701.178      30959.2        10576.357      9417.4612      7696.4978      980.50163      1235.7736      1052.609       109295.46      47.811684      47.811684      47.811684      1.3449515      16232.274      11586.25       12683.054    
    154000   77000          790.00168      15189.931      80029.123      56003.59       25467.648      30535.942      10149.007      9270.3767      7787.0332      966.45806      1486.1052      876.96193      108452.94      47.688513      47.688513      47.688513      1.3553997      16333.12       15818.668      13418.005    
    155000   77500          796.80228      15383.564      81361.027      56814.575      25686.882      31127.693      10170.64       9714.3708      7620.8068      973.08224      1330.539       1318.2539      109409.71      47.828338      47.828338      47.828338      1.343547       17465.472      12878.938      15806.283    
    156000   78000          782.92377      15147.075      80311.824      56331.024      25239.474      31091.55       10251.535      9527.6692      7784.03        1005.7963      1309.3624      1213.1569      108557.29      47.703802      47.703802      47.703802      1.3540969      14607.45       15731.705      15102.071    
    157000   78500          780.40903      13594.602      77617.887      56020.72       25158.405      30862.315      10320.789      9458.4869      7744.7699      958.0257       1283.8717      1096.3717      108931.73      47.758587      47.758587      47.758587      1.3494424      12695.361      13946.054      14142.391    
    158000   79000          784.17737      15212.332      80388.187      56309.51       25279.887      31029.623      10274.124      9551.9199      7667.73        994.51914      1295.4157      1245.9139      108532.79      47.700213      47.700213      47.700213      1.3544026      14106.608      14778.363      16752.024    
    159000   79500          779.43684      16188.324      81606.328      55964.648      25127.065      30837.583      10543.003      9400.6066      7519.4946      981.58269      1336.4065      1056.4898      108609.72      47.711481      47.711481      47.711481      1.3534432      16418.907      15929.499      16216.568    
    160000   80000          776.5342       17099.632      82969.933      55858.931      25033.491      30825.44       10430.654      9408.4683      7655.9824      968.07809      1407.7699      954.48751      108713.36      47.726653      47.726653      47.726653      1.3521529      20165.197      15165.063      15968.635    
    161000   80500          773.57014      17601.007      83829.767      56045.199      24937.937      31107.262      10494.749      9647.0433      7547.946       975.83006      1546.9063      894.78684      108240.62      47.657372      47.657372      47.657372      1.3580585      18126.969      16702.89       17973.16     
    162000   81000          783.93019      15199.415      80605.43       56559.342      25271.919      31287.423      10445.853      9553.2482      7737.6404      1005.5531      1254.0617      1291.0668      108478         47.692186      47.692186      47.692186      1.3550866      18630.714      12618.232      14349.297    
    163000   81500          788.74018      15793.529      81423.024      56460.285      25426.981      31033.304      10419.958      9520.3904      7576.8353      948.98887      1313.5516      1253.5799      108377.01      47.677381      47.677381      47.677381      1.3563494      16841.976      14908.731      15629.88     
    164000   82000          776.38037      16883.781      82713.231      56180.324      25028.532      31151.793      10497.867      9382.7507      7634.2326      999.93782      1381.7357      1255.2692      107755.45      47.58606       47.58606       47.58606       1.3641732      20011.284      15558.401      15081.657    
    165000   82500          780.60135      18260.981      85051.795      56168.797      25164.605      31004.191      10291.827      9558.2255      7638.9095      989.68         1388.8728      1136.6767      108453.18      47.688548      47.688548      47.688548      1.3553968      18086.043      17997.481      18699.419    
    166000   83000          775.02529      18608.645      85373.461      56212.948      24984.847      31228.1        10414.626      9604.9691      7594.1012      974.65984      1369.0638      1270.6803      107449.53      47.540984      47.540984      47.540984      1.3680571      16754.383      18949.74       20121.814    
    167000   83500          777.31237      16173.64       81302.932      55796.242      25058.577      30737.665      10374.117      9500.8915      7503.0826      952.23607      1235.0301      1172.308       108136.03      47.642018      47.642018      47.642018      1.3593719      17859.127      14575.189      16086.604    
    168000   84000          774.5587       16260.138      81268.823      55759.159      24969.806      30789.353      10223.445      9419.5033      7476.4042      983.34685      1296.8175      1389.8372      107573.33      47.559236      47.559236      47.559236      1.3664826      17526.489      16555.602      14698.322    
    169000   84500          777.69972      18847.37       86045.294      56445.157      25071.064      31374.092      10695.574      9541.875       7567.3503      1020.7899      1423.969       1124.5342      107687.94      47.57612       47.57612       47.57612       1.3650283      17950.412      18880.191      19711.508    
    170000   85000          787.45185      17850.881      84419.602      56479.429      25385.448      31093.981      10307.192      9683.6594      7552.4117      984.21895      1504.1248      1062.3736      107323.18      47.522343      47.522343      47.522343      1.3696676      17308.282      18298.677      17945.685    
    171000   85500          781.6294       18941.991      86425.93       56669.927      25197.747      31472.18       10463.555      9625.4296      7646.3595      1027.8507      1416.5046      1292.4799      107714.23      47.579992      47.579992      47.579992      1.3646952      18853.085      16967.499      21005.389    
    172000   86000          778.877        19139.34       85518.551      55573.181      25109.017      30464.165      10433.295      9447.6228      7413.23        948.98705      1477.8228      743.20691      107281.99      47.516263      47.516263      47.516263      1.3701935      20397.316      17896.596      19124.107    
[...]
    449000   224500         789.37384      46390.432      123872.35      59559.619      25447.408      34112.211      10541.34       9605.2459      7556.5492      1067.3236      4379.4268      962.32478      95058.877      45.638451      45.638451      45.638451      1.5463794      48160.173      45164.9        45846.223    
    450000   225000         780.6856       45716.629      122101.19      58703.94       25167.321      33536.619      10397.045      9796.1908      7409.7797      980.63389      4198.6134      754.35526      95086.826      45.642923      45.642923      45.642923      1.5459249      46160.539      43002.535      47986.813    
    451000   225500         781.94905      43279.442      119260.61      58982.759      25208.052      33774.707      10499.374      9751.4882      7680.7124      1062.0064      3979.7837      801.34211      95499.308      45.708827      45.708827      45.708827      1.5392477      43610.603      43763.74       42463.983    
    452000   226000         781.13282      47568.495      125116.72      58981.826      25181.739      33800.088      10758.172      9913.6738      7374.2164      983.84427      4052.7764      717.40534      95331.265      45.682001      45.682001      45.682001      1.541961       48159.139      47279.319      47267.027    
    453000   226500         770.86016      48810.602      125767.72      58225.292      24850.574      33374.718      10488.294      9616.7676      7478.2213      981.66459      4221.6244      588.14567      94882.601      45.610223      45.610223      45.610223      1.5492523      49038.282      50023.622      47369.903    
    454000   227000         786.01628      46291.859      123103.7       58970.598      25339.169      33631.429      10478.601      9634.1209      7376.2686      988.10667      4292.9359      861.39611      94995.221      45.628261      45.628261      45.628261      1.5474157      46324.502      46991.353      45559.722    
    455000   227500         771.54251      45294.576      121829.91      58881.714      24872.571      34009.142      10613.246      9816.26        7494.5591      1027.9067      4229.6417      827.52914      95293.052      45.675896      45.675896      45.675896      1.5425793      46076.174      41059.841      48747.711    
    456000   228000         774.87589      44274.349      120013.57      58593.438      24980.031      33613.407      10435.661      9611.3157      7412.974       983.44793      4291.3058      878.70274      95122.368      45.648609      45.648609      45.648609      1.5453473      46076.16       40524.162      46222.725    
    457000   228500         777.09496      45319.385      121584.39      58766.786      25051.568      33715.218      10611.508      9682.7221      7341.7067      972.78167      4375.1288      731.3702       95043.287      45.635956      45.635956      45.635956      1.5466331      43705.841      45252.056      47000.259    
    458000   229000         778.26073      45351.841      121986.91      59043.741      25089.15       33954.591      10603.539      9579.0349      7744.6898      1048.662       4119.6519      859.0136       95165.123      45.655448      45.655448      45.655448      1.544653       45521.316      43495.783      47038.425    
    459000   229500         799.32186      44823.657      121962.39      59868.157      25768.107      34100.05       10676.629      9694.9654      7640.2903      1018.0431      4320.275       749.84725      94987.865      45.627083      45.627083      45.627083      1.5475355      46110.839      43011.303      45348.828    
    460000   230000         776.94702      46807.947      123653.9       58988.072      25046.799      33941.273      10463.292      9646.7019      7455.2061      992.57709      4445.2766      938.2191       94728.214      45.585471      45.585471      45.585471      1.5517773      48691.401      45433.462      46298.977    
    461000   230500         780.59351      44669.681      120882.17      58907.702      25164.353      33743.35       10452.762      9882.6107      7567.2013      1022.6012      4123.9205      694.25399      95131.43       45.650059      45.650059      45.650059      1.5452001      44452.6        44652.66       44903.784    
    462000   231000         789.28931      47250.063      124648.16      59097.91       25444.683      33653.227      10507.315      9686.0301      7411.9328      974.27103      4243.0077      830.67047      95125.315      45.649081      45.649081      45.649081      1.5452994      48469.611      46218.512      47062.065    
    463000   231500         780.88997      47273.707      124191.35      58839.685      25173.91       33665.775      10285.966      9712.2284      7592.4709      1008.8024      4383.5949      682.71269      94789.686      45.59533       45.59533       45.59533       1.5507709      48827.156      45989.37       47004.596    
    464000   232000         776.74389      46287.987      123083.19      59061.674      25040.251      34021.424      10350.927      9750.107       7622.1282      1012.53        4241.5001      1044.2314      94837.869      45.603054      45.603054      45.603054      1.5499831      43662.6        49196.97       46004.392    
    465000   232500         775.08333      46371.842      122826.86      58688.097      24986.718      33701.379      10385.706      9822.3964      7426.6236      1027.7439      4213.4806      825.42842      94839.737      45.603353      45.603353      45.603353      1.5499526      45381.189      47005.784      46728.553    
    466000   233000         787.83066      48381.591      125866.42      58975.61       25397.66       33577.95       10328.394      9702.2822      7346.0027      975.37363      4191.577       1034.3199      94800.459      45.597057      45.597057      45.597057      1.5505947      51249.038      47265.385      46630.351    
    467000   233500         778.9779       47143.306      124225.07      58930.824      25112.27       33818.554      10481.939      9952.9104      7389.8481      997.63129      4403.758       592.467        94968.375      45.623963      45.623963      45.623963      1.5478531      47124.973      46386.748      47918.197    
    468000   234000         775.83382      47055.832      124530.13      59725.846      25010.912      34714.934      10467.833      9887.4862      7759.806       1072.4831      4527.6087      999.71692      94430.959      45.537739      45.537739      45.537739      1.5566621      46072.804      47810.382      47284.31     
    469000   234500         790.97622      48878.339      127220.18      59610.97       25499.065      34111.905      10681.69       9455.6788      7576.9738      1074.4355      4475.9863      847.14072      94844.8        45.604165      45.604165      45.604165      1.5498698      48134.375      48508.822      49991.82     
    470000   235000         781.5844       45324.082      121803.12      59047.127      25196.297      33850.831      10542.042      9646.1587      7684.4835      1048.6142      4175.2461      754.28635      94940.231      45.619455      45.619455      45.619455      1.5483119      46039.583      43535.541      46397.122    
    471000   235500         775.83194      46655.392      123596.55      59216.537      25010.852      34205.685      10659.9        9721.9561      7490.1312      1007.3029      4379.023       947.37166      94617.911      45.567771      45.567771      45.567771      1.5535863      47063.998      45056.773      47845.404    
    472000   236000         785.26824      47594.384      124627.39      58932.999      25315.054      33617.945      10524.188      9588.4679      7390.021       1006.6964      4430.7857      677.78603      94644.781      45.572084      45.572084      45.572084      1.5531453      48722.391      46918.008      47142.753    
    473000   236500         784.76443      46469.961      123355.58      59164.83       25298.813      33866.018      10486.133      9806.9643      7642.1905      1036.0097      4408.7759      485.94396      94716.192      45.583543      45.583543      45.583543      1.5519743      46129.615      47791.89       45488.378    
    474000   237000         787.52896      45820.687      122870.89      59608.849      25387.934      34220.915      10512.527      9785.378       7530.7826      990.62525      4440.7693      960.83221      94668.553      45.575899      45.575899      45.575899      1.5527552      45175.743      47962.499      44323.818    
    475000   237500         790.596        46614.387      123991.3       59588.092      25486.808      34101.284      10514.598      9544.3798      7442.7534      993.31053      4448.6964      1157.5462      94735.258      45.586601      45.586601      45.586601      1.5516619      47789.084      44768.806      47285.272    
    476000   238000         782.77967      49725.358      127483.43      58944.097      25234.829      33709.268      10320.039      9766.5695      7335.6793      995.9264       4532.4949      758.55897      94511.806      45.550731      45.550731      45.550731      1.5553305      49374.778      49487.757      50313.537    
    477000   238500         784.58662      47581.792      124696.85      59171.994      25293.08       33878.914      10200.251      9705.5378      7610.6706      1001.2591      4534.5521      826.64343      94425.514      45.536864      45.536864      45.536864      1.5567518      48760.281      46806.698      47178.398    
    478000   239000         787.98615      48394.078      126100.58      59283.499      25402.672      33880.827      10426.379      9711.0584      7420.7493      1034.4681      4513.483       774.68889      94671.527      45.576377      45.576377      45.576377      1.5527065      49630.13       46650.048      48902.056    
    479000   239500         789.77203      50025.349      128626.25      59631.672      25460.245      34171.427      10602.021      9527.7116      7629.0253      1038.841       4472.4072      901.42067      94569.027      45.559922      45.559922      45.559922      1.5543894      50375.684      49269.705      50430.658    
    480000   240000         786.32258      50709.808      129306.67      59681.556      25349.043      34332.513      10505.437      9777.9128      7487.067       1046.2261      4876.2403      639.63013      94145.17       45.491754      45.491754      45.491754      1.5613875      50380.871      50974.558      50773.995    
    481000   240500         775.91117      49824.622      128191.55      59567.933      25013.406      34554.527      10702.878      9846.3978      7447.6924      1013.4521      4709.4095      834.69748      94439.505      45.539113      45.539113      45.539113      1.5565212      49431.878      49813.644      50228.343    
    482000   241000         785.77889      48500.116      126126.47      59267.798      25331.516      33936.281      10358.171      9674.504       7555.929       1019.5511      4480.4345      847.69132      94523.343      45.552585      45.552585      45.552585      1.5551406      48804.225      47905.372      48790.751    
    483000   241500         778.90049      46174.052      122846.14      59253.087      25109.774      34143.313      10269.785      9629.8614      7809.7281      1035.2943      4403.3676      995.27659      94435.616      45.538488      45.538488      45.538488      1.5565853      45574.587      45592.255      47355.314    
    484000   242000         773.22254      47206.397      123879.26      58796.713      24926.731      33869.982      10312.617      9511.2685      7619.9453      1011.9181      4594.7485      819.48441      94533.944      45.554288      45.554288      45.554288      1.5549662      48442.841      47473.579      45702.771    
    485000   242500         772.43761      49446.278      127303.78      59111.799      24901.427      34210.372      10695.65       9740.39        7394.4403      1004.8904      4598.1592      776.84183      94563.566      45.559045      45.559045      45.559045      1.5544792      51771.176      50208.861      46358.796    
    486000   243000         778.06041      48914.621      126778.23      59510.055      25082.692      34427.363      10618.163      9601.9254      7614.8755      1012.1007      4705.5647      874.73389      94296.382      45.516096      45.516096      45.516096      1.5588837      48672.805      49414.441      48656.618    
    487000   243500         794.80552      51921.422      131440.96      60089.676      25622.512      34467.164      10613.195      9908.3618      7395.3418      1024.5308      4695.3518      830.38307      94227.859      45.505069      45.505069      45.505069      1.5600173      53963.369      50993.633      50807.264    
    488000   244000         780.30845      50389.26       128424.99      59285.845      25155.163      34130.682      10229.517      9576.9386      7735.3426      1030.5375      4561.5         996.84585      94082.777      45.481702      45.481702      45.481702      1.562423       51234.446      51894.183      48039.15     
    489000   244500         783.98218      45958.437      122673.32      59246.817      25273.595      33973.222      10270.344      9714.9971      7697.4409      1003.4269      4379.7342      907.27874      94630.173      45.569739      45.569739      45.569739      1.553385       44677.511      45406.228      47791.572    
    490000   245000         782.84339      49110.018      126712.33      59214.749      25236.883      33977.866      10385.593      9757.6898      7536.2866      1005.7387      4533.2758      759.28123      94241.508      45.507266      45.507266      45.507266      1.5597914      50296.651      49778.543      47254.859    
    491000   245500         778.36271      53048.249      131677.19      59058.352      25092.437      33965.915      10404.797      9611.9083      7386.6828      1062.1087      4824.6846      675.73392      93864.71       45.446536      45.446536      45.446536      1.5660528      52310.051      52564.051      54270.644    
    492000   246000         774.61658      49608.281      127451.32      59251.391      24971.672      34279.72       10748.909      9803.7216      7408.697       1009.6713      4538.0521      770.66904      94265.739      45.511166      45.511166      45.511166      1.5593904      49786.945      50219.65       48818.249    
    493000   246500         774.24774      46703.737      123212.79      58991.961      24959.781      34032.18       10259.477      9731.8346      7640.8949      1021.0205      4451.0501      927.90309      94286.256      45.514467      45.514467      45.514467      1.5590511      45289.361      46759.499      48062.352    
    494000   247000         780.35219      49356.762      126640.05      58916.485      25156.573      33759.912      10398.872      9692.004       7409.208       1000.3373      4578.2044      681.28653      94084.316      45.48195       45.48195       45.48195       1.5623974      49553.365      47976.776      50540.146    
    495000   247500         795.86838      50791.717      129315.12      59641.861      25656.775      33985.085      10494.385      9804.7756      7452.6912      1005.5235      4583.2028      644.50779      94058.35       45.477766      45.477766      45.477766      1.5628287      50624.711      51240.15       50510.291    
    496000   248000         792.71488      49312.287      127509.69      59899.293      25555.115      34344.179      10210.847      9879.0957      7540.159       1020.7841      4752.0674      941.22541      94011.818      45.470265      45.470265      45.470265      1.5636023      51235.53       48249.685      48451.645    
    497000   248500         772.93978      51378.88       130348.26      59735.78       24917.616      34818.164      10510.889      9877.3207      7650.3223      1047.566       4671.5786      1060.4867      94236.896      45.506523      45.506523      45.506523      1.5598677      52822.565      48098.927      53215.147    
    498000   249000         774.00298      53071.761      132200.76      59513.179      24951.891      34561.289      10531.876      9692.7559      7490.8966      1048.7783      4880.8673      916.11411      93911.937      45.454156      45.454156      45.454156      1.5652652      54679.878      51134.867      53400.54     
    499000   249500         772.00609      51902.135      130148.51      59047.555      24887.516      34160.039      10487.768      9785.3512      7454.9857      1022.1709      4673.5735      736.18916      93932.166      45.45742       45.45742       45.45742       1.5649282      54786.262      49444.517      51475.625    
    500000   250000         775.2301       51280.565      129666.3       59254.988      24991.45       34263.538      10456.385      9687.0508      7555.3156      1009.4701      4723.1407      832.17582      94148.579      45.492303      45.492303      45.492303      1.561331       50202.615      51148.503      52490.577    
Loop time of 2092.65 on 1 procs for 500000 steps with 10816 atoms

Performance: 10.322 ns/day, 2.325 hours/ns, 238.932 timesteps/s, 2.584 Matom-step/s
99.9% CPU use with 1 MPI tasks x 1 OpenMP threads

MPI task timing breakdown:
Section |  min time  |  avg time  |  max time  |%varavg| %total
---------------------------------------------------------------
Pair    | 1345.7     | 1345.7     | 1345.7     |   0.0 | 64.31
Bond    | 400.6      | 400.6      | 400.6      |   0.0 | 19.14
Neigh   | 210.79     | 210.79     | 210.79     |   0.0 | 10.07
Comm    | 23.422     | 23.422     | 23.422     |   0.0 |  1.12
Output  | 6.7465     | 6.7465     | 6.7465     |   0.0 |  0.32
Modify  | 87.584     | 87.584     | 87.584     |   0.0 |  4.19
Other   |            | 17.83      |            |       |  0.85

Nlocal:          10816 ave       10816 max       10816 min
Histogram: 1 0 0 0 0 0 0 0 0 0
Nghost:          26063 ave       26063 max       26063 min
Histogram: 1 0 0 0 0 0 0 0 0 0
Neighs:              0 ave           0 max           0 min
Histogram: 1 0 0 0 0 0 0 0 0 0
FullNghs:  7.84324e+06 ave 7.84324e+06 max 7.84324e+06 min
Histogram: 1 0 0 0 0 0 0 0 0 0

Total # of neighbors = 7843238
Ave neighs/atom = 725.15144
Ave special neighs/atom = 5.7707101
Neighbor list builds = 20947
Dangerous builds = 0

unfix npt_comp

undump dump_comp

write_dump all custom npt_compress_last.dump id type mol x y z xu yu zu vx vy vz modify sort id
write_data /home/arz2/PolyJarvis/data/PSU4/lammps/equil/npt_compress/npt_compress_out.data
System init for write_data ...
Generated 28 of 28 mixed pair_coeff terms from sixthpower/sixthpower mixing rule

print "STAGE COMPLETE: NPT compression P=1.0->50000.0atm density target reached"
STAGE COMPLETE: NPT compression P=1.0->50000.0atm density target reached
quit
10.79     | 210.79     | 210.79     |   0.0 | 10.07
Comm    | 23.422     | 23.422     | 23.422     |   0.0 |  1.12
Output  | 6.7465     | 6.7465     | 6.7465     |   0.0 |  0.32
Modify  | 87.584     | 87.584     | 87.584     |   0.0 |  4.19
Other   |            | 17.83      |            |       |  0.85

Nlocal:          10816 ave       10816 max       10816 min
Histogram: 1 0 0 0 0 0 0 0 0 0
Nghost:          26063 ave       26063 max       26063 min
Histogram: 1 0 0 0 0 0 0 0 0 0
Neighs:              0 ave           0 max           0 min
Histogram: 1 0 0 0 0 0 0 0 0 0
FullNghs:  7.84324e+06 ave 7.84324e+06 max 7.84324e+06 min
Histogram: 1 0 0 0 0 0 0 0 0 0

Total # of neighbors = 7843238
Ave neighs/atom = 725.15144
Ave special neighs/atom = 5.7707101
Neighbor list builds = 20947
Dangerous builds = 0
System init for write_data ...
Generated 28 of 28 mixed pair_coeff terms from sixthpower/sixthpower mixing rule
STAGE COMPLETE: NPT compression P=1.0->50000.0atm density target reached
