units real
atom_style full
boundary p p p

# --- Force Field Styles ---
pair_style lj/class2/coul/long 9.5 9.5
kspace_style pppm 1e-6
dielectric 1.000000
bond_style class2
angle_style class2
dihedral_style class2
improper_style class2
special_bonds lj/coul 0 0 1
pair_modify mix sixthpower tail yes
neighbor 2.0 bin
neigh_modify delay 0 every 1 check yes
neigh_modify one 4000
# KOKKOS: package loaded via -pk kokkos on the command line

read_data /home/arz2/PolyJarvis/data/PLA2/lammps/equil/minimize/minimize_out.data
Reading data file ...
  orthogonal box = (0 0 0) to (45.633123 45.633123 45.633123)
  1 by 1 by 1 MPI processor grid
  reading atoms ...
  4520 atoms
  reading velocities ...
  4520 velocities
  scanning bonds ...
  4 = max bonds/atom
  scanning angles ...
  12 = max angles/atom
  scanning dihedrals ...
  21 = max dihedrals/atom
  scanning impropers ...
  8 = max impropers/atom
  orthogonal box = (0 0 0) to (45.633123 45.633123 45.633123)
  1 by 1 by 1 MPI processor grid
  reading bonds ...
  4510 bonds
  reading angles ...
  8000 angles
  reading dihedrals ...
  9970 dihedrals
  reading impropers ...
  4500 impropers
Finding 1-2 1-3 1-4 neighbors ...
  special bond factors lj:    0        0        1       
  special bond factors coul:  0        0        1       
     4 = max # of 1-2 neighbors
     6 = max # of 1-3 neighbors
    10 = max # of special neighbors
  special bonds CPU = 0.003 seconds
  read_data CPU = 0.237 seconds
include /home/arz2/PolyJarvis/data/PLA2/lammps/equil/emc_build.params
# LAMMPS parameters created by EMC v9.4.4, build Jul 31 2025 20:33:44

# Variables

variable	seed		index	472913
variable	ntotal		index	4520
variable	fshape		index	1
variable	output		index	emc_build
variable	field		index	pcff/pcff
variable	location1	index	/home/arz2/emc/field/
variable	nav		index	0.6022141179
variable	temperature	index	300
variable	radius		index	5
variable	nrelax		index	100
variable	weight_nonbond	index	0.0001
variable	weight_bond	index	0.0001
variable	weight_focus	index	1
variable	cutoff		index	9.5
variable	charge_cutoff	index	9.5
variable	kappa		index	4
variable	density1	index	0.63
variable	lprevious	index	0
variable	lphase		index	45.6331234262
variable	f_poly		index	10
variable	chem_repeat	index	*C(C)C(=O)O*
variable	chem_cap	index	*[H]
variable	lg_repeat	index	9
variable	lg_cap		index	1
variable	norm_poly	index	100
variable	l_poly		index	452
variable	mg_repeat	index	44.05358
variable	mg_cap		index	0
variable	m_poly		index	2202.679
variable	n_poly		index	10
variable	mtotal		index	36052.2247
variable	nphase1		index	4520
variable	mphase1		index	36052.2247
variable	vphase1		index	95025.5927105
variable	lbox		index	45.6331234262
variable	lphase1		index	45.6331234262
variable	lxx		index	45.6331234262
variable	lyy		index	45.6331234262
variable	lzz		index	45.6331234262
variable	lzy		index	0
variable	lzx		index	0
variable	lyx		index	0
variable	vtotal		index	95025.5927105
variable	nl_poly		index	10

# Types

variable	type_c		index	1
variable	type_c1		index	2
variable	type_c_1	index	3
variable	type_hc		index	4
variable	type_ho2	index	5
variable	type_o_1	index	6
variable	type_o_2	index	7

variable	type_bond_c_c	index	1
variable	type_bond_c_c1	index	2
variable	type_bond_c_c_1	index	3
variable	type_bond_c_hc	index	4
variable	type_bond_c1_c_1 index	5
variable	type_bond_c1_hc	index	6
variable	type_bond_c1_o_2 index	7
variable	type_bond_c_1_o_1 index	8
variable	type_bond_c_1_o_2 index	9
variable	type_bond_ho2_o_2 index	10

variable	type_angle_c_c_c_1 index	1
variable	type_angle_c_c_hc index	2
variable	type_angle_c_c1_c_1 index	3
variable	type_angle_c_c1_hc index	4
variable	type_angle_c_c1_o_2 index	5
variable	type_angle_c_c_1_o_1 index	6
variable	type_angle_c_c_1_o_2 index	7
variable	type_angle_c1_c_hc index	8
variable	type_angle_c1_c_1_o_1 index	9
variable	type_angle_c1_c_1_o_2 index	10
variable	type_angle_c1_o_2_c_1 index	11
variable	type_angle_c_1_c_hc index	12
variable	type_angle_c_1_c1_hc index	13
variable	type_angle_c_1_c1_o_2 index	14
variable	type_angle_c_1_o_2_ho2 index	15
variable	type_angle_hc_c_hc index	16
variable	type_angle_hc_c1_o_2 index	17
variable	type_angle_o_1_c_1_o_2 index	18

# Clusters

variable	n0_poly		index	1
variable	n1_poly		index	10
variable	nl_poly		index	10

# Flags

variable	flag_charged	index	1

# Masses

mass		1    12.01115  # c
mass		2    12.01115  # c1
mass		3    12.01115  # c_1
mass		4     1.00797  # hc
mass		5     1.00800  # ho2
mass		6    15.99940  # o_1
mass		7    15.99940  # o_2

# Potentials

pair_modify	mix sixthpower tail yes
special_bonds	lj/coul 0 0 1

# Pair Coeffs

pair_coeff	 1  1    0.05400    4.01000  # c,c
pair_coeff	 2  2    0.05400    4.01000  # c1,c1
pair_coeff	 3  3    0.12000    3.81000  # c_1,c_1
pair_coeff	 4  4    0.02000    2.99500  # hc,hc
pair_coeff	 5  5    0.01300    1.11000  # ho2,ho2
pair_coeff	 6  6    0.26700    3.30000  # o_1,o_1
pair_coeff	 7  7    0.24000    3.42000  # o_2,o_2

# Bond Coeffs

bond_coeff	 1    1.53000  299.67000 -501.77000  679.81000  # c,c
bond_coeff	 2    1.53000  299.67000 -501.77000  679.81000  # c,c1
bond_coeff	 3    1.52020  253.70670 -423.03700  396.90000  # c,c_1
bond_coeff	 4    1.10100  345.00000 -691.89000  844.60000  # c,hc
bond_coeff	 5    1.52020  253.70670 -423.03700  396.90000  # c1,c_1
bond_coeff	 6    1.10100  345.00000 -691.89000  844.60000  # c1,hc
bond_coeff	 7    1.43000  326.72730 -608.53060  689.03330  # c1,o_2
bond_coeff	 8    1.20200  851.14030 -1918.48820 2160.76590  # c_1,o_1
bond_coeff	 9    1.36830  367.14810 -794.79080 1055.23190  # c_1,o_2
bond_coeff	10    0.95200  534.29940 -1287.19370 1889.13960  # ho2,o_2

# Angle Coeffs

angle_coeff	 1  108.52950   51.97470   -9.48510  -10.99850  # c,c,c_1
angle_coeff	 2  110.77000   41.45300  -10.60400    5.12900  # c,c,hc
angle_coeff	 3  108.52950   51.97470   -9.48510  -10.99850  # c,c1,c_1
angle_coeff	 4  110.77000   41.45300  -10.60400    5.12900  # c,c1,hc
angle_coeff	 5  107.41000   63.39070  -13.45130    1.66500  # c,c1,o_2
angle_coeff	 6  123.14510   55.54310  -17.21230    0.13480  # c,c_1,o_1
angle_coeff	 7  100.31820   38.86310   -3.83230   -7.98020  # c,c_1,o_2
angle_coeff	 8  110.77000   41.45300  -10.60400    5.12900  # c1,c,hc
angle_coeff	 9  123.14510   55.54310  -17.21230    0.13480  # c1,c_1,o_1
angle_coeff	10  100.31820   38.86310   -3.83230   -7.98020  # c1,c_1,o_2
angle_coeff	11  113.28800   61.28680  -28.97860    7.99290  # c1,o_2,c_1
angle_coeff	12  107.73360   40.60990  -28.81210    0.00000  # c_1,c,hc
angle_coeff	13  107.73360   40.60990  -28.81210    0.00000  # c_1,c1,hc
angle_coeff	14  109.50000   60.00000    0.00000    0.00000  # c_1,c1,o_2
angle_coeff	15  112.87400   53.25120  -14.99790    2.46400  # c_1,o_2,ho2
angle_coeff	16  107.66000   39.64100  -12.92100   -2.43180  # hc,c,hc
angle_coeff	17  107.68800   65.48010  -10.34980    5.88660  # hc,c1,o_2
angle_coeff	18  120.79700   95.34460  -32.28690    6.37780  # o_1,c_1,o_2

# BondBond Coeffs

angle_coeff	 1 bb    5.41990    1.53000    1.52020  # c,c,c_1
angle_coeff	 2 bb    3.38720    1.53000    1.10100  # c,c,hc
angle_coeff	 3 bb    5.41990    1.53000    1.52020  # c,c1,c_1
angle_coeff	 4 bb    3.38720    1.53000    1.10100  # c,c1,hc
angle_coeff	 5 bb   23.26470    1.53000    1.43000  # c,c1,o_2
angle_coeff	 6 bb   46.06850    1.52020    1.20200  # c,c_1,o_1
angle_coeff	 7 bb   19.10690    1.52020    1.36830  # c,c_1,o_2
angle_coeff	 8 bb    3.38720    1.53000    1.10100  # c1,c,hc
angle_coeff	 9 bb   46.06850    1.52020    1.20200  # c1,c_1,o_1
angle_coeff	10 bb   19.10690    1.52020    1.36830  # c1,c_1,o_2
angle_coeff	11 bb   45.45030    1.43000    1.36830  # c1,o_2,c_1
angle_coeff	12 bb    0.71150    1.52020    1.10100  # c_1,c,hc
angle_coeff	13 bb    0.71150    1.52020    1.10100  # c_1,c1,hc
angle_coeff	14 bb    0.00000    1.52020    1.43000  # c_1,c1,o_2
angle_coeff	15 bb    9.56710    1.36830    0.95200  # c_1,o_2,ho2
angle_coeff	16 bb    5.33160    1.10100    1.10100  # hc,c,hc
angle_coeff	17 bb    5.64540    1.10100    1.43000  # hc,c1,o_2
angle_coeff	18 bb  121.48800    1.20200    1.36830  # o_1,c_1,o_2

# BondAngle Coeffs

angle_coeff	 1 ba   18.16780   15.87580    1.53000    1.52020  # c,c,c_1
angle_coeff	 2 ba   20.75400   11.42100    1.53000    1.10100  # c,c,hc
angle_coeff	 3 ba   18.16780   15.87580    1.53000    1.52020  # c,c1,c_1
angle_coeff	 4 ba   20.75400   11.42100    1.53000    1.10100  # c,c1,hc
angle_coeff	 5 ba   23.39200   47.94870    1.53000    1.43000  # c,c1,o_2
angle_coeff	 6 ba   34.99820   37.12980    1.52020    1.20200  # c,c_1,o_1
angle_coeff	 7 ba    1.34350    4.69780    1.52020    1.36830  # c,c_1,o_2
angle_coeff	 8 ba   20.75400   11.42100    1.53000    1.10100  # c1,c,hc
angle_coeff	 9 ba   34.99820   37.12980    1.52020    1.20200  # c1,c_1,o_1
angle_coeff	10 ba    1.34350    4.69780    1.52020    1.36830  # c1,c_1,o_2
angle_coeff	11 ba   41.91160   46.46080    1.43000    1.36830  # c1,o_2,c_1
angle_coeff	12 ba   12.46320    9.17650    1.52020    1.10100  # c_1,c,hc
angle_coeff	13 ba   12.46320    9.17650    1.52020    1.10100  # c_1,c1,hc
angle_coeff	14 ba    0.00000    0.00000    1.52020    1.43000  # c_1,c1,o_2
angle_coeff	15 ba   37.91630   21.43640    1.36830    0.95200  # c_1,o_2,ho2
angle_coeff	16 ba   18.10300   18.10300    1.10100    1.10100  # hc,c,hc
angle_coeff	17 ba    8.68640   57.49750    1.10100    1.43000  # hc,c1,o_2
angle_coeff	18 ba   76.26140   71.87610    1.20200    1.36830  # o_1,c_1,o_2

# Dihedral Coeffs

dihedral_coeff	 1    0.04420    0.00000    0.02920    0.00000    0.05620    0.00000  # c,c,c_1,o_1
dihedral_coeff	 2    1.83410    0.00000    2.06030    0.00000   -0.01950    0.00000  # c,c,c_1,o_2
dihedral_coeff	 3    0.04420    0.00000    0.02920    0.00000    0.05620    0.00000  # c,c1,c_1,o_1
dihedral_coeff	 4    1.83410    0.00000    2.06030    0.00000   -0.01950    0.00000  # c,c1,c_1,o_2
dihedral_coeff	 5    0.00000    0.00000    0.00000    0.00000   -0.19320    0.00000  # c,c1,o_2,c_1
dihedral_coeff	 6   -2.55940    0.00000    2.20130    0.00000    0.03250    0.00000  # c,c_1,o_2,c1
dihedral_coeff	 7   -2.55940    0.00000    2.20130    0.00000    0.03250    0.00000  # c1,c_1,o_2,c1
dihedral_coeff	 8   -2.91260    0.00000    1.01990    0.00000   -0.20770    0.00000  # c1,c_1,o_2,ho2
dihedral_coeff	 9    0.00000    0.00000    2.20890    0.00000    0.00000    0.00000  # c1,o_2,c_1,o_1
dihedral_coeff	10   -0.02280    0.00000    0.02800    0.00000   -0.18630    0.00000  # c_1,c,c,hc
dihedral_coeff	11   -0.02280    0.00000    0.02800    0.00000   -0.18630    0.00000  # c_1,c1,c,hc
dihedral_coeff	12    0.00000    0.00000    0.00000    0.00000   -0.19320    0.00000  # c_1,c1,o_2,c_1
dihedral_coeff	13    0.00000    0.00000    0.00000    0.00000   -0.19320    0.00000  # c_1,o_2,c1,hc
dihedral_coeff	14   -0.14320    0.00000    0.06170    0.00000   -0.10830    0.00000  # hc,c,c,hc
dihedral_coeff	15   -0.14320    0.00000    0.06170    0.00000   -0.10830    0.00000  # hc,c,c1,hc
dihedral_coeff	16    0.00000    0.00000    0.00000    0.00000   -0.25000    0.00000  # hc,c,c1,o_2
dihedral_coeff	17   -0.18040    0.00000    0.00120    0.00000    0.03710    0.00000  # hc,c,c_1,o_1
dihedral_coeff	18   -0.63590    0.00000    1.48070    0.00000   -0.04380    0.00000  # hc,c,c_1,o_2
dihedral_coeff	19   -0.18040    0.00000    0.00120    0.00000    0.03710    0.00000  # hc,c1,c_1,o_1
dihedral_coeff	20   -0.63590    0.00000    1.48070    0.00000   -0.04380    0.00000  # hc,c1,c_1,o_2
dihedral_coeff	21    0.00000    0.00000    2.20890    0.00000    0.00000    0.00000  # ho2,o_2,c_1,o_1
dihedral_coeff	22    0.00000  180.00000    0.00000    0.00000    0.00000    0.00000  # o_1,c_1,c1,o_2
dihedral_coeff	23    0.00000  180.00000    0.00000    0.00000    0.00000    0.00000  # o_2,c1,c_1,o_2

# MiddleBondTorsion Coeffs

dihedral_coeff	 1 mbt    0.33880   -0.10960    0.12190    1.52020  # c,c,c_1,o_1
dihedral_coeff	 2 mbt  -17.32800   -5.79000   -3.21140    1.52020  # c,c,c_1,o_2
dihedral_coeff	 3 mbt    0.33880   -0.10960    0.12190    1.52020  # c,c1,c_1,o_1
dihedral_coeff	 4 mbt  -17.32800   -5.79000   -3.21140    1.52020  # c,c1,c_1,o_2
dihedral_coeff	 5 mbt   -5.43500    0.00000    0.00000    1.43000  # c,c1,o_2,c_1
dihedral_coeff	 6 mbt    1.34450    3.55150   -4.92020    1.36830  # c,c_1,o_2,c1
dihedral_coeff	 7 mbt    1.34450    3.55150   -4.92020    1.36830  # c1,c_1,o_2,c1
dihedral_coeff	 8 mbt    2.14520    0.54820   -2.36930    1.36830  # c1,c_1,o_2,ho2
dihedral_coeff	 9 mbt    4.26000    0.00000    0.00000    1.36830  # c1,o_2,c_1,o_1
dihedral_coeff	10 mbt   -3.50390    1.24580   -0.76100    1.53000  # c_1,c,c,hc
dihedral_coeff	11 mbt   -3.50390    1.24580   -0.76100    1.53000  # c_1,c1,c,hc
dihedral_coeff	12 mbt    0.00000    0.00000    0.00000    1.43000  # c_1,c1,o_2,c_1
dihedral_coeff	13 mbt    0.00000    0.00000    0.00000    1.43000  # c_1,o_2,c1,hc
dihedral_coeff	14 mbt  -14.26100   -0.53220   -0.48640    1.53000  # hc,c,c,hc
dihedral_coeff	15 mbt  -14.26100   -0.53220   -0.48640    1.53000  # hc,c,c1,hc
dihedral_coeff	16 mbt    0.00000    0.00000    0.00000    1.53000  # hc,c,c1,o_2
dihedral_coeff	17 mbt    0.23590    0.91390    0.95940    1.52020  # hc,c,c_1,o_1
dihedral_coeff	18 mbt  -13.76860   -2.59590    1.19340    1.52020  # hc,c,c_1,o_2
dihedral_coeff	19 mbt    0.23590    0.91390    0.95940    1.52020  # hc,c1,c_1,o_1
dihedral_coeff	20 mbt  -13.76860   -2.59590    1.19340    1.52020  # hc,c1,c_1,o_2
dihedral_coeff	21 mbt    4.26000    0.00000    0.00000    1.36830  # ho2,o_2,c_1,o_1
dihedral_coeff	22 mbt    0.00000    0.00000    0.00000    1.52020  # o_1,c_1,c1,o_2
dihedral_coeff	23 mbt    0.00000    0.00000    0.00000    1.52020  # o_2,c1,c_1,o_2

# EndBondTorsion Coeffs

dihedral_coeff	 1 ebt    0.26540    0.05030    0.10460   -0.28100    0.08160   -0.15220    1.53000    1.20200  # c,c,c_1,o_1
dihedral_coeff	 2 ebt    0.00000    0.00000    0.00000    0.00000    0.00000    0.00000    1.53000    1.36830  # c,c,c_1,o_2
dihedral_coeff	 3 ebt    0.26540    0.05030    0.10460   -0.28100    0.08160   -0.15220    1.53000    1.20200  # c,c1,c_1,o_1
dihedral_coeff	 4 ebt    0.00000    0.00000    0.00000    0.00000    0.00000    0.00000    1.53000    1.36830  # c,c1,c_1,o_2
dihedral_coeff	 5 ebt    0.00000    0.00000    0.00000    0.00000    0.00000    0.00000    1.53000    1.36830  # c,c1,o_2,c_1
dihedral_coeff	 6 ebt    0.00000    0.00000    0.00000    0.00000    0.00000    0.00000    1.52020    1.43000  # c,c_1,o_2,c1
dihedral_coeff	 7 ebt    0.00000    0.00000    0.00000    0.00000    0.00000    0.00000    1.52020    1.43000  # c1,c_1,o_2,c1
dihedral_coeff	 8 ebt    0.00000    0.00000    0.00000    0.00000    0.00000    0.00000    1.52020    0.95200  # c1,c_1,o_2,ho2
dihedral_coeff	 9 ebt    0.00000    0.00000    0.00000    0.00000    0.00000    0.00000    1.43000    1.20200  # c1,o_2,c_1,o_1
dihedral_coeff	10 ebt   -0.02040    0.36280   -0.44260   -0.00970   -0.03150   -0.07550    1.52020    1.10100  # c_1,c,c,hc
dihedral_coeff	11 ebt   -0.02040    0.36280   -0.44260   -0.00970   -0.03150   -0.07550    1.52020    1.10100  # c_1,c1,c,hc
dihedral_coeff	12 ebt    0.00000    0.00000    0.00000    0.00000    0.00000    0.00000    1.52020    1.36830  # c_1,c1,o_2,c_1
dihedral_coeff	13 ebt    0.00000    0.00000    0.00000    0.00000    0.00000    0.00000    1.36830    1.10100  # c_1,o_2,c1,hc
dihedral_coeff	14 ebt    0.21300    0.31200    0.07770    0.21300    0.31200    0.07770    1.10100    1.10100  # hc,c,c,hc
dihedral_coeff	15 ebt    0.21300    0.31200    0.07770    0.21300    0.31200    0.07770    1.10100    1.10100  # hc,c,c1,hc
dihedral_coeff	16 ebt    0.00000    0.00000    0.00000    0.00000    0.00000    0.00000    1.10100    1.43000  # hc,c,c1,o_2
dihedral_coeff	17 ebt    1.21430    0.28310    0.39160   -0.22980    0.03540    0.38530    1.10100    1.20200  # hc,c,c_1,o_1
dihedral_coeff	18 ebt    0.00000    0.00000    0.00000    0.00000    0.00000    0.00000    1.10100    1.36830  # hc,c,c_1,o_2
dihedral_coeff	19 ebt    1.21430    0.28310    0.39160   -0.22980    0.03540    0.38530    1.10100    1.20200  # hc,c1,c_1,o_1
dihedral_coeff	20 ebt    0.00000    0.00000    0.00000    0.00000    0.00000    0.00000    1.10100    1.36830  # hc,c1,c_1,o_2
dihedral_coeff	21 ebt    0.00000    0.00000    0.00000    0.00000    0.00000    0.00000    0.95200    1.20200  # ho2,o_2,c_1,o_1
dihedral_coeff	22 ebt    0.00000    0.00000    0.00000    0.00000    0.00000    0.00000    1.20200    1.43000  # o_1,c_1,c1,o_2
dihedral_coeff	23 ebt    0.00000    0.00000    0.00000    0.00000    0.00000    0.00000    1.43000    1.36830  # o_2,c1,c_1,o_2

# AngleTorsion Coeffs

dihedral_coeff	 1 at    0.08850   -1.37030   -0.54520    0.67500    0.59650    0.67250  108.52950  123.14510  # c,c,c_1,o_1
dihedral_coeff	 2 at    0.00000    0.00000    0.00000    0.00000    0.00000    0.00000  108.52950  100.31820  # c,c,c_1,o_2
dihedral_coeff	 3 at    0.08850   -1.37030   -0.54520    0.67500    0.59650    0.67250  108.52950  123.14510  # c,c1,c_1,o_1
dihedral_coeff	 4 at    0.00000    0.00000    0.00000    0.00000    0.00000    0.00000  108.52950  100.31820  # c,c1,c_1,o_2
dihedral_coeff	 5 at    0.00000    0.00000    0.00000    0.00000    0.00000    0.00000  107.41000  113.28800  # c,c1,o_2,c_1
dihedral_coeff	 6 at    0.00000    0.00000    0.00000    0.00000    0.00000    0.00000  100.31820  113.28800  # c,c_1,o_2,c1
dihedral_coeff	 7 at    0.00000    0.00000    0.00000    0.00000    0.00000    0.00000  100.31820  113.28800  # c1,c_1,o_2,c1
dihedral_coeff	 8 at    0.00000    0.00000    0.00000    0.00000    0.00000    0.00000  100.31820  112.87400  # c1,c_1,o_2,ho2
dihedral_coeff	 9 at    0.00000    0.00000    0.00000    0.00000    0.00000    0.00000  113.28800  120.79700  # c1,o_2,c_1,o_1
dihedral_coeff	10 at   -0.74660   -0.94480   -0.63210    0.01620    1.42110   -1.40920  108.52950  110.77000  # c_1,c,c,hc
dihedral_coeff	11 at   -0.74660   -0.94480   -0.63210    0.01620    1.42110   -1.40920  108.52950  110.77000  # c_1,c1,c,hc
dihedral_coeff	12 at    0.00000    0.00000    0.00000    0.00000    0.00000    0.00000  109.50000  113.28800  # c_1,c1,o_2,c_1
dihedral_coeff	13 at    0.00000    0.00000    0.00000    0.00000    0.00000    0.00000  113.28800  107.68800  # c_1,o_2,c1,hc
dihedral_coeff	14 at   -0.80850    0.55690   -0.24660   -0.80850    0.55690   -0.24660  110.77000  110.77000  # hc,c,c,hc
dihedral_coeff	15 at   -0.80850    0.55690   -0.24660   -0.80850    0.55690   -0.24660  110.77000  110.77000  # hc,c,c1,hc
dihedral_coeff	16 at    0.00000    0.00000    0.00000    0.00000    0.00000    0.00000  110.77000  107.41000  # hc,c,c1,o_2
dihedral_coeff	17 at    9.12990   -0.48470    0.35820   -1.49460    0.73080   -0.20830  107.73360  123.14510  # hc,c,c_1,o_1
dihedral_coeff	18 at    0.00000    0.00000    0.00000    0.00000    0.00000    0.00000  107.73360  100.31820  # hc,c,c_1,o_2
dihedral_coeff	19 at    9.12990   -0.48470    0.35820   -1.49460    0.73080   -0.20830  107.73360  123.14510  # hc,c1,c_1,o_1
dihedral_coeff	20 at    0.00000    0.00000    0.00000    0.00000    0.00000    0.00000  107.73360  100.31820  # hc,c1,c_1,o_2
dihedral_coeff	21 at    0.00000    0.00000    0.00000    0.00000    0.00000    0.00000  112.87400  120.79700  # ho2,o_2,c_1,o_1
dihedral_coeff	22 at    0.00000    0.00000    0.00000    0.00000    0.00000    0.00000  123.14510  109.50000  # o_1,c_1,c1,o_2
dihedral_coeff	23 at    0.00000    0.00000    0.00000    0.00000    0.00000    0.00000  109.50000  100.31820  # o_2,c1,c_1,o_2

# AngleAngleTorsion Coeffs

dihedral_coeff	 1 aat   -8.01900  108.52950  123.14510  # c,c,c_1,o_1
dihedral_coeff	 2 aat    0.00000  108.52950  100.31820  # c,c,c_1,o_2
dihedral_coeff	 3 aat   -8.01900  108.52950  123.14510  # c,c1,c_1,o_1
dihedral_coeff	 4 aat    0.00000  108.52950  100.31820  # c,c1,c_1,o_2
dihedral_coeff	 5 aat    0.00000  107.41000  113.28800  # c,c1,o_2,c_1
dihedral_coeff	 6 aat    0.00000  100.31820  113.28800  # c,c_1,o_2,c1
dihedral_coeff	 7 aat    0.00000  100.31820  113.28800  # c1,c_1,o_2,c1
dihedral_coeff	 8 aat    0.00000  100.31820  112.87400  # c1,c_1,o_2,ho2
dihedral_coeff	 9 aat    0.00000  113.28800  120.79700  # c1,o_2,c_1,o_1
dihedral_coeff	10 aat   -5.36240  108.52950  110.77000  # c_1,c,c,hc
dihedral_coeff	11 aat   -5.36240  108.52950  110.77000  # c_1,c1,c,hc
dihedral_coeff	12 aat    0.00000  109.50000  113.28800  # c_1,c1,o_2,c_1
dihedral_coeff	13 aat    0.00000  113.28800  107.68800  # c_1,o_2,c1,hc
dihedral_coeff	14 aat  -12.56400  110.77000  110.77000  # hc,c,c,hc
dihedral_coeff	15 aat  -12.56400  110.77000  110.77000  # hc,c,c1,hc
dihedral_coeff	16 aat    0.00000  110.77000  107.41000  # hc,c,c1,o_2
dihedral_coeff	17 aat  -15.34960  107.73360  123.14510  # hc,c,c_1,o_1
dihedral_coeff	18 aat    0.00000  107.73360  100.31820  # hc,c,c_1,o_2
dihedral_coeff	19 aat  -15.34960  107.73360  123.14510  # hc,c1,c_1,o_1
dihedral_coeff	20 aat    0.00000  107.73360  100.31820  # hc,c1,c_1,o_2
dihedral_coeff	21 aat    0.00000  112.87400  120.79700  # ho2,o_2,c_1,o_1
dihedral_coeff	22 aat    0.00000  123.14510  109.50000  # o_1,c_1,c1,o_2
dihedral_coeff	23 aat    0.00000  109.50000  100.31820  # o_2,c1,c_1,o_2

# BondBond13 Coeffs

dihedral_coeff	 1 bb13    0.00000    1.53000    1.20200  # c,c,c_1,o_1
dihedral_coeff	 2 bb13    0.00000    1.53000    1.36830  # c,c,c_1,o_2
dihedral_coeff	 3 bb13    0.00000    1.53000    1.20200  # c,c1,c_1,o_1
dihedral_coeff	 4 bb13    0.00000    1.53000    1.36830  # c,c1,c_1,o_2
dihedral_coeff	 5 bb13    0.00000    1.53000    1.36830  # c,c1,o_2,c_1
dihedral_coeff	 6 bb13    0.00000    1.52020    1.43000  # c,c_1,o_2,c1
dihedral_coeff	 7 bb13    0.00000    1.52020    1.43000  # c1,c_1,o_2,c1
dihedral_coeff	 8 bb13    0.00000    1.52020    0.95200  # c1,c_1,o_2,ho2
dihedral_coeff	 9 bb13    0.00000    1.43000    1.20200  # c1,o_2,c_1,o_1
dihedral_coeff	10 bb13    0.00000    1.52020    1.10100  # c_1,c,c,hc
dihedral_coeff	11 bb13    0.00000    1.52020    1.10100  # c_1,c1,c,hc
dihedral_coeff	12 bb13    0.00000    1.52020    1.36830  # c_1,c1,o_2,c_1
dihedral_coeff	13 bb13    0.00000    1.36830    1.10100  # c_1,o_2,c1,hc
dihedral_coeff	14 bb13    0.00000    1.10100    1.10100  # hc,c,c,hc
dihedral_coeff	15 bb13    0.00000    1.10100    1.10100  # hc,c,c1,hc
dihedral_coeff	16 bb13    0.00000    1.10100    1.43000  # hc,c,c1,o_2
dihedral_coeff	17 bb13    0.00000    1.10100    1.20200  # hc,c,c_1,o_1
dihedral_coeff	18 bb13    0.00000    1.10100    1.36830  # hc,c,c_1,o_2
dihedral_coeff	19 bb13    0.00000    1.10100    1.20200  # hc,c1,c_1,o_1
dihedral_coeff	20 bb13    0.00000    1.10100    1.36830  # hc,c1,c_1,o_2
dihedral_coeff	21 bb13    0.00000    0.95200    1.20200  # ho2,o_2,c_1,o_1
dihedral_coeff	22 bb13    0.00000    1.20200    1.43000  # o_1,c_1,c1,o_2
dihedral_coeff	23 bb13    0.00000    1.43000    1.36830  # o_2,c1,c_1,o_2

# Improper Coeffs

improper_coeff	 1    0.00000    0.00000  # c,c,hc,c_1
improper_coeff	 2    0.00000    0.00000  # c,c,hc,hc
improper_coeff	 3    0.00000    0.00000  # c,c1,hc,hc
improper_coeff	 4    0.00000    0.00000  # c,c_1,hc,hc
improper_coeff	 5    0.00000    0.00000  # c,hc,hc,hc
improper_coeff	 6    0.00000    0.00000  # c1,c,hc,c_1
improper_coeff	 7    0.00000    0.00000  # c1,c,hc,o_2
improper_coeff	 8    0.00000    0.00000  # c1,c,o_2,c_1
improper_coeff	 9    0.00000    0.00000  # c1,c_1,hc,o_2
improper_coeff	10   46.92640    0.00000  # c_1,c,o_2,o_1
improper_coeff	11   46.92640    0.00000  # c_1,c1,o_2,o_1

# AngleAngle Coeffs

improper_coeff	 1 aa    1.08270   -1.82020    2.04030  110.77000  108.52950  107.73360  # c,c,hc,c_1
improper_coeff	 2 aa    0.27380   -0.48250    0.27380  110.77000  110.77000  107.66000  # c,c,hc,hc
improper_coeff	 3 aa    0.27380   -0.48250    0.27380  110.77000  110.77000  107.66000  # c,c1,hc,hc
improper_coeff	 4 aa   -3.38670   -3.49760   -3.38670  107.73360  107.73360  107.66000  # c,c_1,hc,hc
improper_coeff	 5 aa   -0.31570   -0.31570   -0.31570  107.66000  107.66000  107.66000  # c,hc,hc,hc
improper_coeff	 6 aa    1.08270   -1.82020    2.04030  110.77000  108.52950  107.73360  # c1,c,hc,c_1
improper_coeff	 7 aa    0.00000    0.00000    0.00000  110.77000  107.41000  107.68800  # c1,c,hc,o_2
improper_coeff	 8 aa    0.00000    0.00000    0.00000  107.41000  108.52950  109.50000  # c1,c,o_2,c_1
improper_coeff	 9 aa    0.00000    0.00000    0.00000  107.73360  109.50000  107.68800  # c1,c_1,hc,o_2
improper_coeff	10 aa    0.00000    0.00000    0.00000  100.31820  123.14510  120.79700  # c_1,c,o_2,o_1
improper_coeff	11 aa    0.00000    0.00000    0.00000  100.31820  123.14510  120.79700  # c_1,c1,o_2,o_1


# --- Thermo Output ---
thermo_style custom step time temp press enthalpy etotal ke pe ebond eangle edihed eimp evdwl ecoul elong etail vol lx ly lz density pxx pyy pzz
thermo_modify flush yes
thermo 1000

# --- Trajectory ---
dump dump_nvt all custom 1000 nvt_softheat.dump id type mol x y z ix iy iz vx vy vz

# --- Restart Checkpointing ---
restart 10000 nvt_1.rst nvt_2.rst

# --- Initial Velocities (optional) ---
velocity all create 300.0 798365 mom yes rot yes dist gaussian

# --- SHAKE Constraints ---
# Constrains H-X bonds to allow 2fs timestep
# SHAKE disabled

# --- NVT Thermostat (Nose-Hoover) ---
# T_damp = 50.0 fs  (coupling timescale for heat exchange)
# Ramp: 300.0 K -> 700.0 K over 300000 steps
timestep 0.5
fix nvt_fix all nvt temp 300.0 700.0 50.0

run 300000
PPPM Kokkos initialization ...
  using 12-bit tables for long-range coulomb
  G vector (1/distance) = 0.33126545
  grid = 48 48 48
  stencil order = 5
  estimated absolute RMS force accuracy = 0.00036388948
  estimated relative force accuracy = 1.0958424e-06
  using double precision cuFFT
  3d grid and FFT values/proc = 166375 110592
Generated 21 of 21 mixed pair_coeff terms from sixthpower/sixthpower mixing rule
Neighbor list info ...
  update: every = 1 steps, delay = 0 steps, check = yes
  max neighbors/atom: 4000, page size: 100000
  master list distance cutoff = 11.5
  ghost atom cutoff = 11.5
  binsize = 11.5, bins = 4 4 4
  1 neighbor lists, perpetual/occasional/extra = 1 0 0
  (1) pair lj/class2/coul/long/kk, perpetual
      attributes: full, newton off, kokkos_device
      pair build: full/bin/kk/device
      stencil: full/bin/3d
      bin: kk/device
Per MPI rank memory allocation (min/avg/max) = 35.89 | 35.89 | 35.89 Mbytes
   Step          Time           Temp          Press         Enthalpy        TotEng         KinEng         PotEng         E_bond        E_angle        E_dihed        E_impro         E_vdwl         E_coul         E_long         E_tail         Volume           Lx             Ly             Lz          Density          Pxx            Pyy            Pzz      
         0   0              300            1114.1755      16209.826      14665.745      4041.0842      10624.661      552.34154      1964.84       -3583.5564      10.120479     -1523.7979      44066.456     -30861.743     -199.02368      95025.593      45.633123      45.633123      45.633123      0.62999999     1092.5683      1195.5818      1054.3763    
      1000   500            306.58318      582.26035      19685.276      18878.35       4129.7615      14748.589      2050.681       3646.8323     -3271.5591      156.30502     -1084.9308      44087.108     -30835.847     -199.02368      95025.593      45.633123      45.633123      45.633123      0.62999999     718.26292      557.20035      471.3178     
      2000   1000           295.46561     -406.26485      18096.273      18659.295      3980.0046      14679.291      2064.7412      3696.1886     -3286.809       138.97201     -1152.3051      44064.192     -30845.689     -199.02368      95025.593      45.633123      45.633123      45.633123      0.62999999    -246.67832     -410.45067     -561.66555    
      3000   1500           300.09416     -150.52076      18408.009      18616.609      4042.3525      14574.256      2022.5731      3589.8978     -3354.2324      152.25821     -1086.4457      44092.477     -30842.272     -199.02368      95025.593      45.633123      45.633123      45.633123      0.62999999    -75.481346     -867.55743      491.47649    
      4000   2000           304.29571     -821.7977       17664.884      18803.773      4098.9486      14704.825      2113.0614      3711.7369     -3316.4151      148.90319     -1159.8265      44053.139     -30845.774     -199.02368      95025.593      45.633123      45.633123      45.633123      0.62999999     68.387165     -1389.0205     -1144.7597    
      5000   2500           304.18975     -294.75741      18360.803      18769.293      4097.5213      14671.771      2078.8795      3647.1929     -3395.0989      159.7715      -1077.9547      44092.999     -30834.018     -199.02368      95025.593      45.633123      45.633123      45.633123      0.62999999     274.22137     -1007.79       -150.70364    
      6000   3000           303.31743     -404.65946      18150.043      18710.84       4085.7708      14625.07       2065.8187      3672.3688     -3372.8861      156.68388     -1169.0489      44107.623     -30835.49      -199.02368      95025.593      45.633123      45.633123      45.633123      0.62999999    -279.76673     -671.19847     -263.01319    
      7000   3500           310.73445     -68.210005      18680.332      18774.861      4185.6803      14589.181      2097.7787      3671.1177     -3382.0728      147.78119     -1157.9569      44066.108     -30853.575     -199.02368      95025.593      45.633123      45.633123      45.633123      0.62999999    -49.758132     -287.18418      132.3123     
      8000   4000           310.10202     -185.98394      18548.074      18805.82       4177.1613      14628.659      2114.8246      3659.2757     -3334.983       179.04543     -1173.4779      44034.522     -30850.547     -199.02368      95025.593      45.633123      45.633123      45.633123      0.62999999     593.08462     -1407.0243      255.98782    
      9000   4500           305.94329     -654.12079      17710.059      18616.573      4121.142       14495.431      2122.708       3685.5729     -3394.121       145.0223      -1242.0395      44016.801     -30838.513     -199.02368      95025.593      45.633123      45.633123      45.633123      0.62999999    -1314.7171     -712.97569      65.330385    
     10000   5000           314.97294     -724.88969      17729.465      18734.054      4242.7738      14491.28       2064.1712      3744.6365     -3385.8376      143.66509     -1251.7023      44037.105     -30860.758     -199.02368      95025.593      45.633123      45.633123      45.633123      0.62999999    -224.68073     -398.52888     -1551.4595    
     11000   5500           311.43526     -275.52669      18297.224      18679.063      4195.1203      14483.943      2091.4785      3704.0665     -3390.7341      152.84375     -1245.6546      44034.069     -30862.126     -199.02368      95025.593      45.633123      45.633123      45.633123      0.62999999     273.69172      516.59655     -1616.8683    
     12000   6000           311.56618     -170.31459      18468.892      18704.922      4196.8838      14508.038      2088.8416      3701.3973     -3383.0017      146.06207     -1233.5516      44051.797     -30863.506     -199.02368      95025.593      45.633123      45.633123      45.633123      0.62999999     167.73414     -367.74333     -310.93458    
     13000   6500           318.85124     -612.6328       17946.476      18795.493      4295.0157      14500.478      2109.649       3735.0304     -3362.7343      158.91323     -1280.0807      44011.748     -30872.048     -199.02368      95025.593      45.633123      45.633123      45.633123      0.62999999    -966.47129      185.40489     -1056.832     
     14000   7000           314.36542     -166.80492      18511.584      18742.75       4234.5904      14508.16       2137.7703      3714.6371     -3369.9651      153.88813     -1261.1014      43998.935     -30866.005     -199.02368      95025.593      45.633123      45.633123      45.633123      0.62999999    -543.18831      440.41529     -397.64175    
     15000   7500           319.49161     -628.17213      17991.656      18862.209      4303.6417      14558.567      2123.4841      3769.6587     -3382.5128      169.27915     -1293.4009      44033.152     -30861.094     -199.02368      95025.593      45.633123      45.633123      45.633123      0.62999999    -1024.8319     -599.81389     -259.87056    
     16000   8000           322.98006     -277.09383      18472.254      18856.265      4350.632       14505.633      2112.4651      3794.0785     -3475.08        168.23426     -1287.5441      44058.3       -30864.821     -199.02368      95025.593      45.633123      45.633123      45.633123      0.62999999     263.03908     -126.76904     -967.55153    
     17000   8500           325.43925      185.28928      19141.81       18885.026      4383.758       14501.269      2128.5175      3788.6479     -3477.1591      165.94838     -1279.074       44032.165     -30857.777     -199.02368      95025.593      45.633123      45.633123      45.633123      0.62999999    -702.72501      920.05194      338.54091    
     18000   9000           324.81635     -43.229289      18807.365      18867.274      4375.3674      14491.907      2114.5436      3770.2443     -3400.2445      147.94711     -1295.7287      44018.813     -30863.669     -199.02368      95025.593      45.633123      45.633123      45.633123      0.62999999    -426.02823      252.35407      43.986298    
     19000   9500           329.61991      148.5239       19233.61       19027.778      4440.0727      14587.705      2192.2388      3791.1303     -3423.0519      172.83827     -1281.5533      44004.59      -30868.487     -199.02368      95025.593      45.633123      45.633123      45.633123      0.62999999     626.59598      126.02723     -307.05152    
     20000   10000          323.11847      31.406343      18913.55       18870.026      4352.4964      14517.529      2101.47        3857.7329     -3428.2899      151.35487     -1308.8361      44022.741     -30878.643     -199.02368      95025.593      45.633123      45.633123      45.633123      0.62999999     775.49771     -60.027507     -621.25118    
     21000   10500          326.5763      -831.87132      17785.493      18938.343      4399.0744      14539.268      2246.1693      3813.3885     -3449.1396      156.19051     -1327.7332      43972.054     -30871.662     -199.02368      95025.593      45.633123      45.633123      45.633123      0.62999999    -1030.4039     -719.63988     -745.57015    
     22000   11000          328.67884     -535.52479      18093.546      18835.703      4427.3963      14408.307      2213.0563      3797.3899     -3497.4116      156.38444     -1355.0457      43972.939     -30879.005     -199.02368      95025.593      45.633123      45.633123      45.633123      0.62999999    -896.2451      -676.35294     -33.976327    
     23000   11500          332.41353     -670.83294      18026.682      18956.356      4477.7035      14478.653      2254.2265      3890.1996     -3556.3273      154.97683     -1345.7664      43952.487     -30871.144     -199.02368      95025.593      45.633123      45.633123      45.633123      0.62999999    -563.94422     -589.24689     -859.3077     
     24000   12000          335.31994     -573.74074      18221.044      19016.163      4516.8537      14499.309      2221.6291      3894.6551     -3538.1856      169.9502      -1347.7213      43972.488     -30873.506     -199.02368      95025.593      45.633123      45.633123      45.633123      0.62999999    -1205.795      -411.09394     -104.3333     
     25000   12500          335.06138     -522.78063      18401.769      19126.265      4513.3708      14612.894      2283.8863      3951.7113     -3539.261       159.90026     -1304.4839      43936.469     -30875.328     -199.02368      95025.593      45.633123      45.633123      45.633123      0.62999999     21.132441     -1412.1276     -177.34674    
     26000   13000          333.07105     -1523.16        16860.539      18971.412      4486.5605      14484.851      2187.4998      3896.0977     -3522.0367      173.47796     -1333.3183      43956.811     -30873.681     -199.02368      95025.593      45.633123      45.633123      45.633123      0.62999999    -1093.9575     -1049.6817     -2425.8408    
     27000   13500          337.21471     -535.27389      18363.022      19104.832      4542.3767      14562.455      2223.6382      3986.247      -3564.8479      169.76856     -1311.764       43943.502     -30884.089     -199.02368      95025.593      45.633123      45.633123      45.633123      0.62999999     112.28273     -1381.9785     -336.12585    
     28000   14000          336.50216     -1095.9167      17653.92       19172.697      4532.7785      14639.918      2341.0676      3980.4858     -3574.1027      153.01986     -1341.3184      43957.846     -30877.079     -199.02368      95025.593      45.633123      45.633123      45.633123      0.62999999    -859.91304     -831.31668     -1596.5204    
     29000   14500          337.04829     -479.39576      18437.999      19102.37       4540.135       14562.235      2295.5347      3803.855      -3515.5317      177.23577     -1290.4654      43970.856     -30879.249     -199.02368      95025.593      45.633123      45.633123      45.633123      0.62999999    -1260.1662      821.14336     -999.16445    
     30000   15000          337.31152     -579.81434      18341.532      19145.068      4543.6808      14601.388      2332.7192      3874.656      -3510.6209      163.6381      -1360.0903      43980.485     -30879.399     -199.02368      95025.593      45.633123      45.633123      45.633123      0.62999999    -66.745        -628.17533     -1044.5227    
     31000   15500          348.11016     -258.67058      18929.666      19288.145      4689.1416      14599.003      2250.4787      3956.2955     -3501.6595      169.14921     -1349.0599      43954.6       -30880.8       -199.02368      95025.593      45.633123      45.633123      45.633123      0.62999999    -1304.2336     -456.52879      984.75068    
     32000   16000          338.83897     -574.67526      18311.775      19108.189      4564.256       14543.933      2203.5236      3894.6946     -3548.3625      166.77528     -1326.9912      44027.91      -30873.617     -199.02368      95025.593      45.633123      45.633123      45.633123      0.62999999    -791.44033     -845.70643     -86.879036    
     33000   16500          333.7871      -7.1402636      19147.871      19157.766      4496.2059      14661.56       2372.472       3907.6429     -3550.4949      165.33581     -1342.7366      43985.647     -30876.306     -199.02368      95025.593      45.633123      45.633123      45.633123      0.62999999    -1016.8667     -99.495025      1094.9409    
     34000   17000          352.04405     -971.14837      18126.907      19472.774      4742.1321      14730.642      2399.5496      4069.2827     -3553.7024      154.55515     -1401.3139      43952.004     -30889.734     -199.02368      95025.593      45.633123      45.633123      45.633123      0.62999999    -1396.4091     -696.64386     -820.3921     
     35000   17500          342.3961      -409.2561       18627.101      19194.269      4612.1716      14582.098      2358.7307      3888.7238     -3513.6017      171.47846     -1374.1635      43934.559     -30883.628     -199.02368      95025.593      45.633123      45.633123      45.633123      0.62999999    -789.40254      160.00926     -598.37503    
     36000   18000          349.88373      387.65671      19737.327      19200.093      4713.0321      14487.061      2222.9364      3872.9102     -3517.2221      147.1848      -1356.6878      44010.497     -30892.558     -199.02368      95025.593      45.633123      45.633123      45.633123      0.62999999    -514.30703     -48.063178      1725.3403    
     37000   18500          350.76967     -648.26015      18402.515      19300.907      4724.9659      14575.941      2300.1176      3917.6717     -3546.9217      179.01872     -1368.3133      43975.083     -30880.716     -199.02368      95025.593      45.633123      45.633123      45.633123      0.62999999    -417.05591     -448.74864     -1078.9759    
     38000   19000          355.00255     -321.09549      18912.634      19357.624      4781.984       14575.64       2319.5355      4012.6741     -3651.6879      166.71849     -1398.6035      43996.288     -30869.284     -199.02368      95025.593      45.633123      45.633123      45.633123      0.62999999    -688.04932     -259.20898     -16.028177    
     39000   19500          354.25214     -1084.6106      17934.428      19437.537      4771.8757      14665.661      2354.4365      4092.8497     -3630.4342      158.90938     -1399.5252      43969.265     -30879.84      -199.02368      95025.593      45.633123      45.633123      45.633123      0.62999999    -800.24095     -710.30474     -1743.286     
     40000   20000          357.47497     -1455.4392      17370.332      19387.353      4815.2882      14572.065      2391.8109      3973.5769     -3611.0985      145.1622      -1387.9276      43938.232     -30877.691     -199.02368      95025.593      45.633123      45.633123      45.633123      0.62999999    -1319.6677     -1356.1659     -1690.484     
     41000   20500          358.6397      -766.86297      18575.625      19638.383      4830.9774      14807.405      2430.0806      4042.6326     -3602.023       181.0884      -1347.294       43971.587     -30868.667     -199.02368      95025.593      45.633123      45.633123      45.633123      0.62999999    -1572.6314     -396.67719     -331.28036    
     42000   21000          356.28398     -435.16642      18942.842      19545.918      4799.2452      14746.673      2412.8381      4047.0206     -3644.404       189.36138     -1344.7854      43956.934     -30870.292     -199.02368      95025.593      45.633123      45.633123      45.633123      0.62999999    -978.25782     -176.66263     -150.57879    
     43000   21500          357.42637     -431.67438      18860.387      19458.623      4814.6335      14643.989      2375.3119      4006.269      -3666.4131      162.89703     -1314.6104      43956.04      -30875.505     -199.02368      95025.593      45.633123      45.633123      45.633123      0.62999999    -1734.36        235.23943      204.09742    
     44000   22000          352.36944     -422.56781      18803.975      19389.591      4746.5153      14643.076      2379.5688      4043.7039     -3612.6791      169.56498     -1368.6346      43911.719     -30880.167     -199.02368      95025.593      45.633123      45.633123      45.633123      0.62999999    -457.92691      294.8101      -1104.5866    
     45000   22500          360.0121      -487.45107      18882.199      19557.733      4849.464       14708.269      2367.2463      3958.5762     -3571.4045      178.07471     -1345.406       43995.044     -30873.862     -199.02368      95025.593      45.633123      45.633123      45.633123      0.62999999    -469.17473     -588.62972     -404.54877    
     46000   23000          354.03844     -1478.7147      17330.191      19379.469      4768.9971      14610.472      2437.2406      3934.4824     -3641.4802      199.63658     -1379.7555      43928.922     -30868.573     -199.02368      95025.593      45.633123      45.633123      45.633123      0.62999999    -1359.4575     -1767.6253     -1309.0612    
     47000   23500          362.71087     -867.83832      18368.499      19571.194      4885.8171      14685.377      2455.5144      4025.0961     -3675.2547      170.57446     -1352.1924      43933.047     -30871.408     -199.02368      95025.593      45.633123      45.633123      45.633123      0.62999999    -1829.8261      183.55745     -957.24632    
     48000   24000          362.13708      150.68532      19904.78       19695.953      4878.0881      14817.865      2394.0353      4049.8188     -3600.0502      179.35055     -1322.1805      43988.618     -30871.728     -199.02368      95025.593      45.633123      45.633123      45.633123      0.62999999     428.02933     -375.2051       399.23171    
     49000   24500          368.67003     -302.64055      19338.885      19758.3        4966.0888      14792.211      2447.7235      4168.6181     -3691.3528      162.31447     -1366.6419      43944.939     -30873.39      -199.02368      95025.593      45.633123      45.633123      45.633123      0.62999999    -597.60656     -238.9839      -71.33119     
     50000   25000          364.0507      -173.36943      19389.611      19629.875      4903.8651      14726.01       2403.6074      4116.281      -3646.0367      165.00266     -1366.482       43931.814     -30878.176     -199.02368      95025.593      45.633123      45.633123      45.633123      0.62999999     673.07553      207.04682     -1400.2306    
     51000   25500          365.41405     -810.16623      18427.246      19550.015      4922.2298      14627.786      2441.515       4084.0136     -3748.2812      165.83757     -1328.2883      43896.647     -30883.658     -199.02368      95025.593      45.633123      45.633123      45.633123      0.62999999    -1145.9947     -1399.9527      115.44874    
     52000   26000          372.82793      172.58631      20041.943      19802.764      5022.0969      14780.668      2369.1955      4161.0416     -3622.196       170.234       -1405.2125      43983.432     -30875.827     -199.02368      95025.593      45.633123      45.633123      45.633123      0.62999999    -155.54731      125.00137      548.30487    
     53000   26500          371.2404      -1216.5839      18017.947      19703.951      5000.7124      14703.238      2512.9869      4027.2811     -3677.7504      174.66277     -1349.7744      43900.612     -30884.78      -199.02368      95025.593      45.633123      45.633123      45.633123      0.62999999    -465.86093     -1433.9178     -1749.9729    
     54000   27000          363.15407     -456.69128      19058.925      19691.831      4891.7872      14800.044      2486.8543      4074.2853     -3693.8853      185.09853     -1341.5491      43971.865     -30882.624     -199.02368      95025.593      45.633123      45.633123      45.633123      0.62999999    -921.00491     -699.72525      250.65632    
     55000   27500          373.94464     -1007.3227      18372.634      19768.633      5037.1392      14731.494      2429.502       4142.7582     -3666.559       169.88102     -1389.2569      43912.298     -30867.13      -199.02368      95025.593      45.633123      45.633123      45.633123      0.62999999    -729.48082     -1235.0128     -1057.4745    
     56000   28000          375.36668     -1139.3766      18346.78       19925.786      5056.2945      14869.492      2527.8692      4198.5745     -3659.3147      182.212       -1406.3544      43904.861     -30878.356     -199.02368      95025.593      45.633123      45.633123      45.633123      0.62999999    -1837.0215     -627.10804     -954.0003     
     57000   28500          371.14004     -433.07168      19279.003      19879.176      4999.3605      14879.815      2565.8596      4076.2589     -3636.4061      176.74277     -1304.45        43885.646     -30883.836     -199.02368      95025.593      45.633123      45.633123      45.633123      0.62999999    -284.16186     -669.6367      -345.41648    
     58000   29000          385.82716     -1414.1553      18099.54       20059.348      5197.2002      14862.148      2495.4294      4221.6003     -3733.3205      181.7182      -1312.387       43884.832     -30875.724     -199.02368      95025.593      45.633123      45.633123      45.633123      0.62999999    -1172.5736     -1557.9846     -1511.9077    
     59000   29500          373.24296     -1420.4249      17916.472      19884.969      5027.6873      14857.281      2510.8593      4166.6947     -3692.3833      173.22684     -1368.3904      43939.92      -30872.646     -199.02368      95025.593      45.633123      45.633123      45.633123      0.62999999    -1925.9118     -1243.9262     -1091.4365    
     60000   30000          372.21115     -725.37911      18916.767      19922.034      5013.7886      14908.245      2501.089       4225.9631     -3654.352       169.9455      -1399.0307      43942.698     -30878.067     -199.02368      95025.593      45.633123      45.633123      45.633123      0.62999999    -328.89015     -1126.862      -720.3852     
     61000   30500          384.22229     -826.38502      18904.4        20049.646      5175.5821      14874.064      2539.246       4121.1712     -3672.9154      190.72777     -1356.5854      43933.75      -30881.33      -199.02368      95025.593      45.633123      45.633123      45.633123      0.62999999    -1190.229       269.9869      -1558.913     
     62000   31000          383.86867     -154.65567      19837.318      20051.648      5170.8187      14880.829      2538.2079      4151.0788     -3698.3263      212.59232     -1347.9978      43910.739     -30885.465     -199.02368      95025.593      45.633123      45.633123      45.633123      0.62999999    -335.12892      30.635239     -159.47332    
     63000   31500          394.74898     -823.57194      19100.806      20242.154      5317.3795      14924.774      2505.153       4287.0644     -3660.633       182.65426     -1421.033       43920.147     -30888.579     -199.02368      95025.593      45.633123      45.633123      45.633123      0.62999999     325.11636     -2583.4889     -212.3433     
     64000   32000          377.07611     -1001.5019      18718.545      20106.477      5079.3211      15027.156      2585.113       4240.4492     -3644.3175      208.74031     -1379.5348      43911.692     -30894.986     -199.02368      95025.593      45.633123      45.633123      45.633123      0.62999999    -1370.6245     -757.83764     -876.04365    
     65000   32500          381.05372     -844.908        18920.403      20091.32       5132.9005      14958.419      2560.4432      4156.6538     -3639.8775      207.83843     -1362.857       43917.856     -30881.638     -199.02368      95025.593      45.633123      45.633123      45.633123      0.62999999    -1040.3446     -555.46426     -938.91514    
     66000   33000          393.07823     -483.4265       19591.296      20261.253      5294.874       14966.379      2478.0228      4164.9482     -3628.28        207.49501     -1329.6843      43960.491     -30886.613     -199.02368      95025.593      45.633123      45.633123      45.633123      0.62999999     441.24067     -1652.0217     -239.49844    
     67000   33500          386.8707      -53.192908      20114.985      20188.703      5211.2568      14977.446      2580.0348      4196.7495     -3635.1801      204.67881     -1380.2411      43909.717     -30898.313     -199.02368      95025.593      45.633123      45.633123      45.633123      0.62999999    -365.517        951.4425      -745.50423    
     68000   34000          391.77927      173.47973      20533.509      20293.092      5277.3767      15015.715      2537.1083      4222.163      -3648.6277      200.1639      -1328.2905      43915.699     -30882.501     -199.02368      95025.593      45.633123      45.633123      45.633123      0.62999999    -26.124764      797.36108     -250.79714    
     69000   34500          394.84011     -1018.9402      18886.959      20299.058      5318.6071      14980.451      2593.3148      4272.8103     -3699.6688      197.28707     -1360.3839      43866.994     -30889.903     -199.02368      95025.593      45.633123      45.633123      45.633123      0.62999999    -1390.107      -920.09575     -746.61791    
     70000   35000          390.75284     -1229.4549      18643.904      20347.745      5263.5504      15084.194      2669.7688      4329.8831     -3711.8978      194.1845      -1368.6657      43859.094     -30888.173     -199.02368      95025.593      45.633123      45.633123      45.633123      0.62999999    -1939.2757     -753.55254     -995.53633    
     71000   35500          390.27435     -1041.7702      18778.523      20222.261      5257.105       14965.156      2545.2799      4292.4566     -3677.21        195.5006      -1393.698       43894.867     -30892.04      -199.02368      95025.593      45.633123      45.633123      45.633123      0.62999999    -468.67615     -952.20951     -1704.425     
     72000   36000          393.86473     -745.70714      19362.986      20396.424      5305.4685      15090.956      2583.6106      4280.6876     -3643.2646      208.32516     -1365.1006      43916.872     -30890.174     -199.02368      95025.593      45.633123      45.633123      45.633123      0.62999999    -482.46236     -503.5715      -1251.0876    
     73000   36500          403.47845      123.42748      20653.847      20482.795      5434.9679      15047.827      2623.6381      4223.312      -3685.2459      201.11526     -1331.5972      43895.042     -30878.438     -199.02368      95025.593      45.633123      45.633123      45.633123      0.62999999    -179.8453       417.6508       132.47693    
     74000   37000          393.34955     -1466.5713      18484.616      20517.065      5298.5288      15218.536      2752.5614      4282.1648     -3676.0409      196.52449     -1359.5468      43902.082     -30879.209     -199.02368      95025.593      45.633123      45.633123      45.633123      0.62999999    -1497.2312     -1883.0296     -1019.453     
     75000   37500          406.39967     -664.37396      19666.498      20587.221      5474.3176      15112.903      2611.1641      4201.664      -3638.8971      201.71425     -1303.8883      43917.772     -30876.625     -199.02368      95025.593      45.633123      45.633123      45.633123      0.62999999    -126.70019      325.9585      -2192.3802    
     76000   38000          400.67099     -915.68476      19263.397      20532.4        5397.1507      15135.249      2719.8717      4330.3952     -3761.8737      196.15816     -1339.3783      43870.502     -30880.426     -199.02368      95025.593      45.633123      45.633123      45.633123      0.62999999    -217.2571      -1158.4977     -1371.2995    
     77000   38500          405.87259     -927.14047      19344.655      20629.534      5467.2177      15162.316      2665.7701      4252.8626     -3684.505       197.61345     -1338.7845      43947.006     -30877.647     -199.02368      95025.593      45.633123      45.633123      45.633123      0.62999999    -1534.9068     -1608.7989      362.28435    
     78000   39000          417.54474     -350.18392      20282.962      20768.265      5624.4448      15143.82       2649.8912      4294.607      -3681.4418      209.39644     -1378.8428      43929.756     -30879.546     -199.02368      95025.593      45.633123      45.633123      45.633123      0.62999999    -703.25698      413.57907     -760.87384    
     79000   39500          405.29384     -551.6043       19798.679      20563.121      5459.4218      15103.699      2687.4981      4263.0136     -3699.2535      221.14408     -1378.7859      43894.925     -30884.843     -199.02368      95025.593      45.633123      45.633123      45.633123      0.62999999    -537.60593     -105.10741     -1012.0996    
     80000   40000          407.36868     -758.40491      19680.632      20731.668      5487.3704      15244.298      2732.2376      4314.1094     -3695.7914      181.76        -1298.0697      43894.721     -30884.669     -199.02368      95025.593      45.633123      45.633123      45.633123      0.62999999    -1257.7512     -717.95927     -299.50425    
     81000   40500          415.69996     -61.089576      20779.226      20863.887      5599.5951      15264.292      2778.9821      4299.28       -3666.0134      201.68786     -1390.2322      43923.973     -30883.386     -199.02368      95025.593      45.633123      45.633123      45.633123      0.62999999    -620.24645     -230.50491      667.48263    
     82000   41000          408.99487     -983.31137      19501.971      20864.694      5509.2756      15355.418      2768.1851      4396.1769     -3713.4498      216.86054     -1314.2077      43886.697     -30884.844     -199.02368      95025.593      45.633123      45.633123      45.633123      0.62999999    -755.90473     -358.94462     -1835.0848    
     83000   41500          408.10638     -451.48915      20077.465      20703.161      5497.3075      15205.854      2597.1458      4391.0124     -3673.3962      197.40707     -1325.7108      43906.087     -30886.692     -199.02368      95025.593      45.633123      45.633123      45.633123      0.62999999    -1103.8596     -259.50945      8.9016418    
     84000   42000          414.54444     -890.23543      19651.333      20885.066      5584.0299      15301.036      2680.7134      4326.4761     -3605.9845      180.89925     -1289.6354      43889.145     -30880.578     -199.02368      95025.593      45.633123      45.633123      45.633123      0.62999999    -428.89569     -1411.4926     -830.31803    
     85000   42500          410.82797      175.74605      21075.175      20831.617      5533.9681      15297.649      2696.7765      4384.0727     -3703.7714      204.8977      -1356.3075      43949.619     -30877.638     -199.02368      95025.593      45.633123      45.633123      45.633123      0.62999999     1016.7018     -539.42217      49.95855     
     86000   43000          413.63005     -281.24686      20562.01       20951.777      5571.7128      15380.064      2763.5519      4407.8991     -3657.8437      205.11046     -1329.383       43873.486     -30882.757     -199.02368      95025.593      45.633123      45.633123      45.633123      0.62999999     1055.4704     -2529.7812      630.57024    
     87000   43500          419.97309     -1765.8975      18517.409      20964.68       5657.1553      15307.524      2762.6771      4377.514      -3682.3168      205.56498     -1384.6621      43904.284     -30875.537     -199.02368      95025.593      45.633123      45.633123      45.633123      0.62999999    -1018.3004     -2259.1268     -2020.2652    
     88000   44000          422.32217      170.17756      21376.421      21140.58       5688.7981      15451.782      2742.735       4440.9927     -3656.984       185.80217     -1286.5989      43908.233     -30882.398     -199.02368      95025.593      45.633123      45.633123      45.633123      0.62999999     818.8579       296.23065     -604.55587    
     89000   44500          414.60712      128.01681      21081.21       20903.798      5584.8743      15318.923      2792.273       4367.1343     -3715.9385      198.24207     -1322.2394      43875.513     -30876.061     -199.02368      95025.593      45.633123      45.633123      45.633123      0.62999999     407.05712      246.19502     -269.2017     
     90000   45000          417.30947     -1180.9278      19152.399      20788.989      5621.2757      15167.713      2688.1997      4390.2948     -3685.0531      199.83794     -1452.3102      43905.823     -30879.078     -199.02368      95025.593      45.633123      45.633123      45.633123      0.62999999    -1642.3809     -1231.5056     -668.89674    
     91000   45500          424.01976     -62.291388      21003.547      21089.874      5711.6651      15378.209      2722.6634      4411.1361     -3656.7048      197.08377     -1339.6694      43924.362     -30880.663     -199.02368      95025.593      45.633123      45.633123      45.633123      0.62999999    -647.02604     -312.23853      772.39041    
     92000   46000          420.66412     -785.6786       20050.2        21139.034      5666.4637      15472.57       2751.272       4449.0377     -3641.348       223.05762     -1334.512       43900.462     -30875.4       -199.02368      95025.593      45.633123      45.633123      45.633123      0.62999999    -804.44063     -419.70787     -1132.8873    
     93000   46500          427.70758     -679.23668      20168.668      21109.988      5761.3411      15348.647      2713.5568      4378.5565     -3626.8121      193.0693      -1335.12        43915.825     -30890.428     -199.02368      95025.593      45.633123      45.633123      45.633123      0.62999999    -970.45902     -527.88801     -539.36302    
     94000   47000          425.08436     -381.37507      20675.102      21203.631      5726.0056      15477.625      2810.3641      4405.7849     -3700.124       230.90109     -1359.8285      43952.202     -30861.674     -199.02368      95025.593      45.633123      45.633123      45.633123      0.62999999    -543.26791     -574.0265      -26.830791    
     95000   47500          421.79927      229.83659      21641.96       21323.441      5681.7545      15641.686      2855.0913      4542.1968     -3686.7642      223.8904      -1291.1269      43873.321     -30874.922     -199.02368      95025.593      45.633123      45.633123      45.633123      0.62999999    -992.79629      232.56586      1449.7402    
     96000   48000          432.65232     -292.80454      20812.357      21218.14       5827.9481      15390.192      2782.3895      4441.1065     -3684.4409      208.58525     -1393.4677      43908.513     -30872.494     -199.02368      95025.593      45.633123      45.633123      45.633123      0.62999999    -509.26754      1034.9995     -1404.1456    
     97000   48500          431.96473     -1329.6238      19476.232      21318.893      5818.6861      15500.207      2795.0442      4509.4015     -3686.6578      221.86397     -1309.5215      43852.945     -30882.869     -199.02368      95025.593      45.633123      45.633123      45.633123      0.62999999    -1005.2879     -1669.5284     -1314.0551    
     98000   49000          422.92323     -1322.2352      19444.401      21276.822      5696.8947      15579.927      2834.5349      4496.8126     -3641.2682      211.60483     -1339.183       43895.077     -30877.651     -199.02368      95025.593      45.633123      45.633123      45.633123      0.62999999    -1145.8722     -2017.3172     -803.51624    
     99000   49500          432.64675     -498.54449      20549.104      21240.013      5827.8732      15412.14       2754.1387      4470.5614     -3731.7642      205.21079     -1328.8768      43927.42      -30884.551     -199.02368      95025.593      45.633123      45.633123      45.633123      0.62999999    -978.65556      332.65994     -849.63786    
    100000   50000          431.60647     -1102.0604      19863.298      21390.59       5813.8602      15576.729      2880.969       4469.7893     -3725.586       205.75566     -1279.125       43905.561     -30880.634     -199.02368      95025.593      45.633123      45.633123      45.633123      0.62999999    -1988.0287     -1679.6573      361.50474    
    101000   50500          429.93538      238.18001      21577.722      21247.64       5791.3503      15456.29       2715.3376      4511.717      -3702.9938      210.10231     -1328.1183      43936.154     -30885.909     -199.02368      95025.593      45.633123      45.633123      45.633123      0.62999999    -66.637681      104.14524      677.03249    
    102000   51000          445.2075      -887.63208      20329.231      21559.357      5997.0699      15562.287      2939.8965      4539.5941     -3739.7856      198.30873     -1392.1768      43897.425     -30880.976     -199.02368      95025.593      45.633123      45.633123      45.633123      0.62999999    -1301.8794     -1547.3326      186.31578    
    103000   51500          432.51159      982.44056      22750.623      21389.107      5826.0525      15563.054      2776.8038      4431.7854     -3651.0198      203.65423     -1275.5581      43960.509     -30883.12      -199.02368      95025.593      45.633123      45.633123      45.633123      0.62999999     471.0205       783.30249      1692.9987    
    104000   52000          438.09631     -148.64076      21297.504      21503.498      5901.2802      15602.217      2797.2901      4473.7353     -3616.0545      208.25897     -1303.0889      43923.148     -30881.071     -199.02368      95025.593      45.633123      45.633123      45.633123      0.62999999    -969.18218      561.8476      -38.587687    
    105000   52500          447.02717     -694.09403      20812.973      21774.884      6021.5815      15753.302      3006.4208      4548.1169     -3702.2586      221.01734     -1349.5449      43917.553     -30888.002     -199.02368      95025.593      45.633123      45.633123      45.633123      0.62999999    -446.44461     -1345.4915     -290.34594    
    106000   53000          441.10801     -553.14273      20773.871      21540.444      5941.8486      15598.595      2927.5571      4433.4497     -3626.4052      203.84819     -1356.7047      43903.35      -30886.5       -199.02368      95025.593      45.633123      45.633123      45.633123      0.62999999    -838.23392      442.1487      -1263.343     
    107000   53500          456.55914     -164.68136      21528.82       21757.044      6149.9797      15607.064      2910.4886      4444.8966     -3684.5223      217.64773     -1256.5815      43864.896     -30889.761     -199.02368      95025.593      45.633123      45.633123      45.633123      0.62999999    -271.23528     -980.37556      757.56677    
    108000   54000          443.47908     -418.36062      21157.93       21737.715      5973.7877      15763.927      3040.4703      4543.2014     -3746.9028      181.43281     -1252.3035      43875.835     -30877.806     -199.02368      95025.593      45.633123      45.633123      45.633123      0.62999999    -1545.439       358.0837      -67.726567    
    109000   54500          436.07301     -829.27033      20639.748      21788.993      5874.0258      15914.967      2997.0784      4620.8358     -3676.5344      202.07438     -1282.5817      43928.949     -30874.854     -199.02368      95025.593      45.633123      45.633123      45.633123      0.62999999    -776.10906     -139.17401     -1572.5279    
    110000   55000          445.11149      749.52044      22966.087      21927.363      5995.7767      15931.586      2862.3915      4726.0657     -3630.1359      210.03206     -1286.8141      43939.747     -30889.699     -199.02368      95025.593      45.633123      45.633123      45.633123      0.62999999     169.50685      987.8302       1091.2243    
    111000   55500          439.56748      285.22329      22122.422      21727.145      5921.0973      15806.048      2915.0088      4613.2841     -3680.6555      174.56269     -1195.9903      43869.589     -30889.751     -199.02368      95025.593      45.633123      45.633123      45.633123      0.62999999     296.65061      789.05973     -230.04048    
    112000   56000          449.08009     -762.29432      20737.242      21793.668      6049.2348      15744.433      2898.8615      4546.3198     -3675.3671      222.66657     -1274.7645      43905.425     -30878.708     -199.02368      95025.593      45.633123      45.633123      45.633123      0.62999999    -2200.0495      552.85299     -639.6865     
    113000   56500          451.60625     -97.172187      21792.391      21927.057      6083.2629      15843.794      2956.9649      4642.1579     -3731.2874      212.7476      -1260.0595      43904.91      -30881.64      -199.02368      95025.593      45.633123      45.633123      45.633123      0.62999999     560.46117     -159.0541      -692.92363    
    114000   57000          444.60174     -546.11422      21109.137      21865.97       5988.9102      15877.06       3031.8428      4632.635      -3708.7361      204.02667     -1309.7058      43901.243     -30874.246     -199.02368      95025.593      45.633123      45.633123      45.633123      0.62999999    -1490.203      -180.948        32.808326    
    115000   57500          466.55139     -217.45714      22061.643      22363.006      6284.5782      16078.428      2938.3665      4663.9656     -3634.0344      268.4906      -1224.0543      43934.563     -30868.869     -199.02368      95025.593      45.633123      45.633123      45.633123      0.62999999    -168.07097     -1206.3408      722.04037    
    116000   58000          450.05324     -88.902943      21864.583      21987.789      6062.3435      15925.446      3005.6338      4588.0795     -3714.2139      214.27765     -1255.1517      43959.116     -30872.295     -199.02368      95025.593      45.633123      45.633123      45.633123      0.62999999    -552.51587      640.54482     -354.73777    
    117000   58500          466.07478      394.75492      22789.658      22242.586      6278.1581      15964.428      3025.2786      4607.4755     -3647.0873      223.90872     -1282.0179      43910.836     -30873.965     -199.02368      95025.593      45.633123      45.633123      45.633123      0.62999999     89.202358      1227.0626     -132.00024    
    118000   59000          459.89067      159.98101      22426.225      22204.515      6194.8564      16009.659      2939.9562      4643.7657     -3607.5772      234.77136     -1259.9029      43930.043     -30871.397     -199.02368      95025.593      45.633123      45.633123      45.633123      0.62999999     328.00287     -815.42849      967.36867    
    119000   59500          460.66131     -789.33003      21079.348      22173.242      6205.2371      15968.005      2913.0196      4657.0654     -3625.9409      210.91871     -1238.3249      43930.874     -30879.607     -199.02368      95025.593      45.633123      45.633123      45.633123      0.62999999    -1496.9665     -680.08056     -190.94299    
    120000   60000          462.1059       0.62316929     22096.232      22095.368      6224.6961      15870.672      2910.9601      4519.0698     -3661.2233      238.0973      -1225.7936      43960.567     -30871.005     -199.02368      95025.593      45.633123      45.633123      45.633123      0.62999999     955.0516      -904.17353     -49.008554    
    121000   60500          467.08075     -834.65836      21101.11       22257.822      6291.7088      15966.113      2918.4388      4798.9501     -3741.9463      233.2624      -1323.3271      43944.084     -30863.349     -199.02368      95025.593      45.633123      45.633123      45.633123      0.62999999    -1817.5774     -90.517776     -595.87993    
    122000   61000          452.56239     -471.9969       21444.236      22098.353      6096.1424      16002.211      2960.1385      4666.4141     -3624.4602      237.26861     -1255.8028      43894.487     -30875.835     -199.02368      95025.593      45.633123      45.633123      45.633123      0.62999999    -1550.149       259.18788     -125.02964    
    123000   61500          474.648       -461.33096      21759.341      22398.677      6393.6418      16005.035      3020.7353      4600.0258     -3661.7842      224.54935     -1230.893       43922.436     -30870.034     -199.02368      95025.593      45.633123      45.633123      45.633123      0.62999999    -33.200351     -457.83521     -892.95731    
    124000   62000          473.81528     -1020.6622      20903.717      22318.203      6382.4248      15935.778      3005.9105      4625.1921     -3669.6935      234.98606     -1327.2555      43929.296     -30862.657     -199.02368      95025.593      45.633123      45.633123      45.633123      0.62999999    -79.663444     -993.51109     -1988.8121    
    125000   62500          458.39179     -188.70573      21931.16       22192.678      6174.666       16018.012      2902.1877      4665.1467     -3631.0524      240.69997     -1222.5106      43924.852     -30861.312     -199.02368      95025.593      45.633123      45.633123      45.633123      0.62999999    -211.37484     -291.70837     -63.033973    
    126000   63000          459.69694     -1445.3939      20352.728      22355.829      6192.2468      16163.582      3147.7122      4730.4983     -3743.1019      255.45818     -1290.9407      43935.692     -30871.736     -199.02368      95025.593      45.633123      45.633123      45.633123      0.62999999    -2519.0744     -998.23206     -818.8752     
    127000   63500          466.15331     -582.66528      21720.821      22528.308      6279.2158      16249.092      3126.8409      4661.268      -3638.3948      250.10138     -1220.9906      43949.779     -30879.512     -199.02368      95025.593      45.633123      45.633123      45.633123      0.62999999    -1630.1964     -643.51414      525.71472    
    128000   64000          469.2189      -226.40563      22215.877      22529.642      6320.5103      16209.132      3062.3985      4838.6106     -3671.1446      218.26321     -1293.291       43926.162     -30871.867     -199.02368      95025.593      45.633123      45.633123      45.633123      0.62999999    -627.69821      40.128246     -91.646933    
    129000   64500          477.43045     -683.81303      21727.177      22674.84       6431.1221      16243.718      3070.0913      4825.0216     -3648.6584      233.15488     -1263.7775      43909.756     -30881.87      -199.02368      95025.593      45.633123      45.633123      45.633123      0.62999999    -324.95297     -1567.6267     -158.85938    
    130000   65000          463.84903     -57.066961      22334.034      22413.12       6248.1766      16164.944      3095.536       4733.9173     -3642.64        227.05986     -1280.8218      43912.229     -30880.336     -199.02368      95025.593      45.633123      45.633123      45.633123      0.62999999    -549.81337      98.032883      280.5796     
    131000   65500          471.96852     -601.94036      21745.303      22579.502      6357.5485      16221.954      3117.8976      4746.3751     -3618.406       248.55698     -1337.8709      43938.204     -30872.803     -199.02368      95025.593      45.633123      45.633123      45.633123      0.62999999    -666.5919      -568.01978     -571.2094     
    132000   66000          470.92834     -2088.5997      19622.377      22516.865      6343.5369      16173.328      3059.8134      4810.5436     -3651.9625      225.76746     -1274.1847      43879.159     -30875.809     -199.02368      95025.593      45.633123      45.633123      45.633123      0.62999999    -2018.8076     -2281.168      -1965.8235    
    133000   66500          476.50457     -162.67624      22506.036      22731.481      6418.6502      16312.831      3098.8589      4773.4228     -3610.5178      230.91369     -1251.1299      43940.245     -30868.962     -199.02368      95025.593      45.633123      45.633123      45.633123      0.62999999    -435.30441     -544.8843       492.15999    
    134000   67000          483.69775     -319.17591      22178.943      22621.273      6515.5444      16105.729      3067.2278      4741.1922     -3729.0082      217.20117     -1259.9098      43943.14      -30874.114     -199.02368      95025.593      45.633123      45.633123      45.633123      0.62999999    -328.68227     -1177.2428      548.39732    
    135000   67500          484.26657     -102.99982      22543.453      22686.196      6523.2066      16162.989      3118.8757      4792.0261     -3717.0195      209.09692     -1241.6088      43884.255     -30882.636     -199.02368      95025.593      45.633123      45.633123      45.633123      0.62999999    -93.262253     -425.85121      210.114      
    136000   68000          479.17409     -679.6056       21738.134      22679.966      6454.6095      16225.357      3043.2974      4722.251      -3592.316       245.78746     -1223.5427      43921.991     -30892.111     -199.02368      95025.593      45.633123      45.633123      45.633123      0.62999999    -763.58684     -29.247257     -1245.9827    
    137000   68500          487.8678       644.70831      23685.773      22792.303      6571.7162      16220.587      3032.101       4818.329      -3655.2837      216.66451     -1205.7789      43900.037     -30885.482     -199.02368      95025.593      45.633123      45.633123      45.633123      0.62999999     66.031854      814.64217      1053.4509    
    138000   69000          479.14314      203.03467      22887.544      22606.168      6454.1925      16151.976      2976.5717      4744.1829     -3632.6531      235.30428     -1267.7081      43963.659     -30867.381     -199.02368      95025.593      45.633123      45.633123      45.633123      0.62999999     434.91054      309.14796     -134.95448    
    139000   69500          494.58731     -706.33138      21989.245      22968.114      6662.2298      16305.885      3156.7777      4774.1994     -3708.7026      238.96635     -1219.1164      43927.386     -30863.626     -199.02368      95025.593      45.633123      45.633123      45.633123      0.62999999    -138.90564     -1310.0688     -670.0197     
    140000   70000          490.44595      123.68393      23163.863      22992.455      6606.4446      16386.011      3113.9641      4873.0377     -3609.3777      222.51704     -1271.1045      43929.97      -30872.997     -199.02368      95025.593      45.633123      45.633123      45.633123      0.62999999     667.91838      407.67176     -704.53836    
    141000   70500          491.87893      189.48417      23136.468      22873.871      6625.7472      16248.124      3060.8167      4889.4146     -3725.4734      259.6997      -1233.1737      43875.542     -30878.702     -199.02368      95025.593      45.633123      45.633123      45.633123      0.62999999     1380.3574     -678.28881     -133.61612    
    142000   71000          477.57449      456.82123      23367.151      22734.065      6433.0624      16301.003      3123.787       4770.8856     -3714.9527      222.1108      -1139.8893      43907.333     -30868.272     -199.02368      95025.593      45.633123      45.633123      45.633123      0.62999999    -118.06391      220.64675      1267.8808    
    143000   71500          502.25814     -445.75655      22417.697      23035.449      6765.5581      16269.89       3095.0507      4903.9389     -3722.487       223.92449     -1268.1455      43922.764     -30885.155     -199.02368      95025.593      45.633123      45.633123      45.633123      0.62999999    -45.468681     -1214.0874     -77.713536    
    144000   72000          497.66453     -372.25965      22483.339      22999.235      6703.6808      16295.555      3091.4362      4933.7011     -3711.0421      208.27647     -1255.86        43904.872     -30875.83      -199.02368      95025.593      45.633123      45.633123      45.633123      0.62999999    -695.8687       224.29051     -645.20075    
    145000   72500          495.51202     -873.86036      21925.867      23136.907      6674.6859      16462.221      3170.8651      4851.448      -3619.8566      217.8015      -1226.6724      43948.415     -30879.78      -199.02368      95025.593      45.633123      45.633123      45.633123      0.62999999    -1752.1397     -911.18551      41.744111    
    146000   73000          500.24316     -684.09099      22126.526      23074.574      6738.4158      16336.158      3137.6653      4828.707      -3713.867       230.06521     -1257.9479      43974.903     -30863.368     -199.02368      95025.593      45.633123      45.633123      45.633123      0.62999999    -1062.5475     -371.32019     -618.4053     
    147000   73500          500.27485     -406.2226       22697.232      23260.196      6738.8426      16521.354      3127.4192      4891.5667     -3635.8176      243.53012     -1165.8866      43935.125     -30874.584     -199.02368      95025.593      45.633123      45.633123      45.633123      0.62999999     319.77574     -727.50387     -810.93966    
    148000   74000          497.67211     -76.451019      22873.154      22979.104      6703.783       16275.321      3107.4255      4753.8105     -3653.687       255.85092     -1263.6286      43944.541     -30868.992     -199.02368      95025.593      45.633123      45.633123      45.633123      0.62999999     1169.6639      430.37057     -1829.3876    
[...]
    255000   127500         651.71518     -214.43964      27159.931      27457.113      8778.7864      18678.326      4062.3627      5662.6156     -3597.863       334.56013     -933.66974      43991.153     -30840.832     -199.02368      95025.593      45.633123      45.633123      45.633123      0.62999999     756.76673     -1163.9106     -236.17502    
    256000   128000         645.92252     -1192.1945      25524.256      27176.46       8700.7576      18475.702      3918.9413      5667.0434     -3648.0078      338.66877     -911.84631      43944.821     -30833.918     -199.02368      95025.593      45.633123      45.633123      45.633123      0.62999999    -1190.824      -338.75914     -2047.0003    
    257000   128500         648.53321     -841.10363      26327.855      27493.499      8735.9243      18757.575      3989.9736      5851.1615     -3618.1196      307.56709     -867.62716      43928.543     -30833.924     -199.02368      95025.593      45.633123      45.633123      45.633123      0.62999999    -1420.9547     -403.65923     -698.697      
    258000   129000         647.384        152.11728      27671.433      27460.621      8720.4442      18740.177      3977.2095      5836.6587     -3613.9902      300.64738     -816.25788      43897.167     -30841.258     -199.02368      95025.593      45.633123      45.633123      45.633123      0.62999999     560.63317      470.94047     -575.22181    
    259000   129500         633.62805     -649.65899      26250.633      27150.963      8535.1476      18615.816      3919.6148      5834.5282     -3609.9993      290.48683     -898.60713      43911.028     -30831.236     -199.02368      95025.593      45.633123      45.633123      45.633123      0.62999999    -623.44285     -1090.8115     -234.72257    
    260000   130000         658.21404     -1293.9919      25865.352      27658.632      8866.3278      18792.304      4044.181       5801.9119     -3547.2402      313.09734     -881.08006      43893.134     -30831.7       -199.02368      95025.593      45.633123      45.633123      45.633123      0.62999999    -2553.585      -82.184302     -1246.2063    
    261000   130500         658.51493     -334.95356      26977.831      27442.026      8870.381       18571.645      4021.1459      5637.5872     -3610.0465      335.77256     -872.85015      43892.103     -30832.067     -199.02368      95025.593      45.633123      45.633123      45.633123      0.62999999    -500.72485     -1354.7152      850.57937    
    262000   131000         656.20708     -919.31565      26334.21       27608.245      8839.2935      18768.951      4006.82        5896.9315     -3562.5171      296.84772     -938.48785      43896.721     -30827.364     -199.02368      95025.593      45.633123      45.633123      45.633123      0.62999999    -253.35368     -1165.5905     -1339.0027    
    263000   131500         661.31586     -384.39254      27304.9        27837.611      8908.1102      18929.501      4097.2527      5850.3753     -3493.7821      293.82906     -932.68623      43945.443     -30830.931     -199.02368      95025.593      45.633123      45.633123      45.633123      0.62999999     255.37107     -2249.8676      841.31889    
    264000   132000         640.8891      -691.91187      26562.681      27521.568      8632.956       18888.612      3951.9012      5865.675      -3597.5541      323.73376     -841.859        44004.653     -30817.938     -199.02368      95025.593      45.633123      45.633123      45.633123      0.62999999    -1120.1948     -585.11872     -370.42208    
    265000   132500         658.79995     -1072.9635      26250.61       27737.577      8874.2202      18863.357      3989.7211      5831.3295     -3540.6125      306.35265     -792.64546      43892.983     -30823.771     -199.02368      95025.593      45.633123      45.633123      45.633123      0.62999999    -1525.2573     -577.25701     -1116.3762    
    266000   133000         640.03794     -906.43282      26351.792      27607.973      8621.4907      18986.482      4073.4063      5943.9602     -3624.7499      311.1322      -844.17611      43945.105     -30818.195     -199.02368      95025.593      45.633123      45.633123      45.633123      0.62999999    -1728.4231      16.4247       -1007.3001    
    267000   133500         652.51706     -1716.5022      25435.901      27814.717      8789.5879      19025.129      4017.5743      5931.7585     -3511.1223      317.73318     -936.36763      44029.589     -30824.036     -199.02368      95025.593      45.633123      45.633123      45.633123      0.62999999     15.49587      -2435.0811     -2729.9215    
    268000   134000         652.25821     -792.22888      26454.409      27552.32       8786.1011      18766.219      3976.9913      5713.9094     -3512.6659      311.81509     -844.68485      43948.504     -30827.65      -199.02368      95025.593      45.633123      45.633123      45.633123      0.62999999    -1042.9912     -88.700796     -1244.9946    
    269000   134500         661.4849      -399.585        27208.452      27762.217      8910.3872      18851.83       4041.0003      5879.9354     -3540.4303      291.19664     -955.95843      43958.119     -30822.032     -199.02368      95025.593      45.633123      45.633123      45.633123      0.62999999     374.96222     -1806.0747      232.35746    
    270000   135000         654.63035     -782.99072      26783.286      27868.395      8818.0545      19050.34       4009.0742      5896.43       -3505.6773      340.87904     -812.86765      43958.274     -30835.772     -199.02368      95025.593      45.633123      45.633123      45.633123      0.62999999     1584.5148     -903.92069     -3029.5663    
    271000   135500         664.04409      155.14941      27899.527      27684.513      8944.8602      18739.653      4096.9718      5724.8424     -3633.8141      352.29428     -863.68262      43892.975     -30829.934     -199.02368      95025.593      45.633123      45.633123      45.633123      0.62999999    -503.8999       1407.6773     -438.32916    
    272000   136000         681.25947     -288.43123      27612.369      28012.092      9176.7563      18835.336      4080.1915      5806.5483     -3642.8632      342.37164     -880.50876      43971.269     -30841.673     -199.02368      95025.593      45.633123      45.633123      45.633123      0.62999999     380.6073       284.23468     -1530.1357    
    273000   136500         642.91693     -166.11637      27541.455      27771.668      8660.2714      19111.396      4163.0113      5834.8036     -3515.056       295.69601     -823.69482      43989.007     -30832.371     -199.02368      95025.593      45.633123      45.633123      45.633123      0.62999999     328.43816     -394.09538     -432.69189    
    274000   137000         674.02601     -1074.7523      26620.777      28110.223      9079.3195      19030.904      4168.925       5845.5599     -3542.3055      331.76272     -966.93092      44011.788     -30817.896     -199.02368      95025.593      45.633123      45.633123      45.633123      0.62999999    -512.17283     -2033.8436     -678.24048    
    275000   137500         659.89976     -271.09099      27604.103      27979.795      8889.0349      19090.76       4173.949       5923.0126     -3593.3369      325.04769     -812.66906      43916.849     -30842.093     -199.02368      95025.593      45.633123      45.633123      45.633123      0.62999999    -595.38412      47.655558     -265.5444     
    276000   138000         673.08308      574.04196      28869.458      28073.921      9066.6179      19007.303      4101.839       5763.0446     -3557.338       346.18267     -715.25267      43902.865     -30834.037     -199.02368      95025.593      45.633123      45.633123      45.633123      0.62999999     577.56812      797.7157       346.84206    
    277000   138500         664.47533     -2092.8742      25225.51       28125.921      8950.6692      19175.252      4275.9809      5965.4042     -3538.2902      281.05592     -920.43808      43935.979     -30824.44      -199.02368      95025.593      45.633123      45.633123      45.633123      0.62999999    -2227.307      -2306.9636     -1744.352     
    278000   139000         681.30012     -1218.0242      26625.574      28313.574      9177.3039      19136.27       4053.5129      5938.3852     -3508.0485      323.15739     -841.16498      44003.503     -30833.075     -199.02368      95025.593      45.633123      45.633123      45.633123      0.62999999    -1245.0779     -1692.936      -716.05863    
    279000   139500         668.11654     -265.07653      27750.058      28117.415      8999.7172      19117.697      4142.7333      5867.9715     -3490.2827      309.37597     -835.33873      43952.084     -30828.846     -199.02368      95025.593      45.633123      45.633123      45.633123      0.62999999    -866.44966      354.7885      -283.56844    
    280000   140000         661.24518     -492.87473      27468.37       28151.42       8907.1581      19244.262      4218.4647      5922.5783     -3532.2669      368.07688     -816.50909      43911.349     -30827.43      -199.02368      95025.593      45.633123      45.633123      45.633123      0.62999999    -1281.2953     -1129.6111      932.28219    
    281000   140500         665.0546       388.37926      28644.661      28106.425      8958.4721      19147.953      4006.9406      5828.3085     -3472.0125      311.35056     -725.61926      44022.734     -30823.748     -199.02368      95025.593      45.633123      45.633123      45.633123      0.62999999    -302.57748      1361.3542      106.36108    
    282000   141000         670.43793     -1594.745       26100.6        28310.678      9030.9871      19279.691      4136.6337      6004.4196     -3595.9926      349.28641     -689.09007      43904.188     -30829.754     -199.02368      95025.593      45.633123      45.633123      45.633123      0.62999999    -2348.6426     -1441.4645     -994.12799    
    283000   141500         681.56993     -1189.6106      26715.612      28364.235      9180.9382      19183.297      4194.9145      5983.6426     -3567.5678      348.21421     -924.94225      43972.469     -30823.434     -199.02368      95025.593      45.633123      45.633123      45.633123      0.62999999    -680.00324     -1230.809      -1658.0197    
    284000   142000         679.55925     -315.96651      27938.827      28376.709      9153.8538      19222.855      4260.2699      5963.0688     -3511.7814      322.86314     -918.22192      43942.277     -30835.621     -199.02368      95025.593      45.633123      45.633123      45.633123      0.62999999    -337.24336      207.04776     -817.70393    
    285000   142500         683.28251     -782.66544      27494.464      28579.122      9204.0071      19375.115      4253.0153      6018.5102     -3542.5175      340.08812     -858.52185      43979.945     -30815.404     -199.02368      95025.593      45.633123      45.633123      45.633123      0.62999999     231.93625     -1468.7897     -1111.1429    
    286000   143000         689.12387      755.16289      29380.032      28333.489      9282.692       19050.797      4064.7791      5915.5006     -3525.6524      349.89448     -899.8263       43970.815     -30824.714     -199.02368      95025.593      45.633123      45.633123      45.633123      0.62999999     1332.7438      552.39655      380.3483     
    287000   143500         660.35747     -1911.9989      25464.023      28113.768      8895.2004      19218.568      4090.9097      6091.312      -3552.9345      326.99767     -880.55947      43985.04      -30842.198     -199.02368      95025.593      45.633123      45.633123      45.633123      0.62999999    -1430.2669     -2139.0982     -2166.6316    
    288000   144000         674.623       -1161.6866      26737          28346.924      9087.3611      19259.563      4166.5433      6066.6699     -3588.7349      331.40458     -824.15478      43956.793     -30848.958     -199.02368      95025.593      45.633123      45.633123      45.633123      0.62999999    -1664.7823     -986.9113      -833.3661     
    289000   144500         685.42117     -701.14617      27808.946      28780.63       9232.8155      19547.814      4368.2106      6082.3401     -3493.0555      313.26161     -813.44473      43921.688     -30831.186     -199.02368      95025.593      45.633123      45.633123      45.633123      0.62999999    -719.06753     -1037.6162     -346.75479    
    290000   145000         690.23505     -1541.66        26637.305      28773.816      9297.6598      19476.156      4347.314       5935.7447     -3533.951       346.85972     -785.52467      43984.193     -30818.479     -199.02368      95025.593      45.633123      45.633123      45.633123      0.62999999    -815.00783     -2036.9899     -1772.9824    
    291000   145500         690.80068     -857.31505      27399.895      28588.005      9305.279       19282.726      4185.6949      5957.8887     -3567.2961      326.77564     -759.25518      43972.655     -30833.737     -199.02368      95025.593      45.633123      45.633123      45.633123      0.62999999    -932.65174      87.035396     -1726.3288    
    292000   146000         678.40692     -2013.82        25841.28       28632.134      9138.3316      19493.802      4248.227       6071.0534     -3440.1294      330.13451     -746.98952      43866.81      -30835.304     -199.02368      95025.593      45.633123      45.633123      45.633123      0.62999999    -1727.2994     -2192.3212     -2121.8393    
    293000   146500         703.16309      873.73374      30053.953      28843.088      9471.8041      19371.284      4273.0574      6018.2291     -3552.3504      317.31211     -824.27065      43963.019     -30823.712     -199.02368      95025.593      45.633123      45.633123      45.633123      0.62999999     961.35823      819.03219      840.8108     
    294000   147000         691.78801     -361.8992       28142.586      28644.124      9318.5786      19325.545      4328.517       5972.2858     -3609.0214      358.90927     -856.27389      43970.364     -30839.235     -199.02368      95025.593      45.633123      45.633123      45.633123      0.62999999    -541.50405      368.02679     -912.22033    
    295000   147500         695.07219     -1568.1793      26602.182      28775.445      9362.8174      19412.627      4354.5594      5926.8791     -3605.6558      387.88144     -830.13537      43991.635     -30812.537     -199.02368      95025.593      45.633123      45.633123      45.633123      0.62999999    -1722.0013     -1428.9789     -1553.5577    
    296000   148000         694.0448      -2596.8828      25281.685      28880.577      9348.9782      19531.598      4391.2744      5997.3772     -3548.7462      359.48072     -761.78576      43911.13      -30817.132     -199.02368      95025.593      45.633123      45.633123      45.633123      0.62999999    -1030.2442     -3378.6462     -3381.7579    
    297000   148500         686.58177     -1397.0949      26786.684      28722.849      9248.4491      19474.4        4323.3972      6062.8216     -3541.1133      341.39046     -823.14657      43944.951     -30833.901     -199.02368      95025.593      45.633123      45.633123      45.633123      0.62999999    -1961.0968     -955.72167     -1274.4662    
    298000   149000         697.00826     -1088.4785      27373.61       28882.079      9388.8969      19493.182      4367.2945      6091.6865     -3543.6345      315.55279     -842.606        43932.012     -30827.123     -199.02368      95025.593      45.633123      45.633123      45.633123      0.62999999    -1940.2651     -959.97861     -365.19184    
    299000   149500         712.3403       146.56342      29470.388      29267.273      9595.4237      19671.849      4372.6183      6038.0537     -3429.812       347.74382     -734.19715      43906.752     -30829.309     -199.02368      95025.593      45.633123      45.633123      45.633123      0.62999999    -349.61422      253.47973      535.82476    
    300000   150000         709.69374     -274.36181      28813.928      29194.153      9559.7739      19634.379      4228.5818      6141.526      -3453.2752      356.53648     -798.51323      43991.049     -30831.526     -199.02368      95025.593      45.633123      45.633123      45.633123      0.62999999     364.06009      554.58332     -1741.7288    
Loop time of 740.742 on 1 procs for 300000 steps with 4520 atoms

Performance: 17.496 ns/day, 1.372 hours/ns, 404.999 timesteps/s, 1.831 Matom-step/s
100.0% CPU use with 1 MPI tasks x 1 OpenMP threads

MPI task timing breakdown:
Section |  min time  |  avg time  |  max time  |%varavg| %total
---------------------------------------------------------------
Pair    | 5.5101     | 5.5101     | 5.5101     |   0.0 |  0.74
Bond    | 273.73     | 273.73     | 273.73     |   0.0 | 36.95
Kspace  | 358.47     | 358.47     | 358.47     |   0.0 | 48.39
Neigh   | 42.653     | 42.653     | 42.653     |   0.0 |  5.76
Comm    | 6.8354     | 6.8354     | 6.8354     |   0.0 |  0.92
Output  | 2.877      | 2.877      | 2.877      |   0.0 |  0.39
Modify  | 41.344     | 41.344     | 41.344     |   0.0 |  5.58
Other   |            | 9.328      |            |       |  1.26

Nlocal:           4520 ave        4520 max        4520 min
Histogram: 1 0 0 0 0 0 0 0 0 0
Nghost:          11764 ave       11764 max       11764 min
Histogram: 1 0 0 0 0 0 0 0 0 0
Neighs:              0 ave           0 max           0 min
Histogram: 1 0 0 0 0 0 0 0 0 0
FullNghs:  1.68428e+06 ave 1.68428e+06 max 1.68428e+06 min
Histogram: 1 0 0 0 0 0 0 0 0 0

Total # of neighbors = 1684276
Ave neighs/atom = 372.62743
Ave special neighs/atom = 5.5353982
Neighbor list builds = 7216
Dangerous builds = 0

# --- Cleanup ---
unfix nvt_fix

undump dump_nvt

# --- Write Output ---
write_dump all custom nvt_softheat_last.dump id type mol x y z xu yu zu vx vy vz modify sort id
write_data /home/arz2/PolyJarvis/data/PLA2/lammps/equil/nvt_softheat/nvt_softheat_out.data
System init for write_data ...
PPPM Kokkos initialization ...
  using 12-bit tables for long-range coulomb
  G vector (1/distance) = 0.33126545
  grid = 48 48 48
  stencil order = 5
  estimated absolute RMS force accuracy = 0.00036388948
  estimated relative force accuracy = 1.0958424e-06
  using double precision cuFFT
  3d grid and FFT values/proc = 166375 110592
Generated 21 of 21 mixed pair_coeff terms from sixthpower/sixthpower mixing rule

print "STAGE COMPLETE: NVT T=300.0->700.0K steps=300000"
STAGE COMPLETE: NVT T=300.0->700.0K steps=300000
quit
9.328      |            |       |  1.26

Nlocal:           4520 ave        4520 max        4520 min
Histogram: 1 0 0 0 0 0 0 0 0 0
Nghost:          11764 ave       11764 max       11764 min
Histogram: 1 0 0 0 0 0 0 0 0 0
Neighs:              0 ave           0 max           0 min
Histogram: 1 0 0 0 0 0 0 0 0 0
FullNghs:  1.68428e+06 ave 1.68428e+06 max 1.68428e+06 min
Histogram: 1 0 0 0 0 0 0 0 0 0

Total # of neighbors = 1684276
Ave neighs/atom = 372.62743
Ave special neighs/atom = 5.5353982
Neighbor list builds = 7216
Dangerous builds = 0
System init for write_data ...
PPPM Kokkos initialization ...
  using 12-bit tables for long-range coulomb
  G vector (1/distance) = 0.33126545
  grid = 48 48 48
  stencil order = 5
  estimated absolute RMS force accuracy = 0.00036388948
  estimated relative force accuracy = 1.0958424e-06
  using double precision cuFFT
  3d grid and FFT values/proc = 166375 110592
Generated 21 of 21 mixed pair_coeff terms from sixthpower/sixthpower mixing rule
STAGE COMPLETE: NVT T=300.0->700.0K steps=300000
