units real
atom_style full
boundary p p p

# --- Force Field Styles ---
pair_style lj/class2/coul/long 9.5 9.5
kspace_style pppm 1e-6
dielectric 1.000000
bond_style class2
angle_style class2
dihedral_style class2
improper_style class2
special_bonds lj/coul 0 0 1
pair_modify mix sixthpower tail yes
neighbor 2.0 bin
neigh_modify delay 0 every 1 check yes
neigh_modify one 4000
# KOKKOS: package loaded via -pk kokkos on the command line

read_data /home/alexzhao/PolyJarvis/data/PEG4/lammps/equil/npt_compress/npt_compress_out.data
Reading data file ...
  orthogonal box = (6.0144195 6.0144195 6.0144195) to (43.306713 43.306713 43.306713)
  1 by 1 by 1 MPI processor grid
WARNING: Pair style lj/class2/coul/cut/kk in data file differs from currently defined pair style lj/class2/coul/long/kk (src/read_data.cpp:811)
  reading atoms ...
  7020 atoms
  reading velocities ...
  7020 velocities
  scanning bonds ...
  4 = max bonds/atom
  scanning angles ...
  10 = max angles/atom
  scanning dihedrals ...
  16 = max dihedrals/atom
  scanning impropers ...
  7 = max impropers/atom
  orthogonal box = (6.0144195 6.0144195 6.0144195) to (43.306713 43.306713 43.306713)
  1 by 1 by 1 MPI processor grid
  reading bonds ...
  7010 bonds
  reading angles ...
  13000 angles
  reading dihedrals ...
  14970 dihedrals
  reading impropers ...
  8000 impropers
Finding 1-2 1-3 1-4 neighbors ...
  special bond factors lj:    0        0        1       
  special bond factors coul:  0        0        1       
     4 = max # of 1-2 neighbors
     6 = max # of 1-3 neighbors
     8 = max # of special neighbors
  special bonds CPU = 0.004 seconds
  read_data CPU = 0.276 seconds
include /home/alexzhao/PolyJarvis/data/PEG4/lammps/equil/emc_build.params
# LAMMPS parameters created by EMC v9.4.4, build Jul 31 2025 20:33:44

# Variables

variable	seed		index	409966
variable	ntotal		index	7020
variable	fshape		index	1
variable	output		index	emc_build
variable	field		index	pcff/pcff
variable	location1	index	~/emc/field/
variable	nav		index	0.6022141179
variable	temperature	index	300
variable	radius		index	5
variable	nrelax		index	100
variable	weight_nonbond	index	0.0001
variable	weight_bond	index	0.0001
variable	weight_focus	index	1
variable	cutoff		index	9.5
variable	charge_cutoff	index	9.5
variable	kappa		index	4
variable	density1	index	0.61
variable	lprevious	index	0
variable	lphase		index	49.3211329242
variable	f_poly		index	10
variable	chem_repeat	index	*CCO*
variable	chem_cap	index	*[H]
variable	lg_repeat	index	7
variable	lg_cap		index	1
variable	norm_poly	index	100
variable	l_poly		index	702
variable	mg_repeat	index	16.04303
variable	mg_cap		index	0
variable	m_poly		index	1604.303
variable	n_poly		index	10
variable	mtotal		index	44073.7394
variable	nphase1		index	7020
variable	mphase1		index	44073.7394
variable	vphase1		index	119977.313144
variable	lbox		index	49.3211329242
variable	lphase1		index	49.3211329242
variable	lxx		index	49.3211329242
variable	lyy		index	49.3211329242
variable	lzz		index	49.3211329242
variable	lzy		index	0
variable	lzx		index	0
variable	lyx		index	0
variable	vtotal		index	119977.313144
variable	nl_poly		index	10

# Types

variable	type_c		index	1
variable	type_hc		index	2
variable	type_ho		index	3
variable	type_oc		index	4
variable	type_oh		index	5

variable	type_bond_c_c	index	1
variable	type_bond_c_hc	index	2
variable	type_bond_c_oc	index	3
variable	type_bond_c_oh	index	4
variable	type_bond_ho_oh	index	5

variable	type_angle_c_c_hc index	1
variable	type_angle_c_c_oc index	2
variable	type_angle_c_c_oh index	3
variable	type_angle_c_oc_c index	4
variable	type_angle_c_oh_ho index	5
variable	type_angle_hc_c_hc index	6
variable	type_angle_hc_c_oc index	7
variable	type_angle_hc_c_oh index	8

# Clusters

variable	n0_poly		index	1
variable	n1_poly		index	10
variable	nl_poly		index	10

# Flags

variable	flag_charged	index	1

# Masses

mass		1    12.01115  # c
mass		2     1.00797  # hc
mass		3     1.00797  # ho
mass		4    15.99940  # oc
mass		5    15.99940  # oh

# Potentials

pair_modify	mix sixthpower tail yes
special_bonds	lj/coul 0 0 1

# Pair Coeffs

pair_coeff	 1  1    0.05400    4.01000  # c,c
pair_coeff	 2  2    0.02000    2.99500  # hc,hc
pair_coeff	 3  3    0.01300    1.09800  # ho,ho
pair_coeff	 4  4    0.24000    3.53500  # oc,oc
pair_coeff	 5  5    0.24000    3.53500  # oh,oh

# Bond Coeffs

bond_coeff	1    1.53000  299.67000 -501.77000  679.81000  # c,c
bond_coeff	2    1.10100  345.00000 -691.89000  844.60000  # c,hc
bond_coeff	3    1.42000  400.39540 -835.19510 1313.01420  # c,oc
bond_coeff	4    1.42000  400.39540 -835.19510 1313.01420  # c,oh
bond_coeff	5    0.96500  532.50620 -1282.90500 2004.76580  # ho,oh

# Angle Coeffs

angle_coeff	1  110.77000   41.45300  -10.60400    5.12900  # c,c,hc
angle_coeff	2  111.27000   54.53810   -8.36420  -13.08380  # c,c,oc
angle_coeff	3  111.27000   54.53810   -8.36420  -13.08380  # c,c,oh
angle_coeff	4  104.50000   35.74540  -10.00670   -6.27290  # c,oc,c
angle_coeff	5  105.80000   52.70610  -12.10900   -9.86810  # c,oh,ho
angle_coeff	6  107.66000   39.64100  -12.92100   -2.43180  # hc,c,hc
angle_coeff	7  108.72800   58.54460  -10.80880  -12.40060  # hc,c,oc
angle_coeff	8  108.72800   58.54460  -10.80880  -12.40060  # hc,c,oh

# BondBond Coeffs

angle_coeff	1 bb    3.38720    1.53000    1.10100  # c,c,hc
angle_coeff	2 bb   11.43180    1.53000    1.42000  # c,c,oc
angle_coeff	3 bb   11.43180    1.53000    1.42000  # c,c,oh
angle_coeff	4 bb   -7.11310    1.42000    1.42000  # c,oc,c
angle_coeff	5 bb   -9.68790    1.42000    0.96500  # c,oh,ho
angle_coeff	6 bb    5.33160    1.10100    1.10100  # hc,c,hc
angle_coeff	7 bb   23.19790    1.10100    1.42000  # hc,c,oc
angle_coeff	8 bb   23.19790    1.10100    1.42000  # hc,c,oh

# BondAngle Coeffs

angle_coeff	1 ba   20.75400   11.42100    1.53000    1.10100  # c,c,hc
angle_coeff	2 ba    2.68680   20.40330    1.53000    1.42000  # c,c,oc
angle_coeff	3 ba    2.68680   20.40330    1.53000    1.42000  # c,c,oh
angle_coeff	4 ba   -2.81120   -2.81120    1.42000    1.42000  # c,oc,c
angle_coeff	5 ba   28.58000   18.92770    1.42000    0.96500  # c,oh,ho
angle_coeff	6 ba   18.10300   18.10300    1.10100    1.10100  # hc,c,hc
angle_coeff	7 ba    4.61890   55.32700    1.10100    1.42000  # hc,c,oc
angle_coeff	8 ba    4.61890   55.32700    1.10100    1.42000  # hc,c,oh

# Dihedral Coeffs

dihedral_coeff	1   -0.52030    0.00000   -0.30280    0.00000   -0.34500    0.00000  # c,c,oc,c
dihedral_coeff	2   -0.67320    0.00000   -0.47780    0.00000   -0.16700    0.00000  # c,c,oh,ho
dihedral_coeff	3    0.53020    0.00000    0.00000    0.00000   -0.39660    0.00000  # c,oc,c,hc
dihedral_coeff	4   -0.14320    0.00000    0.06170    0.00000   -0.10830    0.00000  # hc,c,c,hc
dihedral_coeff	5   -0.14350    0.00000    0.25300    0.00000   -0.09050    0.00000  # hc,c,c,oc
dihedral_coeff	6   -0.14350    0.00000    0.25300    0.00000   -0.09050    0.00000  # hc,c,c,oh
dihedral_coeff	7    0.18630    0.00000   -0.43380    0.00000   -0.21210    0.00000  # hc,c,oh,ho
dihedral_coeff	8   -0.18200    0.00000   -0.10840    0.00000   -0.70470    0.00000  # oc,c,c,oc
dihedral_coeff	9   -0.18200    0.00000   -0.10840    0.00000   -0.70470    0.00000  # oc,c,c,oh

# MiddleBondTorsion Coeffs

dihedral_coeff	1 mbt   -5.92880   -2.70070   -0.31750    1.42000  # c,c,oc,c
dihedral_coeff	2 mbt    1.24720    0.00000    0.74850    1.42000  # c,c,oh,ho
dihedral_coeff	3 mbt   -6.80070   -4.65460   -1.41010    1.42000  # c,oc,c,hc
dihedral_coeff	4 mbt  -14.26100   -0.53220   -0.48640    1.53000  # hc,c,c,hc
dihedral_coeff	5 mbt  -16.79750   -1.22960   -0.27500    1.53000  # hc,c,c,oc
dihedral_coeff	6 mbt  -16.79750   -1.22960   -0.27500    1.53000  # hc,c,c,oh
dihedral_coeff	7 mbt    0.00000    0.92410   -0.58890    1.42000  # hc,c,oh,ho
dihedral_coeff	8 mbt  -17.25850   -3.61570   -0.83640    1.53000  # oc,c,c,oc
dihedral_coeff	9 mbt  -17.25850   -3.61570   -0.83640    1.53000  # oc,c,c,oh

# EndBondTorsion Coeffs

dihedral_coeff	1 ebt   -0.24560    1.05170   -0.77950    0.47410    1.26350    0.55760    1.53000    1.42000  # c,c,oc,c
dihedral_coeff	2 ebt   -0.58000    0.90040    0.00000    0.00000    0.53430    0.90250    1.53000    0.96500  # c,c,oh,ho
dihedral_coeff	3 ebt   -0.16200    0.15640   -1.14080   -0.60540    1.33390    0.96480    1.42000    1.10100  # c,oc,c,hc
dihedral_coeff	4 ebt    0.21300    0.31200    0.07770    0.21300    0.31200    0.07770    1.10100    1.10100  # hc,c,c,hc
dihedral_coeff	5 ebt    0.96810    0.95510    0.04360    0.59030    0.66690    0.85840    1.10100    1.42000  # hc,c,c,oc
dihedral_coeff	6 ebt    0.96810    0.95510    0.04360    0.59030    0.66690    0.85840    1.10100    1.42000  # hc,c,c,oh
dihedral_coeff	7 ebt   -1.75540    1.31450    0.22630    0.24930    0.68030    0.00000    1.10100    0.96500  # hc,c,oh,ho
dihedral_coeff	8 ebt    1.01650    0.75530   -0.46090    1.01650    0.75530   -0.46090    1.42000    1.42000  # oc,c,c,oc
dihedral_coeff	9 ebt    1.01650    0.75530   -0.46090    1.01650    0.75530   -0.46090    1.42000    1.42000  # oc,c,c,oh

# AngleTorsion Coeffs

dihedral_coeff	1 at   -2.74660    1.48770   -0.89550    0.56760    0.94500    0.07030  111.27000  104.50000  # c,c,oc,c
dihedral_coeff	2 at   -3.59030    2.52250    0.48880    0.87260   -0.35770    0.38880  111.27000  105.80000  # c,c,oh,ho
dihedral_coeff	3 at   -0.77770    0.43400   -0.66530   -1.82340    1.63930    0.51440  104.50000  108.72800  # c,oc,c,hc
dihedral_coeff	4 at   -0.80850    0.55690   -0.24660   -0.80850    0.55690   -0.24660  110.77000  110.77000  # hc,c,c,hc
dihedral_coeff	5 at    2.36680    2.49200   -1.01220   -0.18920    0.49180    0.72730  110.77000  111.27000  # hc,c,c,oc
dihedral_coeff	6 at    2.36680    2.49200   -1.01220   -0.18920    0.49180    0.72730  110.77000  111.27000  # hc,c,c,oh
dihedral_coeff	7 at   -3.40600    1.63960    0.07370    0.00000   -0.28100   -0.59440  108.72800  105.80000  # hc,c,oh,ho
dihedral_coeff	8 at    0.55110    0.97370   -0.66730    0.55110    0.97370   -0.66730  111.27000  111.27000  # oc,c,c,oc
dihedral_coeff	9 at    0.55110    0.97370   -0.66730    0.55110    0.97370   -0.66730  111.27000  111.27000  # oc,c,c,oh

# AngleAngleTorsion Coeffs

dihedral_coeff	1 aat  -19.00590  111.27000  104.50000  # c,c,oc,c
dihedral_coeff	2 aat  -12.10380  111.27000  105.80000  # c,c,oh,ho
dihedral_coeff	3 aat  -16.44380  104.50000  108.72800  # c,oc,c,hc
dihedral_coeff	4 aat  -12.56400  110.77000  110.77000  # hc,c,c,hc
dihedral_coeff	5 aat  -20.20060  110.77000  111.27000  # hc,c,c,oc
dihedral_coeff	6 aat  -20.20060  110.77000  111.27000  # hc,c,c,oh
dihedral_coeff	7 aat  -10.50930  108.72800  105.80000  # hc,c,oh,ho
dihedral_coeff	8 aat  -14.04840  111.27000  111.27000  # oc,c,c,oc
dihedral_coeff	9 aat  -14.04840  111.27000  111.27000  # oc,c,c,oh

# BondBond13 Coeffs

dihedral_coeff	1 bb13    0.00000    1.53000    1.42000  # c,c,oc,c
dihedral_coeff	2 bb13    0.00000    1.53000    0.96500  # c,c,oh,ho
dihedral_coeff	3 bb13    0.00000    1.42000    1.10100  # c,oc,c,hc
dihedral_coeff	4 bb13    0.00000    1.10100    1.10100  # hc,c,c,hc
dihedral_coeff	5 bb13    0.00000    1.10100    1.42000  # hc,c,c,oc
dihedral_coeff	6 bb13    0.00000    1.10100    1.42000  # hc,c,c,oh
dihedral_coeff	7 bb13    0.00000    1.10100    0.96500  # hc,c,oh,ho
dihedral_coeff	8 bb13    0.00000    1.42000    1.42000  # oc,c,c,oc
dihedral_coeff	9 bb13    0.00000    1.42000    1.42000  # oc,c,c,oh

# Improper Coeffs

improper_coeff	1    0.00000    0.00000  # c,c,hc,hc
improper_coeff	2    0.00000    0.00000  # c,c,hc,oc
improper_coeff	3    0.00000    0.00000  # c,c,oc,hc
improper_coeff	4    0.00000    0.00000  # c,c,oh,hc
improper_coeff	5    0.00000    0.00000  # c,hc,hc,hc
improper_coeff	6    0.00000    0.00000  # c,hc,hc,oc
improper_coeff	7    0.00000    0.00000  # c,hc,hc,oh

# AngleAngle Coeffs

improper_coeff	1 aa    0.27380   -0.48250    0.27380  110.77000  110.77000  107.66000  # c,c,hc,hc
improper_coeff	2 aa    3.91770    2.59260    0.16890  110.77000  111.27000  108.72800  # c,c,hc,oc
improper_coeff	3 aa    0.16890    2.59260    3.91770  111.27000  110.77000  108.72800  # c,c,oc,hc
improper_coeff	4 aa    0.16890    2.59260    3.91770  111.27000  110.77000  108.72800  # c,c,oh,hc
improper_coeff	5 aa   -0.31570   -0.31570   -0.31570  107.66000  107.66000  107.66000  # c,hc,hc,hc
improper_coeff	6 aa    2.42590    2.42590    2.12830  107.66000  108.72800  108.72800  # c,hc,hc,oc
improper_coeff	7 aa    2.42590    2.42590    2.12830  107.66000  108.72800  108.72800  # c,hc,hc,oh


# --- Thermo Output ---
thermo_style custom step time temp press enthalpy etotal ke pe ebond eangle edihed eimp evdwl ecoul elong etail vol lx ly lz density pxx pyy pzz
thermo_modify flush yes
thermo 1000

# --- Trajectory ---
dump dump_npt all custom 1000 npt_pppm.dump id type mol x y z ix iy iz vx vy vz

# --- Restart Checkpointing ---
restart 10000 npt_1.rst npt_2.rst

# --- Initial Velocities (optional) ---
# Velocities read from data file

# --- SHAKE Constraints ---
# SHAKE disabled

# --- NPT Thermostat + Barostat (Nose-Hoover) ---
# T_damp = 100.0 fs  (heat bath coupling)
# P_damp = 1000.0 fs  (pressure bath coupling, ~10x T_damp typical)
# Ramp: T=580.0->580.0K  P=50000.0->1.0atm
timestep 1.0
fix npt_fix all npt temp 580.0 580.0 100.0 iso 50000.0 1.0 1000.0

run 500000
PPPM Kokkos initialization ...
  using 12-bit tables for long-range coulomb
  G vector (1/distance) = 0.30196901
  grid = 27 27 27
  stencil order = 5
  estimated absolute RMS force accuracy = 0.00036995323
  estimated relative force accuracy = 1.1141032e-06
  using double precision cuFFT
  3d grid and FFT values/proc = 39304 19683
Generated 10 of 10 mixed pair_coeff terms from sixthpower/sixthpower mixing rule
Neighbor list info ...
  update: every = 1 steps, delay = 0 steps, check = yes
  max neighbors/atom: 4000, page size: 100000
  master list distance cutoff = 11.5
  ghost atom cutoff = 11.5
  binsize = 11.5, bins = 4 4 4
  1 neighbor lists, perpetual/occasional/extra = 1 0 0
  (1) pair lj/class2/coul/long/kk, perpetual
      attributes: full, newton off, kokkos_device
      pair build: full/bin/kk/device
      stencil: full/bin/3d
      bin: kk/device
Per MPI rank memory allocation (min/avg/max) = 34.93 | 34.93 | 34.93 Mbytes
   Step          Time           Temp          Press         Enthalpy        TotEng         KinEng         PotEng         E_bond        E_angle        E_dihed        E_impro         E_vdwl         E_coul         E_long         E_tail         Volume           Lx             Ly             Lz          Density          Pxx            Pyy            Pzz      
         0   0              584.44461      51409.026      57208.148      18324.002      12227.929      6096.0732      4175.1623      8027.2815     -7713.9203     -90.47576      -514.29031      7054.872      -4842.5561     -618.99116      51862.96       37.292294      37.292294      37.292294      1.4111451      50834.805      51462.008      51930.265    
      1000   1000           586.55135      47363.281      54560.586      18614.375      12272.007      6342.3686      4372.0189      7971.6038     -7691.1623     -95.566325     -430.16605      7054.7712     -4839.1307     -616.88797      52039.779      37.334627      37.334627      37.334627      1.4063503      48794.858      48611.768      44683.217    
      2000   2000           582.74192      50417.488      56624.723      18541.236      12192.305      6348.9316      4290.8781      8038.025      -7687.4693     -102.78679     -374.23719      7028.0447     -4843.523      -619.81507      51794.019      37.275763      37.275763      37.275763      1.4130234      49096.987      50232.215      51923.263    
      3000   3000           576.28658      51564.303      57447.088      18417.579      12057.244      6360.3347      4357.3603      7923.2749     -7677.2286     -98.118354     -357.4943       7052.5382     -4839.9974     -618.54841      51900.083      37.30119       37.30119       37.30119       1.4101357      50680.89       53783.456      50228.563    
      4000   4000           577.19594      48469.837      54900.558      18218.197      12076.27       6141.9267      4279.1884      7875.2741     -7621.9968     -97.862195     -492.57475      7039.1865     -4839.2886     -618.63133      51893.126      37.299523      37.299523      37.299523      1.4103248      50039.898      48228.768      47140.845    
      5000   5000           572.55424      48234.81       54879.623      18291.36       11979.155      6312.2047      4318.3638      8116.2165     -7738.1318     -97.491488     -494.22249      7044.4371     -4836.9669     -617.21491      52012.213      37.328033      37.328033      37.328033      1.4070957      48458.101      48113.723      48132.605    
      6000   6000           582.62402      51586.922      57313.646      18290.598      12189.838      6100.7605      4348.8807      7809.0938     -7715.0216     -95.053413     -463.6352       7050.5632     -4834.067      -618.92222      51868.737      37.293679      37.293679      37.293679      1.4109879      50399.288      53508.118      50853.361    
      7000   7000           585.32991      49357.867      55884.684      18464.734      12246.451      6218.2827      4254.8906      8058.297      -7675.4565     -97.86321      -517.3291       7033.8612     -4838.1173     -617.54814      51984.148      37.321318      37.321318      37.321318      1.4078553      47818.183      51332.153      48923.265    
      8000   8000           577.12944      50614.078      56564.425      18315.294      12074.878      6240.4159      4270.9304      8004.9907     -7688.5261     -95.754397     -432.33556      7022.1438     -4841.0331     -619.5372       51817.249      37.281335      37.281335      37.281335      1.4123899      50861.33       50128.007      50852.897    
      9000   9000           577.24185      46882.603      53858.587      18314.673      12077.23       6237.4426      4276.6422      8066.1486     -7614.7131     -103.54332     -572.17769      7027.1317     -4842.046      -617.53857      51984.953      37.321511      37.321511      37.321511      1.4078335      45799.519      46683.073      48165.216    
     10000   10000          579.25869      53735.306      58983.212      18353.912      12119.427      6234.4843      4205.8327      7999.4489     -7698.3836     -98.163629     -383.62979      7041.6463     -4832.2666     -619.21008      51844.624      37.287899      37.287899      37.287899      1.4116441      54902.416      50015.783      56287.72     
     11000   11000          582.82256      49262.917      55634.386      18258.836      12193.992      6064.8441      4392.3958      7910.6279     -7674.24       -91.897617     -671.59592      7040.9203     -4841.3664     -617.09236      52022.543      37.330504      37.330504      37.330504      1.4068163      48003.242      47212.301      52573.208    
     12000   12000          569.52428      46289.89       53198.673      17917.656      11915.761      6001.8949      4322.1407      8023.3218     -7690.8467     -99.946249     -741.9088       7025.2265     -4836.0924     -614.27478      52261.162      37.387494      37.387494      37.387494      1.4003929      44668.454      48179.615      46021.602    
     13000   13000          587.19189      47183.438      54329.612      18490.81       12285.408      6205.4016      4387.6445      8140.5604     -7779.5574     -100.98334     -595.30176      6999.6349     -4846.5958     -616.38736      52082.044      37.344731      37.344731      37.344731      1.4052091      47277.743      45856.148      48416.423    
     14000   14000          569.38411      49339.396      55470.144      18060.362      11912.828      6147.5336      4291.6393      8062.5061     -7695.9725     -100.4899      -592.85944      7016.7315     -4834.0215     -617.48482      51989.478      37.322594      37.322594      37.322594      1.407711       45797.201      49342.664      52878.322    
     15000   15000          577.96507      48849.66       55422.729      18304.665      12092.362      6212.3028      4370.7298      7998.1628     -7691.3261     -98.039235     -534.70426      7012.4654     -4844.9857     -616.1605       52101.22       37.349314      37.349314      37.349314      1.4046919      47093.008      50420.239      49035.733    
     16000   16000          582.39164      50324.442      56463.662      18198.011      12184.976      6013.0346      4222.6759      7967.8542     -7676.2496     -91.983841     -580.0711       7018.0839     -4847.2748     -615.72601      52137.986      37.358097      37.358097      37.358097      1.4037013      47526.3        51597.904      51849.123    
     17000   17000          586.71497      49581.462      56072.772      18396.634      12275.43       6121.2044      4288.838       8098.3781     -7731.6355     -102.66319     -626.56655      7032.8315     -4837.9778     -616.12749      52104.011      37.349981      37.349981      37.349981      1.4046166      51740.818      47186.462      49817.105    
     18000   18000          565.36317      50349.548      56056.408      17873.385      11828.701      6044.684       4296.5285      7952.274      -7694.0334     -94.677969     -585.36784      7017.3409     -4847.3802     -617.36627      51999.462      37.324983      37.324983      37.324983      1.4074407      47502.925      51397.262      52148.456    
     19000   19000          580.72083      46558.644      53738.323      18241.793      12150.019      6091.7738      4319.786       8057.7958     -7648.3482     -96.236345     -709.97003      7007.8086     -4839.062      -614.09003      52276.885      37.391243      37.391243      37.391243      1.3999717      46098.895      48724.042      44852.994    
     20000   20000          578.17571      48949.38       55620.183      18285.71       12096.769      6188.9411      4295.4886      8088.2644     -7654.1051     -97.220568     -610.72395      7017.4017     -4850.164      -613.83947      52298.223      37.396329      37.396329      37.396329      1.3994005      49826.842      48842.28       48179.019    
     21000   21000          574.29877      45587.868      52768.701      18158.17       12015.654      6142.516       4296.0672      8063.254      -7705.1504     -98.4011       -614.53711      7039.8697     -4838.5863     -616.67829      52057.473      37.338858      37.338858      37.338858      1.4058723      46757.625      44304.91       45701.07     
     22000   22000          585.58005      50785.037      57089.393      18470.041      12251.685      6218.356       4237.8969      8143.9674     -7629.2714     -93.423526     -610.4546       7013.0696     -4843.4282     -615.67061      52142.677      37.359218      37.359218      37.359218      1.403575       49587.144      50949.756      51818.209    
     23000   23000          577.83017      46147.686      53209.084      18057.909      12089.539      5968.3697      4366.091       7984.5533     -7767.0714     -101.85395     -688.43882      7018.9723     -4843.8827     -614.64977      52229.278      37.379889      37.379889      37.379889      1.4012478      47972.44       44354.928      46115.692    
     24000   24000          575.96219      45292.299      52365.036      17789.036      12050.457      5738.5794      4261.4353      7831.7286     -7692.4421     -92.340115     -742.2404       7020.1151     -4847.677      -613.29193      52344.915      37.407455      37.407455      37.407455      1.3981522      43397.24       44447.173      48032.484    
     25000   25000          585.07114      48055.792      54842.156      18311.951      12241.037      6070.9141      4321.6016      8174.1635     -7737.9563     -98.328827     -748.73103      7002.8271     -4842.6618     -615.90152      52123.128      37.354548      37.354548      37.354548      1.4041015      47608.713      48788.241      47770.422    
     26000   26000          581.04881      46223.07       53059.488      18065.398      12156.881      5908.5174      4133.2158      8049.2624     -7780.5709     -96.837899     -567.26998      7018.2666     -4847.5485     -618.41743      51911.075      37.303823      37.303823      37.303823      1.4098371      44656.304      45814.498      48198.409    
     27000   27000          577.06727      47834.757      54478.655      18121.162      12073.578      6047.5845      4264.5179      7979.7765     -7609.6292     -94.460676     -659.37959      7018.7077     -4851.9481     -615.98095      52116.407      37.352943      37.352943      37.352943      1.4042825      48118.822      46570.015      48815.434    
     28000   28000          572.33784      46072.616      53030.797      17890.914      11974.627      5916.2863      4253.9279      7993.8892     -7745.5293     -96.2977       -649.21602      7010.4939     -4850.9817     -613.84707      52297.575      37.396175      37.396175      37.396175      1.3994178      45432.68       46443.943      46341.225    
     29000   29000          576.11646      48836.623      55404.78       18094.975      12053.685      6041.2898      4347.2135      8086.5689     -7644.3546     -92.229826     -827.85339      7018.5494     -4846.6043     -612.83036      52384.339      37.416844      37.416844      37.416844      1.3971         49926.199      48960.166      47623.506    
     30000   30000          571.63405      45555.594      52653.486      17942.605      11959.902      5982.7027      4402.7299      7885.0294     -7721.8521     -98.357424     -648.45291      7015.1804     -4851.5746     -614.46014      52245.397      37.383734      37.383734      37.383734      1.4008155      47723.828      40225.269      48717.685    
     31000   31000          584.29015      45380.869      52621.801      18052.587      12224.697      5827.8894      4180.6907      8009.8685     -7670.5628     -99.178442     -767.02687      7023.468      -4849.3697     -614.61185      52232.5        37.380658      37.380658      37.380658      1.4011613      45706.281      46253.329      44182.997    
     32000   32000          574.74781      49569.766      55703.826      17959.112      12025.049      5934.0623      4302.2388      7986.1064     -7691.237      -92.292208     -742.94179      7020.4127     -4848.2245     -614.863        52211.165      37.375568      37.375568      37.375568      1.4017339      49705.344      51283.152      47720.801    
     33000   33000          578.38769      46286.821      53397.568      18131.704      12101.204      6030.5001      4180.2972      8070.5579     -7612.9075     -91.332829     -681.4954       7010.6663     -4845.2856     -614.49799      52242.178      37.382966      37.382966      37.382966      1.4009018      45213.946      46731.911      46914.607    
     34000   34000          586.19041      46302.426      53461.416      18204.781      12264.455      5940.3261      4275.4077      8020.9554     -7702.5054     -92.278474     -701.50489      6997.6371     -4857.3852     -614.86606      52210.905      37.375505      37.375505      37.375505      1.4017409      46694.307      45609.507      46603.463    
     35000   35000          575.97249      48064.03       54742.016      18035.027      12050.672      5984.3546      4206.7371      8110.4742     -7659.952      -96.65496      -727.02174      7003.9036     -4853.1316     -613.04036      52366.395      37.412572      37.412572      37.412572      1.3975787      46128.636      49221.758      48841.697    
     36000   36000          568.58491      47530.772      54180.378      17847.31       11896.107      5951.2026      4274.2945      8044.2101     -7715.7976     -97.163713     -723.30723      7018.4796     -4849.513      -612.4779       52414.484      37.42402       37.42402       37.42402       1.3962965      50696.73       47103.68       44791.905    
     37000   37000          579.24102      47961.398      55072.028      18464.184      12119.058      6345.1259      4430.9139      8092.1295     -7737.2437     -95.275281     -524.64763      7027.0616     -4847.8125     -613.38806      52336.711      37.405501      37.405501      37.405501      1.3983714      47683.27       49121.448      47079.476    
     38000   38000          575.83552      50415.224      56581.925      18166.066      12047.807      6118.2596      4432.616       7932.6653     -7718.8978     -94.571367     -625.43555      7036.7994     -4844.9164     -614.42487      52248.395      37.384449      37.384449      37.384449      1.4007351      51596.577      50912.046      48737.048    
     39000   39000          572.04283      44778.286      52201.014      17981.403      11968.455      6012.9484      4332.0467      7989.6127     -7633.3465     -96.586027     -728.06885      7003.7056     -4854.4151     -612.64663      52400.049      37.420584      37.420584      37.420584      1.3966811      45510.464      41998.038      46826.357    
     40000   40000          577.86322      43239.026      51067.452      17974.589      12090.231      5884.3579      4305.9701      8010.506      -7718.9529     -100.0147      -810.31208      7040.3705     -4843.209      -611.72918      52478.637      37.439282      37.439282      37.439282      1.3945896      44072.696      43864.769      41779.611    
     41000   41000          569.25845      47733.719      54280.288      17773.398      11910.199      5863.1992      4324.9853      7844.0901     -7637.7271     -97.286773     -766.27071      7039.7712     -4844.3628     -612.16441      52441.327      37.430408      37.430408      37.430408      1.3955818      45938.694      48708.367      48554.096    
     42000   42000          570.81663      43890.994      51497.132      17971.95       11942.8        6029.15        4356.9634      7958.4276     -7643.3144     -92.897729     -744.45058      7043.9255     -4849.5038     -612.94557      52374.493      37.4145        37.4145        37.4145        1.3973626      42299.672      44598.811      44774.498    
     43000   43000          579.91393      47483.676      54072.76       17771.934      12133.137      5638.797       4263.7691      7850.254      -7704.1032     -91.373319     -854.99387      7026.8994     -4851.6551     -612.4145       52419.911      37.425312      37.425312      37.425312      1.3961519      51003.31       45623.073      45824.647    
     44000   44000          586.30019      46260.757      53507.305      18067.723      12266.752      5800.9716      4288.9191      8020.3053     -7745.4263     -92.894612     -824.14043      7005.3607     -4851.1523     -611.14151      52529.1        37.451279      37.451279      37.451279      1.3932498      46177.25       45724.678      46880.343    
     45000   45000          570.60007      44100.66       51501.685      17808.817      11938.269      5870.5474      4227.27        8016.8352     -7670.8289     -103.73776     -771.41117      7020.389      -4847.969      -612.80845      52386.212      37.41729       37.41729       37.41729       1.39705        43899.489      44294.683      44107.808    
     46000   46000          577.24399      44731.379      52366.028      18032.629      12077.275      5955.3536      4343.4883      7945.3884     -7604.517      -96.253523     -803.52531      7023.9013     -4853.1285     -609.97653      52629.425      37.475106      37.475106      37.475106      1.390594       49012.795      43146.045      42035.296    
     47000   47000          579.31771      46851.47       53798.515      17890.706      12120.662      5770.0433      4223.7048      7994.3723     -7773.7471     -88.614858     -763.07847      7023.5794     -4846.1727     -610.87444      52552.066      37.456736      37.456736      37.456736      1.392641       49894.116      43321.604      47338.692    
     48000   48000          584.08811      43557.862      51551.755      18098.939      12220.47       5878.4688      4344.3222      8156.6694     -7819.4367     -100.8515      -886.0451       7032.9277     -4849.1172     -609.60918      52661.139      37.482632      37.482632      37.482632      1.3897565      44470.336      42554.858      43648.391    
     49000   49000          573.57729      46325.721      53335.122      17862.11       12000.559      5861.5504      4247.5414      8043.6016     -7763.3767     -100.48309     -741.55516      7027.3309     -4851.5084     -611.42298      52504.918      37.445531      37.445531      37.445531      1.3938915      46326.356      46541.396      46109.411    
     50000   50000          580.83853      43937.159      51893.181      18132.782      12152.481      5980.3005      4392.8673      8145.1614     -7785.0085     -102.00365     -860.7552       7034.0855     -4844.0464     -609.31522      52686.545      37.488659      37.488659      37.488659      1.3890863      45565.821      44960.971      41284.685    
     51000   51000          580.57379      43292.53       51107.95       17873.645      12146.942      5726.7024      4246.5743      7906.3771     -7684.0675     -90.648109     -834.38481      7033.2343     -4850.3829     -609.87944      52637.802      37.477095      37.477095      37.477095      1.3903726      45891.959      40891.545      43094.085    
     52000   52000          583.52237      44561.541      52280.53       18039.871      12208.633      5831.2376      4206.3214      8135.0732     -7704.519      -100.13216     -884.17125      7025.4889     -4846.8234     -609.30637      52687.31       37.488841      37.488841      37.488841      1.3890662      44756.269      43172.12       45756.233    
     53000   53000          584.0511       45369.392      52901.918      18164.698      12219.696      5945.0024      4338.7614      8048.9136     -7730.687      -102.66694     -785.72723      7023.2896     -4846.8809     -611.48461      52499.626      37.444273      37.444273      37.444273      1.394032       44075.096      48453.382      43579.697    
     54000   54000          577.97543      44180.52       51848.231      17967.945      12092.579      5875.3668      4194.4155      8139.7006     -7753.5447     -94.389498     -797.30353      7033.5102     -4847.0217     -610.52209      52582.394      37.46394       37.46394       37.46394       1.3918377      45622.821      43520.23       43398.508    
     55000   55000          585.3238       43424.513      51918.255      18454.904      12246.323      6208.5802      4464.7692      8132.7546     -7701.8429     -100.56433     -767.85755      7026.5271     -4845.206      -607.55158      52839.486      37.524899      37.524899      37.524899      1.3850657      42601.047      43737.687      43934.804    
     56000   56000          579.04749      45748.673      53116.192      17981.741      12115.009      5866.7319      4301.7139      8040.0114     -7723.6286     -100.94973     -823.7249       7020.082      -4846.7721     -609.62526      52659.749      37.482303      37.482303      37.482303      1.3897932      47851.008      44921.654      44473.358    
     57000   57000          572.77675      47293.849      54074.667      17881.863      11983.81       5898.0527      4306.1175      7973.5125     -7735.0512     -98.7248       -741.57575      7032.8843     -4839.1098     -611.78675      52473.698      37.438108      37.438108      37.438108      1.3947208      45968.751      47998.388      47914.409    
     58000   58000          583.7051       41537.069      49999.891      17979.223      12212.457      5766.7665      4258.1594      7957.8791     -7706.7832     -96.01406      -851.48323      7043.7293     -4838.7207     -607.3277       52858.965      37.529509      37.529509      37.529509      1.3845553      42991.584      41226.23       40393.393    
     59000   59000          562.96615      46058.108      53135.255      17805.37       11778.55       6026.8203      4316.7116      8046.9046     -7695.5098     -92.560501     -717.41798      7011.4727     -4842.7803     -610.35359      52596.912      37.467388      37.467388      37.467388      1.3914536      46498.594      45032.896      46642.833    
     60000   60000          575.46363      42436.918      50873.091      18100.124      12040.026      6060.0976      4282.4033      8195.5355     -7632.2273     -104.05407     -855.67758      7022.1294     -4848.0117     -606.24156      52953.667      37.551909      37.551909      37.551909      1.3820792      44385.702      42376.926      40548.126    
     61000   61000          577.03077      44034.608      51937.891      18016.253      12072.814      5943.4385      4414.035       8010.4344     -7674.1593     -96.45165      -892.08368      7032.3692     -4850.7055     -607.76397      52821.021      37.520527      37.520527      37.520527      1.3855499      44162.474      45477.07       42464.278    
     62000   62000          579.69008      42450.28       50664.535      18031.129      12128.453      5902.6764      4218.9674      8225.8228     -7704.4442     -100.86731     -914.49564      7022.6947     -4845.0015     -609.02595      52711.569      37.494593      37.494593      37.494593      1.3884269      43399.021      42662.17       41289.65     
     63000   63000          582.90158      41561.186      49830.389      17689.844      12195.645      5494.199       4258.2957      7989.308      -7780.0685     -91.657855     -1062.6457      7031.0838     -4850.1164     -605.41381      53026.068      37.569015      37.569015      37.569015      1.3801921      40468.443      42280.234      41934.88     
     64000   64000          588.24203      43270.411      51470.877      18140.567      12307.38       5833.1873      4274.8668      8015.579      -7728.0595     -96.476702     -801.88103      7018.5543     -4849.3955     -607.81204      52816.844      37.519538      37.519538      37.519538      1.3856595      43508.734      47050.288      39252.21     
     65000   65000          570.86454      45378.32       52762.275      17773.53       11943.802      5829.7276      4331.6224      8059.9331     -7706.0853     -99.248674     -909.7265       7005.2394     -4852.0068     -607.20827      52869.362      37.53197       37.53197       37.53197       1.384283       43737.058      46342.027      46055.874    
     66000   66000          579.08905      44168.338      51944.092      17909.325      12115.878      5793.4467      4343.4879      8125.7338     -7785.4412     -90.684335     -967.88038      7015.0718     -4846.8408     -607.58341      52836.719      37.524244      37.524244      37.524244      1.3851382      45798.383      44418.18       42288.452    
     67000   67000          580.79586      41828.397      50209.18       18059.95       12151.589      5908.3617      4442.5785      8043.1824     -7788.538      -97.767151     -871.94577      7032.4033     -4851.5516     -609.14163      52701.559      37.49222       37.49222       37.49222       1.3886906      42885.924      41812.638      40786.63     
     68000   68000          578.97723      43055.743      51239.235      18141.022      12113.539      6027.4831      4339.0486      8171.111      -7772.3264     -101.43139     -777.26839      7014.8994     -4846.5498     -609.0377       52710.553      37.494352      37.494352      37.494352      1.3884537      44405.747      40856.752      43904.729    
     69000   69000          578.63247      43593.651      51343.977      17656.054      12106.325      5549.7282      4234.2278      7996.9788     -7733.3905     -91.878128     -1059.1912      7051.5197     -4848.5382     -605.85213      52987.704      37.559952      37.559952      37.559952      1.3811914      42379.581      44562.027      43839.345    
     70000   70000          574.91626      42300.369      50442.788      17824.036      12028.574      5795.4622      4372.2002      7945.7035     -7731.6366     -90.016051     -881.04286      7026.7661     -4846.512      -607.14783      52874.625      37.533215      37.533215      37.533215      1.3841452      43359.22       42020.513      41521.374    
     71000   71000          580.89007      44040.05       52165.879      18281.643      12153.56       6128.0832      4363.0349      8081.3317     -7759.3844     -100.59369     -645.35123      7031.1535     -4842.1075     -608.51002      52756.261      37.505187      37.505187      37.505187      1.3872507      44144.378      45592.063      42383.708    
     72000   72000          574.75422      41965.245      50443.504      18013.205      12025.184      5988.0212      4369.1373      8068.9167     -7776.5191     -100.58843     -765.64088      7035.1011     -4842.3854     -605.8379       52988.949      37.560247      37.560247      37.560247      1.3811589      43293.433      43777.336      38824.965    
     73000   73000          573.23954      41852.52       50145.958      17757.466      11993.493      5763.9734      4379.8302      7858.5231     -7677.201      -94.343479     -893.75218      7035.2319     -4844.3151     -604.99046      53063.173      37.577776      37.577776      37.577776      1.379227       40220.252      41572.166      43765.143    
     74000   74000          571.01438      40711.896      49277.374      17705.539      11946.937      5758.602       4269.6934      8062.272      -7731.9981     -97.882351     -923.34178      7023.455      -4843.5962     -603.72497      53174.401      37.604014      37.604014      37.604014      1.376342       42192.086      40024.318      39919.285    
     75000   75000          584.41552      40840.944      49548.228      17958.919      12227.32       5731.5983      4306.0675      8058.2522     -7691.6172     -103.23034     -1022.631       7024.9547     -4840.1975     -605.30361      53035.721      37.571295      37.571295      37.571295      1.3799409      41019.3        40882.21       40621.322    
     76000   76000          586.89307      42560.377      51016.673      18049.318      12279.156      5770.1613      4242.4383      8129.0665     -7711.3413     -95.904852     -976.47182      7024.7649     -4842.3906     -604.42024      53113.234      37.589589      37.589589      37.589589      1.377927       42896.166      42387.134      42397.833    
     77000   77000          581.94112      44400.925      52088.224      17799.808      12175.55       5624.2582      4279.806       8000.8965     -7772.7984     -94.098877     -972.87765      7022.3271     -4838.9964     -606.26462      52951.652      37.551432      37.551432      37.551432      1.3821317      43433.544      43609.566      46159.665    
     78000   78000          584.8855       43183.976      51394.207      18022.165      12237.153      5785.012       4307.7972      8153.8773     -7780.3616     -94.196332     -985.07677      7026.5958     -4843.6236     -605.83935      52988.822      37.560217      37.560217      37.560217      1.3811622      43778.493      41839.142      43934.292    
     79000   79000          574.27058      40224.126      49104.522      17834.605      12015.065      5819.5402      4389.9987      8152.2366     -7803.4326     -100.26602     -980.79185      6999.8262     -4838.0308     -602.251        53304.542      37.634667      37.634667      37.634667      1.3729817      39341.162      41741.577      39589.64     
     80000   80000          575.10065      38739.162      47473.645      17448.934      12032.432      5416.5019      4150.8782      7880.5227     -7648.674      -92.290441     -1071.1302      7023.7049     -4826.5092     -604.07243      53143.815      37.596802      37.596802      37.596802      1.3771341      36728.359      40761.252      38727.875    
     81000   81000          577.08729      42189.46       50498.578      17713.387      12073.997      5639.3899      4228.5692      7959.8178     -7635.6109     -96.773067     -1003.4021      7025.6835     -4838.8945     -602.48173      53284.128      37.629862      37.629862      37.629862      1.3735077      45018.281      42214.453      39335.646    
     82000   82000          581.91991      39694.821      48733.68       17898.567      12175.106      5723.4611      4251.3104      8210.132      -7762.7221     -91.407287     -1093.2024      7043.2939     -4833.9434     -602.70659      53264.248      37.625181      37.625181      37.625181      1.3740203      39520.992      39801.646      39761.825    
     83000   83000          576.46054      44136.004      52082.775      17927.944      12060.884      5867.0607      4302.4487      8139.4773     -7747.8488     -96.231854     -942.90005      7049.5933     -4837.4779     -605.00437      53061.953      37.577488      37.577488      37.577488      1.3792587      45956.774      44571.711      41879.529    
     84000   84000          583.37447      39997.304      48884.481      17815.263      12205.539      5609.7242      4308.3065      8113.4053     -7800.4768     -90.417877     -1093.4913      7018.7875     -4846.389      -602.72338      53262.765      37.624832      37.624832      37.624832      1.3740586      40028.603      39576.634      40386.674    
     85000   85000          580.13739      42409.41       50525.237      17625.093      12137.812      5487.2814      4144.4505      8098.1157     -7695.3748     -98.846027     -1158.9557      7035.616      -4837.7242     -603.50666      53193.636      37.608547      37.608547      37.608547      1.3758443      43665.76       41738.549      41823.92     
     86000   86000          586.80174      39860.359      49089.372      17936.554      12277.245      5659.309       4370.6921      8004.8665     -7624.3358     -100.53412     -1209.3218      7056.9343     -4838.9923     -599.04785      53589.565      37.701626      37.701626      37.701626      1.3656793      36975.572      42154.5        40451.006    
     87000   87000          577.98272      41805.738      50298.197      17857.659      12092.731      5764.9275      4390.336       8005.4052     -7716.1207     -97.395985     -1015.6681      7030.2647     -4831.8935     -603.34465      53207.919      37.611913      37.611913      37.611913      1.3754749      42376.11       40929.409      42111.694    
     88000   88000          578.99869      42934.398      50982.461      17665.814      12113.988      5551.8268      4169.9604      8000.1843     -7726.949      -94.818        -1026.2542      7065.1324     -4835.4291     -603.33946      53208.377      37.612021      37.612021      37.612021      1.3754631      41962.373      41676.807      45164.012    
     89000   89000          573.50324      39918.384      48710.069      17669.005      11999.01       5669.9944      4302.6964      8067.9111     -7734.0701     -95.228825     -1072.5467      7039.7457     -4838.5132     -602.07969      53319.708      37.638235      37.638235      37.638235      1.3725912      37975.288      41069.623      40710.242    
     90000   90000          586.11843      39677.7        49152.669      18260.585      12262.949      5997.6356      4443.2647      8109.0802     -7657.0838     -99.951005     -993.57123      7029.0611     -4833.1643     -601.33561      53385.686      37.653753      37.653753      37.653753      1.3708948      37705.345      41806.185      39521.571    
     91000   91000          576.47199      44081.679      52018.599      17844.244      12061.123      5783.1213      4321.2793      7918.179      -7663.3898     -99.083546     -904.31916      7041.5598     -4831.1043     -603.91447      53157.715      37.60008       37.60008       37.60008       1.376774       41013.035      46774.68       44457.321    
     92000   92000          566.67611      39210.787      48022.641      17479.403      11856.171      5623.2323      4221.3943      8097.2365     -7820.5942     -107.11182     -967.74915      7040.4988     -4840.4422     -601.04656      53411.359      37.659788      37.659788      37.659788      1.3702359      38980.735      40931.666      37719.959    
     93000   93000          580.04231      41836.859      50385.158      17880.927      12135.823      5745.1048      4323.4605      7961.4047     -7642.089      -99.644165     -980.53582      7028.6741     -4846.1655     -602.61067      53272.727      37.627178      37.627178      37.627178      1.3738016      40688.901      41518.082      43303.592    
     94000   94000          580.58402      37589.64       47093.253      17792.772      12147.156      5645.616       4340.5012      8121.5324     -7831.9234     -102.7703      -1073.3741      7025.7575     -4834.1073     -600.63557      53447.906      37.668376      37.668376      37.668376      1.3692989      39418.274      37354.23       35996.416    
     95000   95000          568.98486      37122.207      46184.468      17310.461      11904.475      5405.9863      4166.5781      8070.9287     -7732.6579     -91.269422     -1188.6159      7020.0439     -4839.0211     -601.92775      53333.167      37.641402      37.641402      37.641402      1.3722448      37077.91       37812.8        36475.911    
     96000   96000          577.58687      40719.813      49296.06       17664.371      12084.449      5579.9218      4204.9734      7962.3506     -7653.8384     -95.358451     -1022.3949      7025.7116     -4841.522      -602.69977      53264.851      37.625323      37.625323      37.625323      1.3740048      39506.616      42076.84       40575.984    
     97000   97000          585.50777      39357.559      48636.535      17993.423      12250.173      5743.2502      4386.3821      8103.3166     -7772.7499     -100.31151     -1073.116       7041.4199     -4841.6909     -601.33007      53386.178      37.653869      37.653869      37.653869      1.3708822      39589.881      39000.289      39482.505    
     98000   98000          584.69174      41631.558      50169.553      17764.692      12233.099      5531.5927      4260.7437      7874.1615     -7707.0199     -92.782837     -1001.8333      7038.082      -4839.7585     -601.4924       53371.769      37.650481      37.650481      37.650481      1.3712523      42542.974      42360.201      39991.499    
     99000   99000          573.75084      41058.28       49871.651      17790.818      12004.19       5786.6279      4415.7976      8130.8419     -7737.8899     -92.985455     -1122.6883      7039.2374     -4845.6853     -599.20132      53575.84       37.698407      37.698407      37.698407      1.3660292      41555.113      39310.839      42308.888    
    100000   100000         570.65629      38487.039      47739.428      17735.292      11939.445      5795.8469      4331.3014      8122.1045     -7718.0549     -95.198601     -1038.1906      7036.1967     -4842.3116     -600.55254      53455.296      37.670112      37.670112      37.670112      1.3691096      38529.949      37307.572      39623.596    
    101000   101000         583.41758      38200.968      47814.575      17997.1        12206.441      5790.6592      4286.2632      8117.1608     -7658.9792     -101.69456     -1040.6996      7025.6752     -4837.0668     -599.82028      53520.554      37.685435      37.685435      37.685435      1.3674402      39290.458      40428.134      34884.313    
    102000   102000         580.47638      40050.651      48956.674      17697.631      12144.904      5552.7267      4236.0165      7950.6883     -7641.7148     -98.650434     -1105.9535      7054.8089     -4842.4683     -599.86224      53516.81       37.684556      37.684556      37.684556      1.3675359      41982.176      39232.719      38937.056    
    103000   103000         579.57363      38550.31       48199.782      18027.63       12126.017      5901.613       4455.2201      8229.8329     -7756.8664     -100.18434     -1128.9402      7042.342      -4839.7911     -598.1901       53666.408      37.719637      37.719637      37.719637      1.3637238      39232.59       39270.373      37147.967    
    104000   104000         580.75512      40502.656      49458.82       17843.153      12150.736      5692.4173      4309.0639      8117.4276     -7720.8393     -101.23202     -1092.7318      7023.2723     -4842.5435     -599.78941      53523.308      37.686082      37.686082      37.686082      1.3673699      41608.965      39034.798      40864.206    
    105000   105000         566.16572      37693.382      46869.88       17351.566      11845.492      5506.0735      4400.7702      7955.0527     -7699.6608     -91.605077     -1243.0685      7035.1522     -4850.5671     -597.84856      53697.066      37.726819      37.726819      37.726819      1.3629452      37863.403      38498.522      36718.22     
    106000   106000         578.51815      42001.827      50476.151      17654.055      12103.934      5550.1215      4347.5957      7958.13       -7750.4651     -95.491322     -1122.1444      7059.4038     -4846.907      -599.12785      53582.409      37.699947      37.699947      37.699947      1.3658617      40286.024      42001.198      43718.261    
    107000   107000         584.85321      39386.811      48693.664      17777.717      12236.478      5541.2393      4235.603       8135.4119     -7752.4709     -103.76367     -1156.634       7031.3962     -4848.3033     -596.46628      53821.506      37.75594       37.75594       37.75594       1.359794       40444.697      40937.823      36777.914    
    108000   108000         582.40005      40771.193      49464.72       17655.749      12185.152      5470.5966      4267.824       8016.6505     -7716.2583     -99.360528     -1214.2574      7054.2885     -4838.2901     -600.09697      53495.877      37.679642      37.679642      37.679642      1.368071       40473.64       38428.518      43411.422    
    109000   109000         582.64183      39208.893      48537.176      17787.583      12190.211      5597.3723      4341.9785      7945.3873     -7677.4158     -96.959027     -1119.0963      7049.2049     -4845.7273     -596.98419      53774.814      37.745018      37.745018      37.745018      1.3609747      37310.927      39115.182      41200.569    
    110000   110000         582.15815      40838.412      49935.664      18032.167      12180.091      5852.0763      4471.1064      8133.1757     -7709.8077     -99.865898     -1101.3198      7009.8589     -4851.0713     -599.3054       53566.535      37.696224      37.696224      37.696224      1.3662665      38724.621      41320.839      42469.777    
    111000   111000         580.44326      38446.122      47844.155      17729.906      12144.211      5585.6949      4267.4325      8050.791      -7690.5377     -98.151775     -1135.9747      7034.6704     -4842.5348     -597.72049      53708.571      37.729513      37.729513      37.729513      1.3626533      35676.291      40137.96       39524.116    
    112000   112000         582.26517      37392.68       47198.501      17820.416      12182.33       5638.0864      4302.3686      8176.8264     -7700.3177     -96.698243     -1252.5143      7038.7854     -4830.3638     -595.91011      53871.739      37.767682      37.767682      37.767682      1.358526       37018.466      38051.707      37107.867    
    113000   113000         577.70757      38863.51       48146.805      17709.483      12086.974      5622.5081      4292.1047      8119.6248     -7670.387      -102.78163     -1177.579       7005.3716     -4843.8455     -597.79628      53701.762      37.727918      37.727918      37.727918      1.362826       38827.312      39067.908      38695.31     
    114000   114000         580.82146      36847.51       46737.911      17836.849      12152.124      5684.7246      4361.5849      8140.2103     -7684.2193     -95.892219     -1247.2391      7049.2522     -4838.9722     -596.91429      53781.111      37.746491      37.746491      37.746491      1.3608153      38604.309      36355.203      35583.018    
    115000   115000         578.59875      39350.4        48583.106      17882.843      12105.62       5777.2231      4317.671       8164.4264     -7726.0427     -104.73336     -1062.6564      7029.9059     -4841.3478     -600.10146      53495.476      37.679548      37.679548      37.679548      1.3680813      41618.896      40506.277      35926.025    
    116000   116000         581.98643      37463.887      47241.59       17819.819      12176.498      5643.3209      4385.792       8102.8337     -7753.1971     -98.650206     -1208.3004      7056.2421     -4841.3992     -596.15838      53849.303      37.762438      37.762438      37.762438      1.359092       38940.221      37521.532      35929.909    
    117000   117000         580.06863      37897.248      47398.881      17653.345      12136.373      5516.9717      4221.1161      8107.6983     -7711.2755     -96.470873     -1213.2237      7049.307      -4840.1795     -596.49048      53819.323      37.755429      37.755429      37.755429      1.3598491      37297.456      37290.026      39104.263    
    118000   118000         578.90725      37230.697      46610.882      17484.958      12112.075      5372.8831      4276.3036      7892.8903     -7725.2578     -96.201087     -1164.8457      7036.1183     -4846.1245     -598.46546      53641.715      37.713851      37.713851      37.713851      1.3643516      36947.117      40619.496      34125.478    
    119000   119000         582.52139      38877.367      48228.941      17696.667      12187.691      5508.9766      4177.9307      8139.4675     -7661.0343     -96.115059     -1259.8869      7048.418      -4839.8033     -596.14969      53850.088      37.762622      37.762622      37.762622      1.3590722      39082.972      37896.72       39652.41     
    120000   120000         568.12562      35925.671      45519.789      17335.872      11886.498      5449.3739      4228.7705      8106.3872     -7642.3378     -88.568403     -1333.1785      7026.7382     -4848.4373     -596.7895       53792.356      37.749122      37.749122      37.749122      1.3605308      36301.082      36123.95       35351.981    
    121000   121000         579.66531      37919.649      47263.875      17537.961      12127.935      5410.0264      4196.5516      8110.8854     -7756.0833     -98.941909     -1242.9339      7051.1203     -4850.5717     -597.23704      53752.047      37.739691      37.739691      37.739691      1.3615511      38477.035      35969.299      39312.613    
    122000   122000         593.68089      38541.034      48244.479      17934.499      12421.173      5513.3263      4358.5442      8045.8692     -7729.0566     -100.57908     -1261.1087      7041.6932     -4842.0359     -595.32668      53924.534      37.780016      37.780016      37.780016      1.357196       37445.465      41436.552      36741.086    
    123000   123000         582.21139      38412.577      47756.654      17649.452      12181.205      5468.2473      4284.6076      7968.3898     -7705.1034     -97.437586     -1209.5732      7069.0938     -4841.7296     -597.33874      53742.896      37.737549      37.737549      37.737549      1.361783       38129.45       38801.324      38306.957    
    124000   124000         586.47497      36617.72       46632.767      17756.84       12270.409      5486.4312      4311.9347      8000.2419     -7722.4234     -91.673907     -1207.0956      7033.079      -4837.6315     -593.70814      54071.54       37.814316      37.814316      37.814316      1.3535061      36110.384      37254.484      36488.292    
    125000   125000         576.38241      36385.81       46102.769      17512.2        12059.249      5452.9508      4291.7212      8070.5383     -7766.3098     -96.810956     -1231.6837      7032.4237     -4846.9281     -595.8362       53878.421      37.769243      37.769243      37.769243      1.3583576      37628.367      38152.869      33376.194    
    126000   126000         580.29156      37292.461      47031.741      17604.884      12141.037      5463.8461      4347.9301      8114.2947     -7789.6473     -96.827207     -1318.3798      7054.2136     -4847.738      -593.32793      54106.19       37.822391      37.822391      37.822391      1.3526393      38252.077      39319.227      34306.079    
    127000   127000         582.50577      35245.588      45312.703      17649.763      12187.364      5462.3997      4355.9666      8012.0352     -7763.8852     -101.78241     -1237.884       7042.5746     -4844.6252     -596.51872      53816.775      37.754833      37.754833      37.754833      1.3599135      32250.857      36917.576      36568.332    
    128000   128000         576.53922      36886.541      46759.917      17724.094      12062.53       5661.5645      4387.6391      8120.2218     -7684.8923     -97.312666     -1276.6561      7055.1672     -4842.6025     -594.77325      53974.71       37.79173       37.79173       37.79173       1.3559343      38518.34       37464.305      34676.977    
    129000   129000         583.9295       36651.837      46276.972      17502.972      12217.152      5285.821       4215.9882      7995.0873     -7680.5876     -92.35522      -1331.4359      7030.1701     -4851.0458     -596.36638      53830.522      37.758048      37.758048      37.758048      1.3595662      36832.849      34965.694      38156.967    
    130000   130000         576.64627      35981.917      45829.212      17506.881      12064.77       5442.1114      4270.9071      8085.9969     -7633.4637     -96.247713     -1375.2271      7037.2713     -4847.1253     -594.80271      53972.037      37.791106      37.791106      37.791106      1.3560014      36068.04       36369.994      35507.718    
    131000   131000         577.70736      37114.108      46741.984      17611.812      12086.97       5524.8417      4255.9691      8168.793      -7787.6613     -97.772073     -1222.4607      7051.0819     -4843.1082     -596.50435      53818.071      37.755136      37.755136      37.755136      1.3598808      39913.806      35466.664      35961.855    
    132000   132000         575.39357      36783.648      46307.834      17345.929      12038.56       5307.3692      4293.0214      8086.4004     -7803.0351     -98.258667     -1368.2498      7042.3778     -4844.8868     -594.62794      53987.9        37.794808      37.794808      37.794808      1.355603       35464.218      38404.285      36482.441    
    133000   133000         580.29024      38377.126      47798.17       17625.902      12141.01       5484.8918      4206.9146      8213.4099     -7808.9742     -100.20243     -1230.3323      7051.3748     -4847.2987     -595.50047      53908.796      37.77634       37.77634       37.77634       1.3575922      39332.758      37526.248      38272.371    
    134000   134000         580.57667      39916.456      48716.218      17292.713      12147.003      5145.7108      4135.0645      7933.3665     -7706.1839     -92.364102     -1339.3302      7058.9833     -4843.8253     -594.72334      53979.239      37.792787      37.792787      37.792787      1.3558205      37920.705      39356.863      42471.8      
    135000   135000         572.87789      36966.479      46565.208      17381.813      11985.926      5395.8868      4346.9238      8056.4128     -7788.733      -96.962155     -1312.9803      7039.6033     -4848.3776     -593.04809      54131.721      37.828339      37.828339      37.828339      1.3520013      36759.021      37227.77       36912.647    
    136000   136000         577.29967      35931.887      46057.165      17676.322      12078.44       5597.8817      4453.3742      8183.6349     -7792.0315     -98.815062     -1367.1717      7053.4395     -4834.5487     -592.7511       54158.843      37.834656      37.834656      37.834656      1.3513243      34948.866      33952.408      38894.387    
    137000   137000         578.37856      34755.098      45088.48       17674.91       12101.013      5573.8969      4380.8705      8040.4907     -7681.518      -94.545497     -1255.8802      7024.7092     -4840.2299     -593.5681       54084.297      37.817289      37.817289      37.817289      1.3531868      32408.346      38681.983      33174.965    
    138000   138000         572.67318      34298.432      44367.497      17189.815      11981.643      5208.1716      4258.9984      7934.3376     -7641.5933     -92.305449     -1432.4737      7029.8108     -4848.6028     -590.85307      54332.82       37.875126      37.875126      37.875126      1.3469973      33548.572      35324.577      34022.147    
    139000   139000         577.35131      39733.391      48844.223      17518.968      12079.521      5439.4475      4256.2098      8037.4551     -7693.1908     -98.550944     -1272.285       7050.5865     -4840.7772     -593.85259      54058.388      37.81125       37.81125       37.81125       1.3538354      41034.543      41157.753      37007.878    
    140000   140000         582.07588      36444.662      46510.644      17696.203      12178.37       5517.8338      4350.0516      8089.773      -7737.2479     -97.666669     -1332.404       7075.7208     -4830.3931     -592.16314      54212.617      37.847174      37.847174      37.847174      1.3499839      35822.987      37641.534      35869.465    
    141000   141000         581.18915      38453.276      47957.095      17539.339      12159.817      5379.5221      4288.8806      7971.8555     -7621.2258     -92.498794     -1391.6038      7053.1304     -4829.0161     -591.86656      54239.782      37.853495      37.853495      37.853495      1.3493078      38433.673      38852.073      38074.082    
    142000   142000         575.6255       34137.754      44432.506      17409.554      12043.413      5366.1414      4350.1804      7997.5115     -7658.3242     -93.445412     -1424.5645      7035.5426     -4840.7589     -591.45238      54277.765      37.862328      37.862328      37.862328      1.3483635      34220.489      34961.945      33230.828    
    143000   143000         584.83879      33368.956      44076.022      17629.316      12236.176      5393.14        4271.2251      8110.5337     -7832.2372     -101.76876     -1281.1604      7056.2284     -4829.681      -590.7295       54344.186      37.877767      37.877767      37.877767      1.3467155      37876.775      31712.961      30517.131    
    144000   144000         582.87476      35928.135      46189.623      17761.593      12195.084      5566.5089      4455.7706      8009.5257     -7697.0492     -97.519346     -1306.9819      7039.1264     -4836.3633     -591.70541      54254.555      37.856931      37.856931      37.856931      1.3489404      35397.816      36561.984      35824.605    
    145000   145000         579.07621      35078.348      45206.043      17422.353      12115.61       5306.7436      4286.4425      7935.7224     -7677.5032     -104.66731     -1380.1134      7078.8957     -4832.033      -591.10802      54309.386      37.86968       37.86968       37.86968       1.3475785      32998.719      36658.634      35577.691    
    146000   146000         576.82574      37350.418      47018.221      17484.24       12068.524      5415.7158      4279.7909      8022.4775     -7704.842      -96.720241     -1303.3052      7058.0261     -4839.7112     -592.09462      54218.891      37.848634      37.848634      37.848634      1.3498277      38699.713      39463.239      33888.302    
    147000   147000         590.05428      35503.007      45722.257      17648.923      12345.296      5303.6272      4281.7206      7967.8324     -7702.7357     -94.452756     -1379.3601      7068.4237     -4837.8009     -592.09143      54219.183      37.848702      37.848702      37.848702      1.3498204      36812.347      34651.019      35045.654    
    148000   148000         583.08281      34891.828      45179.019      17567.583      12199.437      5368.1458      4295.8106      8065.599      -7754.7078     -94.244306     -1366.0454      7055.8721     -4834.1383     -591.63295      54261.2        37.858476      37.858476      37.858476      1.3487752      33730.726      35553.94       35390.817    
    149000   149000         572.06883      34751.505      44847.18       17272.324      11968.999      5303.3248      4327.29        7987.8497     -7676.1357     -94.266931     -1452.7025      7051.0577     -4839.7675     -590.03529      54408.125      37.892616      37.892616      37.892616      1.3451329      34646.58       36154.355      33453.579    
    150000   150000         580.35877      35260.7        45376.973      17402.861      12142.444      5260.4174      4309.1881      8059.7896     -7760.1596     -95.069304     -1456.4693      7043.2751     -4840.1372     -590.13619      54398.822      37.890456      37.890456      37.890456      1.345363       35505.356      34872.332      35404.412    
    151000   151000         574.36724      32402.445      42974.153      17244.361      12017.087      5227.2736      4330.4374      8102.348      -7719.1744     -95.12968      -1599.2553      7043.765      -4835.7174     -589.60226      54448.085      37.90189       37.90189       37.90189       1.3441457      32073.325      33445.233      31688.778    
    152000   152000         586.39728      33890.446      44401.886      17560.796      12268.783      5292.0127      4265.9026      8027.688      -7675.433      -95.793694     -1438.8178      7045.3959     -4836.9294     -591.14602      54305.895      37.868868      37.868868      37.868868      1.3476651      32604.578      31899.623      37167.136    
    153000   153000         583.88712      33372.465      44109.39       17608.469      12216.265      5392.2044      4419.6988      8023.1682     -7718.6584     -101.28765     -1439.5888      7048.7759     -4839.9035     -589.58301      54449.862      37.902303      37.902303      37.902303      1.3441018      35520.164      34040.16       30557.072    
    154000   154000         583.82234      36404.084      46522.643      17602.224      12214.909      5387.3141      4281.7576      7980.797      -7672.3172     -97.325731     -1317.0022      7053.1037     -4841.699      -589.33625      54472.661      37.907592      37.907592      37.907592      1.3435393      36938.547      34137.943      38135.763    
    155000   155000         587.07598      33910.064      44405.136      17469.259      12282.983      5186.276       4186.4982      8028.7495     -7714.6586     -97.980489     -1400.9651      7028.9942     -4844.3618     -589.40678      54466.143      37.90608       37.90608       37.90608       1.3437001      33603.281      34440.635      33686.276    
    156000   156000         574.68176      34214.688      44582.457      17420.917      12023.668      5397.2492      4423.5299      7923.3512     -7644.2465     -96.368898     -1410.0925      7048.9779     -4847.9018     -589.76069      54433.458      37.898496      37.898496      37.898496      1.3445069      35555.976      31613.056      35475.032    
    157000   157000         583.73756      32672.822      43392.054      17355.63       12213.136      5142.4943      4334.74        7874.939      -7733.9894     -92.796809     -1467.9596      7072.0378     -4844.4766     -587.52038      54641.021      37.946606      37.946606      37.946606      1.3393996      31176.709      33528.19       33313.566    
    158000   158000         574.63386      33847.753      44471.968      17461.632      12022.665      5438.967       4387.3203      8057.0723     -7700.5511     -92.239511     -1419.8947      7044.4555     -4837.1957     -586.7019       54717.248      37.964243      37.964243      37.964243      1.3375336      33278.147      33276.396      34988.716    
    159000   159000         579.06567      34270.742      44652.93       17454.228      12115.389      5338.8388      4327.5768      8189.1229     -7853.9499     -100.10796     -1451.3509      7066.6507     -4839.1029     -589.91977      54418.779      37.895089      37.895089      37.895089      1.3448696      32290.323      35285.102      35236.802    
    160000   160000         589.18298      35872.838      46210.696      17665.239      12327.067      5338.1726      4350.4187      8090.6728     -7743.3147     -93.941286     -1494.2128      7067.3497     -4838.7998     -588.36437      54562.641      37.928453      37.928453      37.928453      1.3413236      35187.187      37547.149      34884.178    
    161000   161000         586.29739      35711.718      45855.117      17521.885      12266.693      5255.1922      4333.9298      8107.4858     -7787.333      -101.00981     -1523.4633      7061.6761     -4836.0934     -590.10904      54401.325      37.891037      37.891037      37.891037      1.3453011      33170.971      36731.74       37232.442    
    162000   162000         577.48948      34980.816      45300.295      17451.927      12082.411      5369.5161      4401.4106      8031.8657     -7670.1234     -93.714455     -1550.4717      7081.9868     -4831.4375     -588.09545      54587.59       37.934233      37.934233      37.934233      1.3407106      35291.115      34596.059      35055.274    
    163000   163000         577.0364       32047.919      42915.814      17496.046      12072.932      5423.114       4377.9869      8024.9947     -7726.0363     -98.454257     -1391.5448      7065.3052     -4829.1374     -590.26342      54387.096      37.887733      37.887733      37.887733      1.345653       30801.447      31101.389      34240.92     
    164000   164000         579.93965      32610.667      43171.951      17148.873      12133.675      5015.198       4351.7528      7874.5522     -7750.6851     -95.048423     -1585.0719      7052.1897     -4832.4913     -586.70347      54717.102      37.96421       37.96421       37.96421       1.3375372      35232.909      31002.673      31596.42     
    165000   165000         582.29856      33741.47       44495.91       17645.71       12183.028      5462.6816      4306.4564      8129.287      -7625.5748     -102.24916     -1476.508       7060.6567     -4829.3864     -588.34777      54564.18       37.92881       37.92881       37.92881       1.3412858      33027.994      35974.118      32222.298    
    166000   166000         579.8624       33481.578      44064.499      17408.507      12132.059      5276.4484      4292.2134      7999.3798     -7687.9        -89.393045     -1468.8739      7066.1892     -4835.1671     -588.06958      54589.992      37.934789      37.934789      37.934789      1.3406516      33966.902      33947.463      32530.37     
    167000   167000         577.11672      31978.271      42948.094      17339.973      12074.613      5265.3603      4435.9102      7993.3289     -7693.7335     -92.210824     -1599.9189      7060.627      -4838.6426     -584.64858      54909.419      38.008636      38.008636      38.008636      1.3328526      29086.44       34066.75       32781.625    
    168000   168000         574.05758      31207.756      42153.657      17280.511      12010.608      5269.9027      4284.5369      8171.8152     -7736.6778     -98.21677      -1573.8291      7057.4969     -4835.2226     -587.42096      54650.269      37.948746      37.948746      37.948746      1.3391729      30328.649      32069.643      31224.975    
    169000   169000         585.46036      33638.949      44300.522      17379.209      12249.181      5130.0282      4321.1149      8048.8128     -7715.9068     -95.7056       -1636.5241      7041.673      -4833.436      -585.01072      54875.428      38.000791      38.000791      38.000791      1.3336781      33511.747      34066.244      33338.857    
    170000   170000         578.33568      31860.616      42883.438      17368.817      12100.116      5268.7009      4386.3581      7925.5325     -7683.7976     -95.082536     -1481.1093      7055.0081     -4838.2084     -584.63213      54910.963      38.008992      38.008992      38.008992      1.3328151      32556.81       30584.063      32440.976    
    171000   171000         587.74715      31968.057      42780.508      17338.839      12297.026      5041.8138      4141.1588      8076.0204     -7855.9015     -92.412811     -1443.6802      7054.1706     -4837.5414     -588.2857       54569.937      37.930143      37.930143      37.930143      1.3411443      30151.143      30117.11       35635.918    
    172000   172000         588.22788      33676.337      44402.148      17446.912      12307.083      5139.8286      4353.1281      7984.8627     -7717.3567     -96.127284     -1599.1011      7055.6447     -4841.2217     -584.92387      54883.575      38.002672      38.002672      38.002672      1.3334802      32587.609      32414.632      36026.769    
    173000   173000         585.27674      33195.1        43971.866      17495.768      12245.339      5250.4287      4417.5043      7927.1957     -7679.1333     -91.357171     -1520.0547      7036.9628     -4840.6889     -586.99936      54689.521      37.95783       37.95783       37.95783       1.3382118      33657.51       34111.68       31816.11     
    174000   174000         574.8036       33561.043      43948.919      17136.04       12026.217      5109.8228      4260.5389      8035.986      -7781.5478     -91.526483     -1502.219       7032.9404     -4844.3492     -586.01621      54781.272      37.979045      37.979045      37.979045      1.3359704      34181.314      32646.939      33854.876    
    175000   175000         578.76296      31641.259      42775.112      17426.405      12109.056      5317.3495      4451.8441      8092.6969     -7779.9794     -101.69875     -1527.0088      7026.5399     -4845.0446     -584.40721      54932.097      38.013868      38.013868      38.013868      1.3323023      32818.152      30840.153      31265.471    
    176000   176000         576.22838      33254.794      43879.978      17330.725      12056.026      5274.6983      4359.5519      7997.7802     -7689.0426     -92.362339     -1524.4835      7060.2513     -4836.9967     -586.43459      54742.189      37.970011      37.970011      37.970011      1.3369242      32169.044      32310.313      35285.025    
    177000   177000         592.31353      34833.231      45577.566      17660.743      12392.565      5268.1785      4398.14        8078.0904     -7777.0719     -101.93343     -1553.7143      7066.1627     -4841.495      -584.17827      54953.625      38.018833      38.018833      38.018833      1.3317804      34823.877      36828.118      32847.696    
    178000   178000         572.07084      33534.493      44106.764      17163.471      11969.041      5194.4304      4294.3339      7966.9006     -7664.1111     -92.049826     -1523.1892      7052.9055     -4840.3596     -582.71837      55091.302      38.050556      38.050556      38.050556      1.3284522      35684.809      31034.093      33884.578    
    179000   179000         579.08081      33096.976      44056.182      17536.791      12115.706      5421.0854      4264.0362      8236.6935     -7702.3589     -100.71264     -1487.0707      7051.235      -4840.7371     -584.30876      54941.353      38.016003      38.016003      38.016003      1.3320779      31626.652      33543.752      34120.523    
    180000   180000         589.86857      32688.549      43587.859      17302.668      12341.411      4961.2572      4294.6993      7864.7574     -7728.0695     -97.363042     -1579.1565      7043.8141     -4837.4246     -582.24013      55136.553      38.060972      38.060972      38.060972      1.3273619      35585.136      33166.948      29313.562    
    181000   181000         586.75026      31503.631      42528.563      17219.054      12276.168      4942.8858      4249.66        7936.871      -7751.1576     -95.017573     -1602.9388      7042.9724     -4837.5038     -582.76645      55086.757      38.04951       38.04951       38.04951       1.3285618      30350.161      30816.644      33344.088    
[...]
    455000   455000         581.4547       4392.358       21653.496      17221.688      12165.373      5056.315       4601.5413      8140.8519     -7611.4858     -95.52884      -2302.419       7129.4317     -4806.0762     -464.01755      69184.266      41.052138      41.052138      41.052138      1.057844       4296.5272      4369.9006      4510.6461    
    456000   456000         566.78526      5310.3354      22028.929      16678.157      11858.455      4819.7026      4498.1081      8111.592      -7697.374      -95.736759     -2280.8055      7101.0463     -4817.1276     -464.64704      69090.538      41.033591      41.033591      41.033591      1.0592791      4556.854       7266.2592      4107.8931    
    457000   457000         581.04654      3634.866       20913.57       17252.158      12156.833      5095.3248      4554.8033      8218.2882     -7683.8706     -97.049829     -2187.8132      7112.2883     -4821.3215     -464.79081      69069.166      41.02936       41.02936       41.02936       1.0596068      4705.1495      2419.0189      3780.4298    
    458000   458000         572.0031       3686.15        20690.492      16914.732      11967.624      4947.1084      4553.8366      8199.8657     -7782.1462     -94.392216     -2211.8652      7097.5324     -4815.7227     -457.0738       70235.296      41.258979      41.258979      41.258979      1.042014       3796.9574      4655.5721      2605.9206    
    459000   459000         574.86154      2780.3318      19977.563      17141.412      12027.429      5113.9834      4520.0392      8427.681      -7766.6122     -99.420938     -2241.7944      7095.3513     -4821.2606     -458.97067      69945.021      41.202061      41.202061      41.202061      1.0463384      1838.4119      5750.1498      752.43369    
    460000   460000         566.69439      3557.9086      20417.259      16788.746      11856.553      4932.1922      4512.9944      8185.1355     -7711.0572     -96.579164     -2223.3095      7088.4299     -4823.4217     -459.07507      69929.116      41.198937      41.198937      41.198937      1.0465764      3710.1907      3117.2094      3846.3257    
    461000   461000         582.70278      2445.6233      19680.846      17174.293      12191.486      4982.8071      4714.8992      8039.2088     -7727.2241     -94.739752     -2253.5818      7120.099      -4815.8543     -456.80432      70276.73       41.26709       41.26709       41.26709       1.0413996      3840.9333      2887.6324      608.30422    
    462000   462000         584.93474      3575.0103      21131.099      17487.857      12238.183      5249.6733      4722.0692      8356.3669     -7682.6119     -99.077379     -2304.3234      7081.2596     -4824.0098     -459.41676      69877.106      41.188721      41.188721      41.188721      1.0473553      2260.3089      4180.6192      4284.1029    
    463000   463000         576.04177      3509.5869      20525.571      16954.15       12052.122      4902.0275      4548.1494      8164.1318     -7709.3337     -97.834201     -2240.8431      7067.1587     -4829.4014     -460.07908      69776.513      41.168946      41.168946      41.168946      1.0488653      3446.5257      3775.3134      3306.9216    
    464000   464000         578.59224      4543.6243      21865.191      17165.158      12105.484      5059.6743      4607.3976      8231.5008     -7693.5806     -88.809977     -2245.0058      7075.8027     -4827.6304     -452.60474      70928.806      41.394332      41.394332      41.394332      1.0318256      2751.5608      6992.0753      3887.2366    
    465000   465000         583.01651      5141.4227      22472.378      17200.671      12198.05       5002.6213      4518.8477      8144.2198     -7675.8634     -94.061046     -2147.926       7080.1672     -4822.7629     -456.61445      70305.952      41.272809      41.272809      41.272809      1.0409668      6637.5073      4079.145       4707.6159    
    466000   466000         585.20296      3283.8529      20707.132      17348.395      12243.795      5104.6001      4542.6745      8272.9713     -7655.251      -92.384273     -2233.6382      7091.6494     -4821.4217     -457.7469       70132.017      41.238745      41.238745      41.238745      1.0435485      6715.2957      1091.7881      2044.4748    
    467000   467000         580.90154      3263.821       20574.676      17188.571      12153.8        5034.7708      4578.913       8247.4707     -7757.4916     -100.63812     -2227.8419      7115.6028     -4821.244      -451.27728      71137.448      41.434881      41.434881      41.434881      1.0287993      1449.2179      3119.5322      5222.7128    
    468000   468000         589.82829      3614.7265      21113.284      17356.904      12340.568      5016.3361      4527.5504      8346.6006     -7872.8106     -92.731547     -2179.2848      7106.9193     -4819.9072     -450.52984      71255.466      41.457782      41.457782      41.457782      1.0270954      3864.5656      5098.8692      1880.7447    
    469000   469000         578.64213      3658.839       21245.835      17457.299      12106.528      5350.7714      4719.9925      8307.9599     -7714.0475     -103.69829     -2106.1038      7071.4341     -4824.7656     -452.15722      70999.006      41.407984      41.407984      41.407984      1.0308054      2048.4981      4668.3732      4259.6458    
    470000   470000         574.92401      3828.5887      21236.724      17229.318      12028.736      5200.5822      4651.7587      8257.2655     -7765.0034     -91.851377     -2097.3138      7072.7294     -4827.0028     -447.29394      71770.956      41.557516      41.557516      41.557516      1.0197183      6281.841       1900.5707      3303.3545    
    471000   471000         579.87805      2036.8386      19341.691      17211.939      12132.386      5079.5531      4738.9953      8208.5963     -7700.8085     -91.665289     -2281.3626      7042.4118     -4836.6138     -447.75998      71696.254      41.543092      41.543092      41.543092      1.0207808      52.714746      3792.6271      2265.1738    
    472000   472000         583.58353      2066.5202      19709.708      17539.639      12209.913      5329.7258      4629.6219      8397.7133     -7740.7552     -97.554407     -2113.6031      7074.8369     -4820.5336     -445.84492      72004.216      41.602488      41.602488      41.602488      1.0164149      1728.0425      2866.6308      1604.8873    
    473000   473000         576.81174      2078.0602      19382.843      17196.596      12068.232      5128.3645      4696.1287      8048.7169     -7692.7136     -95.392905     -2088.2652      7081.7112     -4821.8207     -445.01694      72138.183      41.628274      41.628274      41.628274      1.0145274      3531.1435      341.34579      2361.6914    
    474000   474000         574.52886      1879.8452      19071.098      17086.969      12020.468      5066.5009      4699.476       8264.2607     -7844.2868     -95.812531     -2224.1748      7089.7479     -4822.7096     -443.57798      72372.198      41.673239      41.673239      41.673239      1.0112469      1715.4825      3056.5111      867.54205    
    475000   475000         581.23842      2576.1662      19935.126      17221.721      12160.848      5060.873       4618.3072      8219.0522     -7747.3404     -93.605786     -2222.6963      7101.4637     -4814.3076     -444.50516      72221.239      41.644244      41.644244      41.644244      1.0133606      502.89246      2784.1187      4441.4875    
    476000   476000         578.72804      4139.7053      21802.188      17412.587      12108.325      5304.2621      4609.642       8306.3526     -7725.7265     -96.513455     -2090.4702      7106.5993     -4805.6216     -441.53186      72707.582      41.737513      41.737513      41.737513      1.0065822      5028.2274      3046.1556      4344.7328    
    477000   477000         584.77934      2279.3624      19789.832      17362.518      12234.932      5127.5859      4581.3326      8244.0752     -7745.8146     -97.321508     -2113.1112      7081.0171     -4822.5917     -439.64786      73019.151      41.797046      41.797046      41.797046      1.0022872      2683.6886      254.14125      3900.2573    
    478000   478000         587.47515      2223.4848      19772.236      17423.5        12291.335      5132.1655      4554.5382      8265.1451     -7628.7987     -94.212989     -2218.1447      7076.9509     -4823.3123     -443.21826      72430.937      41.68451       41.68451       41.68451       1.0104268      3006.8457      561.11639      3102.4923    
    479000   479000         582.63628      961.71022      18238.708      17214.35       12190.094      5024.2559      4675.2734      8030.0384     -7757.752      -86.807546     -2106.3549      7087.6063     -4817.7478     -439.55188      73035.096      41.800088      41.800088      41.800088      1.0020684      215.51404      2645.9085      23.708087    
    480000   480000         585.10091      4134.0527      21986.538      17562.641      12241.66       5320.9806      4545.5674      8425.8988     -7735.3306     -96.800557     -2095.6346      7091.7299     -4814.4498     -437.51065      73375.845      41.864994      41.864994      41.864994      0.99741488     3532.2698      4885.8776      3984.0105    
    481000   481000         577.89949      1890.547       19347.755      17329.976      12090.99       5238.9857      4537.9916      8324.9708     -7708.9431     -96.956339     -2059.086       7067.6591     -4826.6504     -438.66334      73183.032      41.828292      41.828292      41.828292      1.0000427      3649.181       642.76485      1379.6952    
    482000   482000         574.67579      800.4673       18315.865      17448.498      12023.543      5424.9551      4731.4019      8308.85       -7737.4619     -100.68245     -2037.8691      7086.0167     -4825.3001     -432.07398      74299.113      42.039855      42.039855      42.039855      0.98502063     2439.7788     -562.92797      524.55105    
    483000   483000         594.01923      642.98574      18329.728      17632.407      12428.252      5204.1547      4655.0478      8180.5993     -7722.0795     -96.449411     -2044.053       7060.7945     -4829.7049     -431.70379      74362.825      42.051868      42.051868      42.051868      0.9841767      360.66362      2496.6834     -928.38976    
    484000   484000         574.12104      68.518589      17637.933      17562.897      12011.936      5550.9613      4759.6862      8271.3861     -7673.6157     -92.726985     -2003.5085      7096.8753     -4807.1351     -427.51864      75090.794      42.188644      42.188644      42.188644      0.97463559     808.30787     -928.24008      325.48798    
    485000   485000         581.02918     -665.82351      16612.263      17341.517      12156.47       5185.047       4664.0551      8096.6844     -7726.5276     -92.032406     -2044.6974      7101.6849     -4814.1199     -427.46234      75100.684      42.190496      42.190496      42.190496      0.97450724    -229.60957     -737.18529     -1030.6757    
    486000   486000         585.24738      1741.6239      19576.075      17677.814      12244.725      5433.0897      4626.3539      8311.1002     -7772.9384     -97.587208     -1948.7603      7128.2812     -4813.3597     -429.55249      74735.252      42.121953      42.121953      42.121953      0.97927226     4509.544      -554.69885      1270.0266    
    487000   487000         583.52323      1783.839       19294.399      17317.104      12208.651      5108.4522      4493.8234      8181.8598     -7819.554      -94.628544     -1926.224       7094.5166     -4821.341      -422.37839      76004.63       42.359096      42.359096      42.359096      0.96291712     2677.3088      1096.2503      1577.9579    
    488000   488000         586.43098      123.34074      17592.61       17455.568      12269.488      5186.0798      4592.7095      8109.898      -7769.8926     -96.538228     -1965.0357      7129.7177     -4814.779      -421.37602      76185.431      42.392658      42.392658      42.392658      0.96063195     1212.0297     -1051.9013      209.89381    
    489000   489000         575.9876       658.92468      18403.843      17674.789      12050.989      5623.8005      4800.9777      8311.8027     -7752.3965     -94.853018     -1939.6389      7102.3353     -4804.4268     -423.14916      75866.187      42.333361      42.333361      42.333361      0.96467428     453.38786      1996.9552     -473.56908    
    490000   490000         578.02903      1312.4539      18979.348      17508.865      12093.7        5415.1645      4635.1611      8316.6939     -7733.7342     -99.333404     -1975.7839      7085.9348     -4813.7738     -417.87034      76824.581      42.510877      42.510877      42.510877      0.95263988     1740.8402      1196.6114      999.91       
    491000   491000         583.3113       387.12651      17757.381      17324.792      12204.217      5120.5743      4402.9988      8314.3846     -7789.9746     -94.458291     -1973.3701      7082.2733     -4821.2795     -418.98144      76620.848      42.473265      42.473265      42.473265      0.95517292     1037.5002      1681.1558     -1557.2764    
    492000   492000         579.7508       2496.7185      20388.946      17557.526      12129.724      5427.8027      4656.4591      8255.2798     -7777.1302     -100.56427     -1864.0491      7079.9767     -4822.1694     -412.8411       77760.46       42.682804      42.682804      42.682804      0.94117446     3838.2837      1758.6267      1893.2452    
    493000   493000         592.51865      17.465496      18008.218      17988.383      12396.856      5591.5267      4663.8435      8358.2224     -7720.9101     -97.497105     -1865.8687      7082.1114     -4828.3747     -412.25932      77870.196      42.702872      42.702872      42.702872      0.93984815    -849.53696      109.44435      792.4891     
    494000   494000         571.26021      72.259752      17486.251      17403.099      11952.081      5451.018       4602.436       8304.4042     -7728.5208     -99.600413     -1912.4179      7093.81       -4809.093      -406.85473      78904.609      42.891127      42.891127      42.891127      0.92752706    -920.52545      909.92185      227.38286    
    495000   495000         580.66955     -226.48568      17586.496      17845.609      12148.946      5696.6632      4672.4973      8425.9561     -7733.6452     -104.77368     -1859.1519      7098.9113     -4803.1307     -409.23149      78446.343      42.807931      42.807931      42.807931      0.93294546     426.93602      245.1153      -1351.5084    
    496000   496000         564.15769     -588.66843      16697.408      17376.991      11803.48       5573.5109      4728.6238      8275.1127     -7783.4234     -95.32822      -1852.2503      7105.1812     -4804.4047     -405.55143      79158.181      42.937024      42.937024      42.937024      0.92455585    -1008.6322     -837.09291      79.719857    
    497000   497000         585.41005     -18.312123      17858.046      17879.147      12248.128      5631.0186      4572.8444      8385.6545     -7767.0624     -98.135616     -1818.1765      7146.8951     -4791.0009     -406.31711      79009.012      42.910036      42.910036      42.910036      0.92630142    -356.51392     -999.87842      1301.456     
    498000   498000         575.65258      783.96508      18551.838      17652.533      12043.979      5608.5539      4590.1578      8458.2936     -7799.9362     -102.97845     -1850.7154      7117.5228     -4803.7902     -408.13842      78656.437      42.846112      42.846112      42.846112      0.93045353     1083.8996      964.28632      303.70933    
    499000   499000         574.46928      1694.2282      19603.714      17608.127      12019.222      5588.9047      4564.0238      8226.665      -7785.6644     -92.193216     -1679.1278      7150.8857     -4795.6845     -397.48326      80764.945      43.225594      43.225594      43.225594      0.90616244     1191.2178      1714.1618      2177.3049    
    500000   500000         579.42978     -1024.4589      16678.121      17876.968      12123.007      5753.9609      4697.3831      8317.314      -7662.0072     -94.520934     -1819.5771      7125.2789     -4809.9098     -400.08157      80240.422      43.131815      43.131815      43.131815      0.91208593    -108.78442     -285.87237     -2678.7198    
Loop time of 1101.66 on 1 procs for 500000 steps with 7020 atoms

Performance: 39.214 ns/day, 0.612 hours/ns, 453.861 timesteps/s, 3.186 Matom-step/s
99.9% CPU use with 1 MPI tasks x 1 OpenMP threads

MPI task timing breakdown:
Section |  min time  |  avg time  |  max time  |%varavg| %total
---------------------------------------------------------------
Pair    | 143.58     | 143.58     | 143.58     |   0.0 | 13.03
Bond    | 119.53     | 119.53     | 119.53     |   0.0 | 10.85
Kspace  | 493.87     | 493.87     | 493.87     |   0.0 | 44.83
Neigh   | 128.54     | 128.54     | 128.54     |   0.0 | 11.67
Comm    | 23.786     | 23.786     | 23.786     |   0.0 |  2.16
Output  | 6.5683     | 6.5683     | 6.5683     |   0.0 |  0.60
Modify  | 164.49     | 164.49     | 164.49     |   0.0 | 14.93
Other   |            | 21.31      |            |       |  1.93

Nlocal:           7020 ave        7020 max        7020 min
Histogram: 1 0 0 0 0 0 0 0 0 0
Nghost:          18287 ave       18287 max       18287 min
Histogram: 1 0 0 0 0 0 0 0 0 0
Neighs:              0 ave           0 max           0 min
Histogram: 1 0 0 0 0 0 0 0 0 0
FullNghs:  3.91189e+06 ave 3.91189e+06 max 3.91189e+06 min
Histogram: 1 0 0 0 0 0 0 0 0 0

Total # of neighbors = 3911886
Ave neighs/atom = 557.24872
Ave special neighs/atom = 5.7008547
Neighbor list builds = 24149
Dangerous builds = 0

# --- Cleanup ---
unfix npt_fix

undump dump_npt

# --- Write Output ---
write_dump all custom npt_pppm_last.dump id type mol x y z xu yu zu vx vy vz modify sort id
write_data /home/alexzhao/PolyJarvis/data/PEG4/lammps/equil/npt_pppm/npt_pppm_out.data
System init for write_data ...
PPPM Kokkos initialization ...
  using 12-bit tables for long-range coulomb
  G vector (1/distance) = 0.29852779
  grid = 30 30 30
  stencil order = 5
  estimated absolute RMS force accuracy = 0.00035703557
  estimated relative force accuracy = 1.075202e-06
  using double precision cuFFT
  3d grid and FFT values/proc = 50653 27000
Generated 10 of 10 mixed pair_coeff terms from sixthpower/sixthpower mixing rule

print "STAGE COMPLETE: NPT T=580.0->580.0K P=50000.0->1.0atm steps=500000"
STAGE COMPLETE: NPT T=580.0->580.0K P=50000.0->1.0atm steps=500000
quit
      |  1.93

Nlocal:           7020 ave        7020 max        7020 min
Histogram: 1 0 0 0 0 0 0 0 0 0
Nghost:          18287 ave       18287 max       18287 min
Histogram: 1 0 0 0 0 0 0 0 0 0
Neighs:              0 ave           0 max           0 min
Histogram: 1 0 0 0 0 0 0 0 0 0
FullNghs:  3.91189e+06 ave 3.91189e+06 max 3.91189e+06 min
Histogram: 1 0 0 0 0 0 0 0 0 0

Total # of neighbors = 3911886
Ave neighs/atom = 557.24872
Ave special neighs/atom = 5.7008547
Neighbor list builds = 24149
Dangerous builds = 0
System init for write_data ...
PPPM Kokkos initialization ...
  using 12-bit tables for long-range coulomb
  G vector (1/distance) = 0.29852779
  grid = 30 30 30
  stencil order = 5
  estimated absolute RMS force accuracy = 0.00035703557
  estimated relative force accuracy = 1.075202e-06
  using double precision cuFFT
  3d grid and FFT values/proc = 50653 27000
Generated 10 of 10 mixed pair_coeff terms from sixthpower/sixthpower mixing rule
STAGE COMPLETE: NPT T=580.0->580.0K P=50000.0->1.0atm steps=500000
