units real
atom_style full
boundary p p p

# --- Force Field Styles ---
pair_style lj/class2/coul/long 9.5 9.5
kspace_style pppm 1e-6
dielectric 1.000000
bond_style class2
angle_style class2
dihedral_style class2
improper_style class2
special_bonds lj/coul 0 0 1
pair_modify mix sixthpower tail yes
neighbor 2.0 bin
neigh_modify delay 0 every 1 check yes
neigh_modify one 4000
# KOKKOS: package loaded via -pk kokkos on the command line

read_data /home/alexzhao/PolyJarvis/data/PMMA4/lammps/equil/npt_cool/npt_cool_out.data
Reading data file ...
  orthogonal box = (4.4503592 4.4503592 4.4503592) to (47.300639 47.300639 47.300639)
  1 by 1 by 1 MPI processor grid
  reading atoms ...
  7520 atoms
  reading velocities ...
  7520 velocities
  scanning bonds ...
  4 = max bonds/atom
  scanning angles ...
  17 = max angles/atom
  scanning dihedrals ...
  40 = max dihedrals/atom
  scanning impropers ...
  14 = max impropers/atom
  orthogonal box = (4.4503592 4.4503592 4.4503592) to (47.300639 47.300639 47.300639)
  1 by 1 by 1 MPI processor grid
  reading bonds ...
  7510 bonds
  reading angles ...
  14000 angles
  reading dihedrals ...
  18910 dihedrals
  reading impropers ...
  8500 impropers
Finding 1-2 1-3 1-4 neighbors ...
  special bond factors lj:    0        0        1       
  special bond factors coul:  0        0        1       
     4 = max # of 1-2 neighbors
    11 = max # of 1-3 neighbors
    15 = max # of special neighbors
  special bonds CPU = 0.004 seconds
  read_data CPU = 0.302 seconds
include /home/alexzhao/PolyJarvis/data/PMMA4/lammps/equil/emc_build.params
# LAMMPS parameters created by EMC v9.4.4, build Jul 31 2025 20:33:44

# Variables

variable	seed		index	734812
variable	ntotal		index	7520
variable	fshape		index	1
variable	output		index	emc_build
variable	field		index	pcff/pcff
variable	location1	index	~/emc/field/
variable	nav		index	0.6022141179
variable	temperature	index	300
variable	radius		index	5
variable	nrelax		index	100
variable	weight_nonbond	index	0.0001
variable	weight_bond	index	0.0001
variable	weight_focus	index	1
variable	cutoff		index	9.5
variable	charge_cutoff	index	9.5
variable	kappa		index	4
variable	density1	index	0.6
variable	lprevious	index	0
variable	lphase		index	51.7509981335
variable	f_poly		index	10
variable	chem_repeat	index	*CC(C)(C(=O)OC)*
variable	chem_cap	index	*[H]
variable	lg_repeat	index	15
variable	lg_cap		index	1
variable	norm_poly	index	100
variable	l_poly		index	752
variable	mg_repeat	index	88.10716
variable	mg_cap		index	1.00797
variable	m_poly		index	4407.37394
variable	n_poly		index	10
variable	mtotal		index	50079.3144
variable	nphase1		index	7520
variable	mphase1		index	50079.3144
variable	vphase1		index	138597.753721
variable	lbox		index	51.7509981335
variable	lphase1		index	51.7509981335
variable	lxx		index	51.7509981335
variable	lyy		index	51.7509981335
variable	lzz		index	51.7509981335
variable	lzy		index	0
variable	lzx		index	0
variable	lyx		index	0
variable	vtotal		index	138597.753721
variable	nl_poly		index	10

# Types

variable	type_c		index	1
variable	type_c1		index	2
variable	type_c_1	index	3
variable	type_hc		index	4
variable	type_o_1	index	5
variable	type_o_2	index	6

variable	type_bond_c_c	index	1
variable	type_bond_c_c1	index	2
variable	type_bond_c_c_1	index	3
variable	type_bond_c_hc	index	4
variable	type_bond_c_o_2	index	5
variable	type_bond_c1_c_1 index	6
variable	type_bond_c1_hc	index	7
variable	type_bond_c_1_o_1 index	8
variable	type_bond_c_1_o_2 index	9

variable	type_angle_c_c_c index	1
variable	type_angle_c_c_c1 index	2
variable	type_angle_c_c_c_1 index	3
variable	type_angle_c_c_hc index	4
variable	type_angle_c_c1_c index	5
variable	type_angle_c_c1_c_1 index	6
variable	type_angle_c_c1_hc index	7
variable	type_angle_c_c_1_o_1 index	8
variable	type_angle_c_c_1_o_2 index	9
variable	type_angle_c_o_2_c_1 index	10
variable	type_angle_c1_c_hc index	11
variable	type_angle_c1_c_1_o_1 index	12
variable	type_angle_c1_c_1_o_2 index	13
variable	type_angle_c_1_c1_hc index	14
variable	type_angle_hc_c_hc index	15
variable	type_angle_hc_c_o_2 index	16
variable	type_angle_o_1_c_1_o_2 index	17

# Clusters

variable	n0_poly		index	1
variable	n1_poly		index	10
variable	nl_poly		index	10

# Flags

variable	flag_charged	index	1

# Masses

mass		1    12.01115  # c
mass		2    12.01115  # c1
mass		3    12.01115  # c_1
mass		4     1.00797  # hc
mass		5    15.99940  # o_1
mass		6    15.99940  # o_2

# Potentials

pair_modify	mix sixthpower tail yes
special_bonds	lj/coul 0 0 1

# Pair Coeffs

pair_coeff	 1  1    0.05400    4.01000  # c,c
pair_coeff	 2  2    0.05400    4.01000  # c1,c1
pair_coeff	 3  3    0.12000    3.81000  # c_1,c_1
pair_coeff	 4  4    0.02000    2.99500  # hc,hc
pair_coeff	 5  5    0.26700    3.30000  # o_1,o_1
pair_coeff	 6  6    0.24000    3.42000  # o_2,o_2

# Bond Coeffs

bond_coeff	1    1.53000  299.67000 -501.77000  679.81000  # c,c
bond_coeff	2    1.53000  299.67000 -501.77000  679.81000  # c,c1
bond_coeff	3    1.52020  253.70670 -423.03700  396.90000  # c,c_1
bond_coeff	4    1.10100  345.00000 -691.89000  844.60000  # c,hc
bond_coeff	5    1.43000  326.72730 -608.53060  689.03330  # c,o_2
bond_coeff	6    1.52020  253.70670 -423.03700  396.90000  # c1,c_1
bond_coeff	7    1.10100  345.00000 -691.89000  844.60000  # c1,hc
bond_coeff	8    1.20200  851.14030 -1918.48820 2160.76590  # c_1,o_1
bond_coeff	9    1.36830  367.14810 -794.79080 1055.23190  # c_1,o_2

# Angle Coeffs

angle_coeff	 1  112.67000   39.51600   -7.44300   -9.55830  # c,c,c
angle_coeff	 2  112.67000   39.51600   -7.44300   -9.55830  # c,c,c1
angle_coeff	 3  108.52950   51.97470   -9.48510  -10.99850  # c,c,c_1
angle_coeff	 4  110.77000   41.45300  -10.60400    5.12900  # c,c,hc
angle_coeff	 5  112.67000   39.51600   -7.44300   -9.55830  # c,c1,c
angle_coeff	 6  108.52950   51.97470   -9.48510  -10.99850  # c,c1,c_1
angle_coeff	 7  110.77000   41.45300  -10.60400    5.12900  # c,c1,hc
angle_coeff	 8  123.14510   55.54310  -17.21230    0.13480  # c,c_1,o_1
angle_coeff	 9  100.31820   38.86310   -3.83230   -7.98020  # c,c_1,o_2
angle_coeff	10  113.28800   61.28680  -28.97860    7.99290  # c,o_2,c_1
angle_coeff	11  110.77000   41.45300  -10.60400    5.12900  # c1,c,hc
angle_coeff	12  123.14510   55.54310  -17.21230    0.13480  # c1,c_1,o_1
angle_coeff	13  100.31820   38.86310   -3.83230   -7.98020  # c1,c_1,o_2
angle_coeff	14  107.73360   40.60990  -28.81210    0.00000  # c_1,c1,hc
angle_coeff	15  107.66000   39.64100  -12.92100   -2.43180  # hc,c,hc
angle_coeff	16  107.68800   65.48010  -10.34980    5.88660  # hc,c,o_2
angle_coeff	17  120.79700   95.34460  -32.28690    6.37780  # o_1,c_1,o_2

# BondBond Coeffs

angle_coeff	 1 bb    0.00000    1.53000    1.53000  # c,c,c
angle_coeff	 2 bb    0.00000    1.53000    1.53000  # c,c,c1
angle_coeff	 3 bb    5.41990    1.53000    1.52020  # c,c,c_1
angle_coeff	 4 bb    3.38720    1.53000    1.10100  # c,c,hc
angle_coeff	 5 bb    0.00000    1.53000    1.53000  # c,c1,c
angle_coeff	 6 bb    5.41990    1.53000    1.52020  # c,c1,c_1
angle_coeff	 7 bb    3.38720    1.53000    1.10100  # c,c1,hc
angle_coeff	 8 bb   46.06850    1.52020    1.20200  # c,c_1,o_1
angle_coeff	 9 bb   19.10690    1.52020    1.36830  # c,c_1,o_2
angle_coeff	10 bb   45.45030    1.43000    1.36830  # c,o_2,c_1
angle_coeff	11 bb    3.38720    1.53000    1.10100  # c1,c,hc
angle_coeff	12 bb   46.06850    1.52020    1.20200  # c1,c_1,o_1
angle_coeff	13 bb   19.10690    1.52020    1.36830  # c1,c_1,o_2
angle_coeff	14 bb    0.71150    1.52020    1.10100  # c_1,c1,hc
angle_coeff	15 bb    5.33160    1.10100    1.10100  # hc,c,hc
angle_coeff	16 bb    5.64540    1.10100    1.43000  # hc,c,o_2
angle_coeff	17 bb  121.48800    1.20200    1.36830  # o_1,c_1,o_2

# BondAngle Coeffs

angle_coeff	 1 ba    8.01600    8.01600    1.53000    1.53000  # c,c,c
angle_coeff	 2 ba    8.01600    8.01600    1.53000    1.53000  # c,c,c1
angle_coeff	 3 ba   18.16780   15.87580    1.53000    1.52020  # c,c,c_1
angle_coeff	 4 ba   20.75400   11.42100    1.53000    1.10100  # c,c,hc
angle_coeff	 5 ba    8.01600    8.01600    1.53000    1.53000  # c,c1,c
angle_coeff	 6 ba   18.16780   15.87580    1.53000    1.52020  # c,c1,c_1
angle_coeff	 7 ba   20.75400   11.42100    1.53000    1.10100  # c,c1,hc
angle_coeff	 8 ba   34.99820   37.12980    1.52020    1.20200  # c,c_1,o_1
angle_coeff	 9 ba    1.34350    4.69780    1.52020    1.36830  # c,c_1,o_2
angle_coeff	10 ba   41.91160   46.46080    1.43000    1.36830  # c,o_2,c_1
angle_coeff	11 ba   20.75400   11.42100    1.53000    1.10100  # c1,c,hc
angle_coeff	12 ba   34.99820   37.12980    1.52020    1.20200  # c1,c_1,o_1
angle_coeff	13 ba    1.34350    4.69780    1.52020    1.36830  # c1,c_1,o_2
angle_coeff	14 ba   12.46320    9.17650    1.52020    1.10100  # c_1,c1,hc
angle_coeff	15 ba   18.10300   18.10300    1.10100    1.10100  # hc,c,hc
angle_coeff	16 ba    8.68640   57.49750    1.10100    1.43000  # hc,c,o_2
angle_coeff	17 ba   76.26140   71.87610    1.20200    1.36830  # o_1,c_1,o_2

# Dihedral Coeffs

dihedral_coeff	 1    0.00000    0.00000    0.05140    0.00000   -0.14300    0.00000  # c,c,c,c
dihedral_coeff	 2    0.00000    0.00000    0.05140    0.00000   -0.14300    0.00000  # c,c,c,c1
dihedral_coeff	 3    0.09720    0.00000    0.07220    0.00000   -0.25810    0.00000  # c,c,c,c_1
dihedral_coeff	 4    0.00000    0.00000    0.03160    0.00000   -0.16810    0.00000  # c,c,c,hc
dihedral_coeff	 5    0.00000    0.00000    0.05140    0.00000   -0.14300    0.00000  # c,c,c1,c
dihedral_coeff	 6    0.09720    0.00000    0.07220    0.00000   -0.25810    0.00000  # c,c,c1,c_1
dihedral_coeff	 7    0.00000    0.00000    0.03160    0.00000   -0.16810    0.00000  # c,c,c1,hc
dihedral_coeff	 8    0.04420    0.00000    0.02920    0.00000    0.05620    0.00000  # c,c,c_1,o_1
dihedral_coeff	 9    1.83410    0.00000    2.06030    0.00000   -0.01950    0.00000  # c,c,c_1,o_2
dihedral_coeff	10    0.00000    0.00000    0.03160    0.00000   -0.16810    0.00000  # c,c1,c,hc
dihedral_coeff	11    0.04420    0.00000    0.02920    0.00000    0.05620    0.00000  # c,c1,c_1,o_1
dihedral_coeff	12    1.83410    0.00000    2.06030    0.00000   -0.01950    0.00000  # c,c1,c_1,o_2
dihedral_coeff	13   -2.55940    0.00000    2.20130    0.00000    0.03250    0.00000  # c,c_1,o_2,c
dihedral_coeff	14   -2.55940    0.00000    2.20130    0.00000    0.03250    0.00000  # c,o_2,c_1,c1
dihedral_coeff	15    0.00000    0.00000    2.20890    0.00000    0.00000    0.00000  # c,o_2,c_1,o_1
dihedral_coeff	16    0.09720    0.00000    0.07220    0.00000   -0.25810    0.00000  # c1,c,c,c_1
dihedral_coeff	17   -0.02280    0.00000    0.02800    0.00000   -0.18630    0.00000  # c_1,c,c,hc
dihedral_coeff	18   -0.02280    0.00000    0.02800    0.00000   -0.18630    0.00000  # c_1,c1,c,hc
dihedral_coeff	19    0.00000    0.00000    0.00000    0.00000   -0.19320    0.00000  # c_1,o_2,c,hc
dihedral_coeff	20   -0.14320    0.00000    0.06170    0.00000   -0.10830    0.00000  # hc,c,c1,hc
dihedral_coeff	21   -0.18040    0.00000    0.00120    0.00000    0.03710    0.00000  # hc,c1,c_1,o_1
dihedral_coeff	22   -0.63590    0.00000    1.48070    0.00000   -0.04380    0.00000  # hc,c1,c_1,o_2

# MiddleBondTorsion Coeffs

dihedral_coeff	 1 mbt  -17.78700   -7.18770    0.00000    1.53000  # c,c,c,c
dihedral_coeff	 2 mbt  -17.78700   -7.18770    0.00000    1.53000  # c,c,c,c1
dihedral_coeff	 3 mbt   -1.59450    0.22670   -0.69110    1.53000  # c,c,c,c_1
dihedral_coeff	 4 mbt  -14.87900   -3.65810   -0.31380    1.53000  # c,c,c,hc
dihedral_coeff	 5 mbt  -17.78700   -7.18770    0.00000    1.53000  # c,c,c1,c
dihedral_coeff	 6 mbt   -1.59450    0.22670   -0.69110    1.53000  # c,c,c1,c_1
dihedral_coeff	 7 mbt  -14.87900   -3.65810   -0.31380    1.53000  # c,c,c1,hc
dihedral_coeff	 8 mbt    0.33880   -0.10960    0.12190    1.52020  # c,c,c_1,o_1
dihedral_coeff	 9 mbt  -17.32800   -5.79000   -3.21140    1.52020  # c,c,c_1,o_2
dihedral_coeff	10 mbt  -14.87900   -3.65810   -0.31380    1.53000  # c,c1,c,hc
dihedral_coeff	11 mbt    0.33880   -0.10960    0.12190    1.52020  # c,c1,c_1,o_1
dihedral_coeff	12 mbt  -17.32800   -5.79000   -3.21140    1.52020  # c,c1,c_1,o_2
dihedral_coeff	13 mbt    1.34450    3.55150   -4.92020    1.36830  # c,c_1,o_2,c
dihedral_coeff	14 mbt    1.34450    3.55150   -4.92020    1.36830  # c,o_2,c_1,c1
dihedral_coeff	15 mbt    4.26000    0.00000    0.00000    1.36830  # c,o_2,c_1,o_1
dihedral_coeff	16 mbt   -1.59450    0.22670   -0.69110    1.53000  # c1,c,c,c_1
dihedral_coeff	17 mbt   -3.50390    1.24580   -0.76100    1.53000  # c_1,c,c,hc
dihedral_coeff	18 mbt   -3.50390    1.24580   -0.76100    1.53000  # c_1,c1,c,hc
dihedral_coeff	19 mbt    0.00000    0.00000    0.00000    1.43000  # c_1,o_2,c,hc
dihedral_coeff	20 mbt  -14.26100   -0.53220   -0.48640    1.53000  # hc,c,c1,hc
dihedral_coeff	21 mbt    0.23590    0.91390    0.95940    1.52020  # hc,c1,c_1,o_1
dihedral_coeff	22 mbt  -13.76860   -2.59590    1.19340    1.52020  # hc,c1,c_1,o_2

# EndBondTorsion Coeffs

dihedral_coeff	 1 ebt   -0.07320    0.00000    0.00000   -0.07320    0.00000    0.00000    1.53000    1.53000  # c,c,c,c
dihedral_coeff	 2 ebt   -0.07320    0.00000    0.00000   -0.07320    0.00000    0.00000    1.53000    1.53000  # c,c,c,c1
dihedral_coeff	 3 ebt    0.00620   -0.00020    0.00360    0.00550    0.00600   -0.00090    1.53000    1.52020  # c,c,c,c_1
dihedral_coeff	 4 ebt    0.24860    0.24220   -0.09250    0.08140    0.05910    0.22190    1.53000    1.10100  # c,c,c,hc
dihedral_coeff	 5 ebt   -0.07320    0.00000    0.00000   -0.07320    0.00000    0.00000    1.53000    1.53000  # c,c,c1,c
dihedral_coeff	 6 ebt    0.00620   -0.00020    0.00360    0.00550    0.00600   -0.00090    1.53000    1.52020  # c,c,c1,c_1
dihedral_coeff	 7 ebt    0.24860    0.24220   -0.09250    0.08140    0.05910    0.22190    1.53000    1.10100  # c,c,c1,hc
dihedral_coeff	 8 ebt    0.26540    0.05030    0.10460   -0.28100    0.08160   -0.15220    1.53000    1.20200  # c,c,c_1,o_1
dihedral_coeff	 9 ebt    0.00000    0.00000    0.00000    0.00000    0.00000    0.00000    1.53000    1.36830  # c,c,c_1,o_2
dihedral_coeff	10 ebt    0.24860    0.24220   -0.09250    0.08140    0.05910    0.22190    1.53000    1.10100  # c,c1,c,hc
dihedral_coeff	11 ebt    0.26540    0.05030    0.10460   -0.28100    0.08160   -0.15220    1.53000    1.20200  # c,c1,c_1,o_1
dihedral_coeff	12 ebt    0.00000    0.00000    0.00000    0.00000    0.00000    0.00000    1.53000    1.36830  # c,c1,c_1,o_2
dihedral_coeff	13 ebt    0.00000    0.00000    0.00000    0.00000    0.00000    0.00000    1.52020    1.43000  # c,c_1,o_2,c
dihedral_coeff	14 ebt    0.00000    0.00000    0.00000    0.00000    0.00000    0.00000    1.43000    1.52020  # c,o_2,c_1,c1
dihedral_coeff	15 ebt    0.00000    0.00000    0.00000    0.00000    0.00000    0.00000    1.43000    1.20200  # c,o_2,c_1,o_1
dihedral_coeff	16 ebt    0.00620   -0.00020    0.00360    0.00550    0.00600   -0.00090    1.53000    1.52020  # c1,c,c,c_1
dihedral_coeff	17 ebt   -0.02040    0.36280   -0.44260   -0.00970   -0.03150   -0.07550    1.52020    1.10100  # c_1,c,c,hc
dihedral_coeff	18 ebt   -0.02040    0.36280   -0.44260   -0.00970   -0.03150   -0.07550    1.52020    1.10100  # c_1,c1,c,hc
dihedral_coeff	19 ebt    0.00000    0.00000    0.00000    0.00000    0.00000    0.00000    1.36830    1.10100  # c_1,o_2,c,hc
dihedral_coeff	20 ebt    0.21300    0.31200    0.07770    0.21300    0.31200    0.07770    1.10100    1.10100  # hc,c,c1,hc
dihedral_coeff	21 ebt    1.21430    0.28310    0.39160   -0.22980    0.03540    0.38530    1.10100    1.20200  # hc,c1,c_1,o_1
dihedral_coeff	22 ebt    0.00000    0.00000    0.00000    0.00000    0.00000    0.00000    1.10100    1.36830  # hc,c1,c_1,o_2

# AngleTorsion Coeffs

dihedral_coeff	 1 at    0.38860   -0.31390    0.13890    0.38860   -0.31390    0.13890  112.67000  112.67000  # c,c,c,c
dihedral_coeff	 2 at    0.38860   -0.31390    0.13890    0.38860   -0.31390    0.13890  112.67000  112.67000  # c,c,c,c1
dihedral_coeff	 3 at   -0.26070    0.32030   -0.22830    0.05150   -0.06740   -0.04740  112.67000  108.52950  # c,c,c,c_1
dihedral_coeff	 4 at   -0.24540    0.00000   -0.11360    0.31130    0.45160   -0.19880  112.67000  110.77000  # c,c,c,hc
dihedral_coeff	 5 at    0.38860   -0.31390    0.13890    0.38860   -0.31390    0.13890  112.67000  112.67000  # c,c,c1,c
dihedral_coeff	 6 at   -0.26070    0.32030   -0.22830    0.05150   -0.06740   -0.04740  112.67000  108.52950  # c,c,c1,c_1
dihedral_coeff	 7 at   -0.24540    0.00000   -0.11360    0.31130    0.45160   -0.19880  112.67000  110.77000  # c,c,c1,hc
dihedral_coeff	 8 at    0.08850   -1.37030   -0.54520    0.67500    0.59650    0.67250  108.52950  123.14510  # c,c,c_1,o_1
dihedral_coeff	 9 at    0.00000    0.00000    0.00000    0.00000    0.00000    0.00000  108.52950  100.31820  # c,c,c_1,o_2
dihedral_coeff	10 at   -0.24540    0.00000   -0.11360    0.31130    0.45160   -0.19880  112.67000  110.77000  # c,c1,c,hc
dihedral_coeff	11 at    0.08850   -1.37030   -0.54520    0.67500    0.59650    0.67250  108.52950  123.14510  # c,c1,c_1,o_1
dihedral_coeff	12 at    0.00000    0.00000    0.00000    0.00000    0.00000    0.00000  108.52950  100.31820  # c,c1,c_1,o_2
dihedral_coeff	13 at    0.00000    0.00000    0.00000    0.00000    0.00000    0.00000  100.31820  113.28800  # c,c_1,o_2,c
dihedral_coeff	14 at    0.00000    0.00000    0.00000    0.00000    0.00000    0.00000  113.28800  100.31820  # c,o_2,c_1,c1
dihedral_coeff	15 at    0.00000    0.00000    0.00000    0.00000    0.00000    0.00000  113.28800  120.79700  # c,o_2,c_1,o_1
dihedral_coeff	16 at   -0.26070    0.32030   -0.22830    0.05150   -0.06740   -0.04740  112.67000  108.52950  # c1,c,c,c_1
dihedral_coeff	17 at   -0.74660   -0.94480   -0.63210    0.01620    1.42110   -1.40920  108.52950  110.77000  # c_1,c,c,hc
dihedral_coeff	18 at   -0.74660   -0.94480   -0.63210    0.01620    1.42110   -1.40920  108.52950  110.77000  # c_1,c1,c,hc
dihedral_coeff	19 at    0.00000    0.00000    0.00000    0.00000    0.00000    0.00000  113.28800  107.68800  # c_1,o_2,c,hc
dihedral_coeff	20 at   -0.80850    0.55690   -0.24660   -0.80850    0.55690   -0.24660  110.77000  110.77000  # hc,c,c1,hc
dihedral_coeff	21 at    9.12990   -0.48470    0.35820   -1.49460    0.73080   -0.20830  107.73360  123.14510  # hc,c1,c_1,o_1
dihedral_coeff	22 at    0.00000    0.00000    0.00000    0.00000    0.00000    0.00000  107.73360  100.31820  # hc,c1,c_1,o_2

# AngleAngleTorsion Coeffs

dihedral_coeff	 1 aat  -22.04500  112.67000  112.67000  # c,c,c,c
dihedral_coeff	 2 aat  -22.04500  112.67000  112.67000  # c,c,c,c1
dihedral_coeff	 3 aat   -0.38010  112.67000  108.52950  # c,c,c,c_1
dihedral_coeff	 4 aat  -16.16400  112.67000  110.77000  # c,c,c,hc
dihedral_coeff	 5 aat  -22.04500  112.67000  112.67000  # c,c,c1,c
dihedral_coeff	 6 aat   -0.38010  112.67000  108.52950  # c,c,c1,c_1
dihedral_coeff	 7 aat  -16.16400  112.67000  110.77000  # c,c,c1,hc
dihedral_coeff	 8 aat   -8.01900  108.52950  123.14510  # c,c,c_1,o_1
dihedral_coeff	 9 aat    0.00000  108.52950  100.31820  # c,c,c_1,o_2
dihedral_coeff	10 aat  -16.16400  112.67000  110.77000  # c,c1,c,hc
dihedral_coeff	11 aat   -8.01900  108.52950  123.14510  # c,c1,c_1,o_1
dihedral_coeff	12 aat    0.00000  108.52950  100.31820  # c,c1,c_1,o_2
dihedral_coeff	13 aat    0.00000  100.31820  113.28800  # c,c_1,o_2,c
dihedral_coeff	14 aat    0.00000  113.28800  100.31820  # c,o_2,c_1,c1
dihedral_coeff	15 aat    0.00000  113.28800  120.79700  # c,o_2,c_1,o_1
dihedral_coeff	16 aat   -0.38010  112.67000  108.52950  # c1,c,c,c_1
dihedral_coeff	17 aat   -5.36240  108.52950  110.77000  # c_1,c,c,hc
dihedral_coeff	18 aat   -5.36240  108.52950  110.77000  # c_1,c1,c,hc
dihedral_coeff	19 aat    0.00000  113.28800  107.68800  # c_1,o_2,c,hc
dihedral_coeff	20 aat  -12.56400  110.77000  110.77000  # hc,c,c1,hc
dihedral_coeff	21 aat  -15.34960  107.73360  123.14510  # hc,c1,c_1,o_1
dihedral_coeff	22 aat    0.00000  107.73360  100.31820  # hc,c1,c_1,o_2

# BondBond13 Coeffs

dihedral_coeff	 1 bb13    0.00000    1.53000    1.53000  # c,c,c,c
dihedral_coeff	 2 bb13    0.00000    1.53000    1.53000  # c,c,c,c1
dihedral_coeff	 3 bb13    0.00000    1.53000    1.52020  # c,c,c,c_1
dihedral_coeff	 4 bb13    0.00000    1.53000    1.10100  # c,c,c,hc
dihedral_coeff	 5 bb13    0.00000    1.53000    1.53000  # c,c,c1,c
dihedral_coeff	 6 bb13    0.00000    1.53000    1.52020  # c,c,c1,c_1
dihedral_coeff	 7 bb13    0.00000    1.53000    1.10100  # c,c,c1,hc
dihedral_coeff	 8 bb13    0.00000    1.53000    1.20200  # c,c,c_1,o_1
dihedral_coeff	 9 bb13    0.00000    1.53000    1.36830  # c,c,c_1,o_2
dihedral_coeff	10 bb13    0.00000    1.53000    1.10100  # c,c1,c,hc
dihedral_coeff	11 bb13    0.00000    1.53000    1.20200  # c,c1,c_1,o_1
dihedral_coeff	12 bb13    0.00000    1.53000    1.36830  # c,c1,c_1,o_2
dihedral_coeff	13 bb13    0.00000    1.52020    1.43000  # c,c_1,o_2,c
dihedral_coeff	14 bb13    0.00000    1.43000    1.52020  # c,o_2,c_1,c1
dihedral_coeff	15 bb13    0.00000    1.43000    1.20200  # c,o_2,c_1,o_1
dihedral_coeff	16 bb13    0.00000    1.53000    1.52020  # c1,c,c,c_1
dihedral_coeff	17 bb13    0.00000    1.52020    1.10100  # c_1,c,c,hc
dihedral_coeff	18 bb13    0.00000    1.52020    1.10100  # c_1,c1,c,hc
dihedral_coeff	19 bb13    0.00000    1.36830    1.10100  # c_1,o_2,c,hc
dihedral_coeff	20 bb13    0.00000    1.10100    1.10100  # hc,c,c1,hc
dihedral_coeff	21 bb13    0.00000    1.10100    1.20200  # hc,c1,c_1,o_1
dihedral_coeff	22 bb13    0.00000    1.10100    1.36830  # hc,c1,c_1,o_2

# Improper Coeffs

improper_coeff	 1    0.00000    0.00000  # c,c,c,c
improper_coeff	 2    0.00000    0.00000  # c,c,c,c_1
improper_coeff	 3    0.00000    0.00000  # c,c,c,hc
improper_coeff	 4    0.00000    0.00000  # c,c,c1,hc
improper_coeff	 5    0.00000    0.00000  # c,c,hc,hc
improper_coeff	 6    0.00000    0.00000  # c,c1,hc,hc
improper_coeff	 7    0.00000    0.00000  # c,hc,hc,hc
improper_coeff	 8    0.00000    0.00000  # c,hc,hc,o_2
improper_coeff	 9    0.00000    0.00000  # c1,c,c,c_1
improper_coeff	10    0.00000    0.00000  # c1,c,c,hc
improper_coeff	11    0.00000    0.00000  # c1,c,c_1,hc
improper_coeff	12    0.00000    0.00000  # c1,c,hc,c_1
improper_coeff	13   46.92640    0.00000  # c_1,c,o_2,o_1
improper_coeff	14   46.92640    0.00000  # c_1,c1,o_2,o_1

# AngleAngle Coeffs

improper_coeff	 1 aa   -0.17290   -0.17290   -0.17290  112.67000  112.67000  112.67000  # c,c,c,c
improper_coeff	 2 aa    0.00000    0.00000    0.00000  112.67000  108.52950  108.52950  # c,c,c,c_1
improper_coeff	 3 aa   -1.31990   -1.31990    0.11840  112.67000  110.77000  110.77000  # c,c,c,hc
improper_coeff	 4 aa   -1.31990   -1.31990    0.11840  112.67000  110.77000  110.77000  # c,c,c1,hc
improper_coeff	 5 aa    0.27380   -0.48250    0.27380  110.77000  110.77000  107.66000  # c,c,hc,hc
improper_coeff	 6 aa    0.27380   -0.48250    0.27380  110.77000  110.77000  107.66000  # c,c1,hc,hc
improper_coeff	 7 aa   -0.31570   -0.31570   -0.31570  107.66000  107.66000  107.66000  # c,hc,hc,hc
improper_coeff	 8 aa    0.00000    0.00000    0.00000  107.66000  107.68800  107.68800  # c,hc,hc,o_2
improper_coeff	 9 aa    0.00000    0.00000    0.00000  112.67000  108.52950  108.52950  # c1,c,c,c_1
improper_coeff	10 aa   -1.31990   -1.31990    0.11840  112.67000  110.77000  110.77000  # c1,c,c,hc
improper_coeff	11 aa    2.04030   -1.82020    1.08270  108.52950  110.77000  107.73360  # c1,c,c_1,hc
improper_coeff	12 aa    1.08270   -1.82020    2.04030  110.77000  108.52950  107.73360  # c1,c,hc,c_1
improper_coeff	13 aa    0.00000    0.00000    0.00000  100.31820  123.14510  120.79700  # c_1,c,o_2,o_1
improper_coeff	14 aa    0.00000    0.00000    0.00000  100.31820  123.14510  120.79700  # c_1,c1,o_2,o_1


# --- Thermo Output ---
thermo_style custom step time temp press enthalpy etotal ke pe ebond eangle edihed eimp evdwl ecoul elong etail vol lx ly lz density pxx pyy pzz
thermo_modify flush yes
thermo 1000

# --- Trajectory ---
dump dump_nvt all custom 1000 nvt_production.dump id type mol x y z ix iy iz vx vy vz

# --- Restart Checkpointing ---
# No restart checkpointing

# --- Initial Velocities (optional) ---
# Velocities read from data file

# --- SHAKE Constraints ---
# Constrains H-X bonds to allow 2fs timestep
# SHAKE disabled

# --- NVT Thermostat (Nose-Hoover) ---
# T_damp = 100.0 fs  (coupling timescale for heat exchange)
# Ramp: 550.0 K -> 550.0 K over 2000000 steps
timestep 1.0
fix nvt_fix all nvt temp 550.0 550.0 100.0

run 2000000
PPPM Kokkos initialization ...
  using 12-bit tables for long-range coulomb
  G vector (1/distance) = 0.33150457
  grid = 45 45 45
  stencil order = 5
  estimated absolute RMS force accuracy = 0.00030702658
  estimated relative force accuracy = 9.2460142e-07
  using double precision cuFFT
  3d grid and FFT values/proc = 140608 91125
Generated 15 of 15 mixed pair_coeff terms from sixthpower/sixthpower mixing rule
Neighbor list info ...
  update: every = 1 steps, delay = 0 steps, check = yes
  max neighbors/atom: 4000, page size: 100000
  master list distance cutoff = 11.5
  ghost atom cutoff = 11.5
  binsize = 11.5, bins = 4 4 4
  1 neighbor lists, perpetual/occasional/extra = 1 0 0
  (1) pair lj/class2/coul/long/kk, perpetual
      attributes: full, newton off, kokkos_device
      pair build: full/bin/kk/device
      stencil: full/bin/3d
      bin: kk/device
Per MPI rank memory allocation (min/avg/max) = 62.04 | 62.04 | 62.04 Mbytes
   Step          Time           Temp          Press         Enthalpy        TotEng         KinEng         PotEng         E_bond        E_angle        E_dihed        E_impro         E_vdwl         E_coul         E_long         E_tail         Volume           Lx             Ly             Lz          Density          Pxx            Pyy            Pzz      
         0   0              553.12421     -739.90561      38071.798      38920.809      12397.013      26523.796      6091.8453      8913.0515     -1586.2113      349.59369      435.19345      42939.103     -30618.78      -498.8502       78679.39       42.85028       42.85028       42.85028       1.0569306      403.69175     -2876.9959      253.58735    
      1000   1000           543.58316      503.02232      39432.87       38855.672      12183.172      26672.5        6176.9462      8971.8787     -1561.7089      340.5017       457.44388      42917.577     -30630.138     -498.8502       78679.39       42.85028       42.85028       42.85028       1.0569306     -976.23759      1030.185       1455.1196    
      2000   2000           550.34086     -175.93679      38924.187      39126.067      12334.631      26791.436      6197.5058      9082.6809     -1546.5527      324.93738      427.21935      42920.862     -30615.217     -498.8502       78679.39       42.85028       42.85028       42.85028       1.0569306      2022.6866     -985.65389     -1564.843     
      3000   3000           540.55314     -625.10879      38105.576      38822.862      12115.261      26707.601      6105.3924      9047.7882     -1579.6531      321.43595      459.44049      42960.389     -30607.192     -498.8502       78679.39       42.85028       42.85028       42.85028       1.0569306     -106.82097     -452.993       -1315.5124    
      4000   4000           538.99157     -54.280019      38738.3        38800.584      12080.262      26720.322      6201.0748      8952.6154     -1571.0441      357.10376      479.12253      42917.402     -30615.953     -498.8502       78679.39       42.85028       42.85028       42.85028       1.0569306     -1404.5738      1016.3329      225.40087    
      5000   5000           549.54063     -2411.2158      36345.513      39112.282      12316.695      26795.587      6201.8463      9153.8209     -1498.0805      332.85723      355.11985      42876.179     -30626.156     -498.8502       78679.39       42.85028       42.85028       42.85028       1.0569306     -339.52747     -3687.5743     -3206.5455    
      6000   6000           553.25062     -122.41151      38748.544      38889.006      12399.846      26489.16       6107.9646      8954.2171     -1499.8229      320.44867      298.72195      42932.626     -30624.996     -498.8502       78679.39       42.85028       42.85028       42.85028       1.0569306      1535.7521     -1961.0058      58.01919     
      7000   7000           553.35384     -485.08933      38419.264      38975.884      12402.16       26573.724      6288.3333      8885.2342     -1540.0405      310.32075      338.38155      42917.352     -30625.857     -498.8502       78679.39       42.85028       42.85028       42.85028       1.0569306      123.63501     -839.34228     -739.56072    
      8000   8000           553.71365     -134.5882       38973.471      39127.906      12410.224      26717.682      6132.1489      8981.2321     -1556.0449      341.20148      513.23962      42920.851     -30614.946     -498.8502       78679.39       42.85028       42.85028       42.85028       1.0569306     -711.09409     -1032.8892      1340.2187    
      9000   9000           540.00793      225.73804      39215.585      38956.56       12103.042      26853.519      6297.1355      9191.7759     -1673.5303      346.35031      361.90539      42931.002     -30601.12      -498.8502       78679.39       42.85028       42.85028       42.85028       1.0569306      865.1084      -1500.4541      1312.5598    
     10000   10000          554.91369      1551.9618      41160.765      39379.954      12437.12       26942.834      6271.1449      9123.2599     -1596.1009      309.8172       507.01461      42934.596     -30606.898     -498.8502       78679.39       42.85028       42.85028       42.85028       1.0569306      122.39325      2984.2866      1549.2054    
     11000   11000          546.31927     -530.11015      38255.072      38863.351      12244.496      26618.856      6236.9237      8957.3619     -1628.4224      329.85645      408.49268      42927.25      -30612.607     -498.8502       78679.39       42.85028       42.85028       42.85028       1.0569306      512.12407     -1796.2762     -306.17833    
     12000   12000          549.55717      692.24746      39898.616      39104.291      12317.066      26787.225      6296.2288      9029.658      -1607.8401      334.4682       409.11852      42936.065     -30610.473     -498.8502       78679.39       42.85028       42.85028       42.85028       1.0569306     -26.322583      1561.1951      541.86985    
     13000   13000          545.72975      1771.5535      40775.541      38742.758      12231.283      26511.475      6054.6836      8929.9074     -1563.5024      318.89336      460.18539      42924.79      -30613.483     -498.8502       78679.39       42.85028       42.85028       42.85028       1.0569306      2297.9109      1882.8255      1133.924     
     14000   14000          548.43934     -1190.2982      37738.842      39104.66       12292.012      26812.647      6266.197       9121.8383     -1606.2048      367.3068       370.76097      42908.476     -30615.727     -498.8502       78679.39       42.85028       42.85028       42.85028       1.0569306     -843.27043     -1107.1945     -1620.4298    
     15000   15000          559.22031     -808.87184      38376.948      39305.095      12533.643      26771.452      6341.1007      8943.8494     -1466.5179      355.78296      308.52925      42898.404     -30609.697     -498.8502       78679.39       42.85028       42.85028       42.85028       1.0569306      268.5946      -2203.4106     -491.79954    
     16000   16000          545.66764     -808.65665      37967.603      38895.503      12229.891      26665.612      6126.5072      9041.6244     -1542.0637      296.36427      447.9029       42924.878     -30629.601     -498.8502       78679.39       42.85028       42.85028       42.85028       1.0569306      198.00969      16.290792     -2640.2704    
     17000   17000          545.10836     -259.9642       38767.531      39065.829      12217.356      26848.473      6198.1118      9130.7688     -1617.6172      301.90139      519.79065      42926.531     -30611.014     -498.8502       78679.39       42.85028       42.85028       42.85028       1.0569306      1103.2509     -1315.6119     -567.53164    
     18000   18000          552.87968      1705.9556      40890.263      38932.75       12391.532      26541.218      6062.6952      8964.7171     -1569.0459      292.21179      463.09808      42939.727     -30612.186     -498.8502       78679.39       42.85028       42.85028       42.85028       1.0569306      1416.7707      2179.1456      1521.9507    
     19000   19000          551.4227       1873.7965      41365.032      39214.929      12358.877      26856.052      6068.173       9202.8681     -1557.8905      357.7978       468.86638      42929.685     -30613.448     -498.8502       78679.39       42.85028       42.85028       42.85028       1.0569306      680.56457      4013.8191      927.00589    
     20000   20000          553.93638      1101.7425      40380.037      39115.834      12415.216      26700.618      6200.8134      8933.9999     -1574.1131      333.32996      497.26413      42924.813     -30615.489     -498.8502       78679.39       42.85028       42.85028       42.85028       1.0569306      416.77097      2127.7375      760.71909    
     21000   21000          554.34992     -752.31097      38418.36       39281.606      12424.484      26857.121      6217.0322      9090.3021     -1514.6186      339.98425      419.13052      42921.489     -30616.199     -498.8502       78679.39       42.85028       42.85028       42.85028       1.0569306     -1565.0565      637.7383      -1329.6147    
     22000   22000          553.11363     -315.75549      38588.885      38951.201      12396.776      26554.426      6230.9764      8831.8412     -1549.4865      329.13807      399.4464       42932.135     -30619.625     -498.8502       78679.39       42.85028       42.85028       42.85028       1.0569306      663.0751      -333.80922     -1276.5323    
     23000   23000          556.17758     -883.46722      38075.984      39089.726      12465.447      26624.279      6155.9163      9081.8607     -1570.0688      305.55017      338.87198      42924.34      -30612.191     -498.8502       78679.39       42.85028       42.85028       42.85028       1.0569306     -2444.5984     -71.409269     -134.39404    
     24000   24000          552.09149     -880.66456      37923.005      38933.531      12373.867      26559.664      6134.5024      9044.8649     -1620.2295      320.99937      373.50745      42920.798     -30614.779     -498.8502       78679.39       42.85028       42.85028       42.85028       1.0569306     -1661.0933     -758.91748     -221.98285    
     25000   25000          549.73449      60.00143       39164.084      39095.235      12321.04       26774.194      6290.9792      9040.2844     -1587.4208      308.98889      447.357        42898.556     -30624.551     -498.8502       78679.39       42.85028       42.85028       42.85028       1.0569306      307.35933      20.779878     -148.13492    
     26000   26000          553.52021      1483.073       40702.333      39000.568      12405.888      26594.68       6055.1615      9034.7913     -1602.1403      330.48261      468.06021      42929.747     -30621.422     -498.8502       78679.39       42.85028       42.85028       42.85028       1.0569306      1092.8362      899.3508       2457.0319    
     27000   27000          551.50765     -972.70346      38031.606      39147.743      12360.782      26786.961      6258.94        9062.7237     -1506.3302      313.87201      364.88401      42912.267     -30619.396     -498.8502       78679.39       42.85028       42.85028       42.85028       1.0569306     -138.52809     -749.64168     -2029.9406    
     28000   28000          547.4517      -1351.4477      37469.318      39020.048      12269.877      26750.171      6387.0152      9015.2965     -1550.5621      318.18566      301.31486      42903.278     -30624.358     -498.8502       78679.39       42.85028       42.85028       42.85028       1.0569306     -2593.2267     -442.76506     -1018.3514    
     29000   29000          548.25929     -1647.9889      37046.955      38937.953      12287.977      26649.977      6165.5016      9024.5976     -1515.0429      339.58808      342.3655       42916.702     -30623.735     -498.8502       78679.39       42.85028       42.85028       42.85028       1.0569306     -1513.2162     -1982.7059     -1448.0445    
     30000   30000          555.48837     -1560.1014      37360.317      39150.468      12450          26700.468      6142.992       9073.8135     -1518.3503      351.85484      345.52894      42918.179     -30613.55      -498.8502       78679.39       42.85028       42.85028       42.85028       1.0569306      254.47656     -3974.3742     -960.40654    
     31000   31000          549.4313       267.32053      39207.485      38900.746      12314.245      26586.502      6106.3482      8954.8822     -1502.6659      317.50824      426.1222       42902.467     -30618.16      -498.8502       78679.39       42.85028       42.85028       42.85028       1.0569306     -736.49902     -406.83821      1945.2988    
     32000   32000          541.39712      1326.193       40242.874      38721.123      12134.177      26586.946      6029.7476      8923.7332     -1533.408       325.51989      534.12343      42930.729     -30623.499     -498.8502       78679.39       42.85028       42.85028       42.85028       1.0569306      1651.875      -581.52257      2908.2264    
     33000   33000          545.66496      502.80624      39669.879      39092.93       12229.831      26863.099      6019.5098      9176.4425     -1511.7214      331.72118      553.68563      42913.028     -30619.567     -498.8502       78679.39       42.85028       42.85028       42.85028       1.0569306      919.09798      18.501581      570.81917    
     34000   34000          547.40808      328.8026       39241.415      38864.128      12268.899      26595.229      6127.6644      9038.9932     -1563.74        331.39431      350.96714      42934.218     -30624.268     -498.8502       78679.39       42.85028       42.85028       42.85028       1.0569306      1391.8893      867.54556     -1273.027     
     35000   35000          542.14686     -2096.7531      36242.3        38648.236      12150.981      26497.256      6182.7786      8891.0866     -1516.774       344.8041       305.51997      42909.288     -30619.447     -498.8502       78679.39       42.85028       42.85028       42.85028       1.0569306     -1694.4582     -2447.9244     -2147.8768    
     36000   36000          557.24676      109.07597      39129.131      39003.971      12489.41       26514.561      6042.8186      8861.1579     -1512.2675      314.29886      493.43677      42928.169     -30613.053     -498.8502       78679.39       42.85028       42.85028       42.85028       1.0569306      1539.5618     -757.70222     -454.63167    
     37000   37000          545.28068      2124.8876      41507.954      39069.734      12221.218      26848.516      6195.7846      9040.192      -1518.6101      330.53258      525.20392      42902.997     -30627.584     -498.8502       78679.39       42.85028       42.85028       42.85028       1.0569306      1405.4514      2077.7691      2891.4425    
     38000   38000          542.11552     -57.372647      38760.224      38826.057      12150.278      26675.779      6245.929       8924.7006     -1553.1933      321.65417      444.08768      42918.271     -30625.671     -498.8502       78679.39       42.85028       42.85028       42.85028       1.0569306     -33.817873      729.42866     -867.72872    
     39000   39000          547.04783      411.48411      39574.151      39101.99       12260.825      26841.165      6047.5107      9161.2232     -1478.6371      329.89912      478.85956      42927.766     -30625.457     -498.8502       78679.39       42.85028       42.85028       42.85028       1.0569306      942.2779      -112.81523      404.98967    
     40000   40000          545.74917     -219.62935      38772.678      39024.693      12231.718      26792.975      6248.5105      9067.4276     -1537.9176      335.79804      361.73047      42937.165     -30619.739     -498.8502       78679.39       42.85028       42.85028       42.85028       1.0569306     -521.81456     -844.61732      707.54384    
     41000   41000          553.50552      377.59122      39753.645      39320.375      12405.559      26914.816      6242.9819      9015.0594     -1520.7383      313.69786      520.03663      42959.947     -30616.169     -498.8502       78679.39       42.85028       42.85028       42.85028       1.0569306      580.78159     -693.59753      1245.5896    
     42000   42000          551.3842       115.67867      39083.779      38951.042      12358.015      26593.028      6079.2736      9006.6817     -1596.1738      342.69029      417.89048      42946.505     -30603.839     -498.8502       78679.39       42.85028       42.85028       42.85028       1.0569306      314.10235      193.57217     -160.63852    
     43000   43000          549.65068      536.87568      39840.802      39224.76       12319.162      26905.598      6247.9438      9019.3021     -1560.4481      308.89813      582.39757      42921.695     -30614.19      -498.8502       78679.39       42.85028       42.85028       42.85028       1.0569306     -680.19929      822.6689       1468.1574    
     44000   44000          544.37865     -69.094587      38719.393      38798.676      12201.001      26597.675      6102.6972      8962.894      -1541.7903      345.18582      435.95561      42903.192     -30610.459     -498.8502       78679.39       42.85028       42.85028       42.85028       1.0569306     -886.55037      159.72586      519.54074    
     45000   45000          549.01186     -352.00711      38688.467      39092.38       12304.844      26787.536      6346.8813      9022.6228     -1553.0774      318.46968      363.45635      42895.69      -30606.507     -498.8502       78679.39       42.85028       42.85028       42.85028       1.0569306     -615.32979     -663.23503      222.5435     
     46000   46000          547.08436     -263.5729       38623.657      38926.096      12261.644      26664.452      6145.633       8947.4558     -1508.2646      368.84543      355.16571      42965.157     -30609.54      -498.8502       78679.39       42.85028       42.85028       42.85028       1.0569306      922.30282     -603.56626     -1109.4553    
     47000   47000          553.22395     -1332.1962      37553.89       39082.53       12399.248      26683.281      6164.242       9137.8371     -1587.6399      298.48231      396.03323      42894.295     -30619.968     -498.8502       78679.39       42.85028       42.85028       42.85028       1.0569306     -2611.8607     -1361.6972     -23.030604    
     48000   48000          550.00336      78.255414      39035.806      38946.011      12327.066      26618.945      5994.7286      9073.9344     -1573.6424      319.40172      490.00236      42933.84      -30619.32      -498.8502       78679.39       42.85028       42.85028       42.85028       1.0569306     -282.52705      601.35061     -84.057318    
     49000   49000          557.90387     -308.63543      39079.137      39433.283      12504.138      26929.145      6286.8152      9033.5103     -1472.7308      326.43275      434.9949       42935.165     -30615.043     -498.8502       78679.39       42.85028       42.85028       42.85028       1.0569306     -794.34724     -1590.8993      1459.3403    
     50000   50000          553.24214      1556.7774      40983.005      39196.668      12399.656      26797.012      6053.0973      9025.2848     -1546.7913      318.29428      600.15147      42958.226     -30611.25      -498.8502       78679.39       42.85028       42.85028       42.85028       1.0569306      160.22668      2135.9758      2374.1298    
     51000   51000          546.7558      -1692.1956      36908.333      38850.057      12254.28       26595.777      6334.6117      8950.7182     -1592.9983      297.0717       334.87795      42886.311     -30614.815     -498.8502       78679.39       42.85028       42.85028       42.85028       1.0569306     -2599.5941     -427.04139     -2049.9513    
     52000   52000          560.86995      889.90748      40344.203      39323.071      12570.616      26752.455      6036.5784      9106.7981     -1537.3776      317.56199      523.57762      42926.222     -30620.905     -498.8502       78679.39       42.85028       42.85028       42.85028       1.0569306     -876.16653      2041.7204      1504.1685    
     53000   53000          550.36898     -221.35539      38745.963      38999.959      12335.261      26664.698      6115.4626      8864.9972     -1465.4676      335.82826      471.56829      42954.899     -30612.59      -498.8502       78679.39       42.85028       42.85028       42.85028       1.0569306     -438.46563     -617.70983      392.10927    
     54000   54000          544.77993      1195.775       40404.861      39032.759      12209.995      26822.764      6095.0025      9090.963      -1501.2923      325.20436      496.71938      42931.964     -30615.797     -498.8502       78679.39       42.85028       42.85028       42.85028       1.0569306     -228.3005       1712.0073      2103.6183    
     55000   55000          540.48401     -911.77083      37593.823      38640.042      12113.712      26526.33       6155.1138      8927.4666     -1511.9662      334.74892      330.19818      42901.761     -30610.992     -498.8502       78679.39       42.85028       42.85028       42.85028       1.0569306     -1591.9565     -2208.227       1064.8709    
     56000   56000          551.27399      436.19817      39572.398      39071.878      12355.545      26716.334      5979.9244      9059.9342     -1488.2955      340.84762      514.79137      42927.858     -30618.727     -498.8502       78679.39       42.85028       42.85028       42.85028       1.0569306      252.22856      1147.9515     -91.585595    
     57000   57000          545.8524       781.40528      39883.354      38986.724      12234.032      26752.692      6174.0433      8964.407      -1525.5056      320.11031      524.85277      42916.312     -30621.528     -498.8502       78679.39       42.85028       42.85028       42.85028       1.0569306      199.30186      2332.8166     -187.90257    
     58000   58000          551.98593     -1310.5021      37480.573      38984.319      12371.501      26612.818      6087.1505      8996.9517     -1548.0804      341.9103       427.83912      42919.669     -30612.622     -498.8502       78679.39       42.85028       42.85028       42.85028       1.0569306     -539.00441     -398.53209     -2993.9698    
     59000   59000          555.26844      2853.2989      42287.381      39013.34       12445.071      26568.269      6016.343       8940.7653     -1565.5241      333.8412       503.30634      42953.526     -30613.989     -498.8502       78679.39       42.85028       42.85028       42.85028       1.0569306      474.87399      4586.944       3498.0787    
     60000   60000          556.13483      1057.3853      40383.809      39170.504      12464.489      26706.015      6199.07        9006.5233     -1519.7729      291.9265       409.89368      42942.776     -30624.402     -498.8502       78679.39       42.85028       42.85028       42.85028       1.0569306     -447.76035      1382.6337      2237.2826    
     61000   61000          547.35034     -509.93162      38453.229      39038.354      12267.605      26770.749      6227.3359      8879.1884     -1455.3237      293.73818      552.3457       42898.898     -30625.433     -498.8502       78679.39       42.85028       42.85028       42.85028       1.0569306      74.279805      845.9315      -2450.0062    
     62000   62000          547.31959     -1104.5237      37832.951      39100.346      12266.916      26833.43       6321.9857      8940.8377     -1509.8566      340.90703      422.31722      42937.786     -30620.547     -498.8502       78679.39       42.85028       42.85028       42.85028       1.0569306     -2655.0778     -3018.2395      2359.7461    
     63000   63000          559.67531      1133.7273      40598.474      39297.569      12543.841      26753.728      6165.1247      9032.9354     -1554.802       307.37432      530.48139      42888.234     -30615.619     -498.8502       78679.39       42.85028       42.85028       42.85028       1.0569306     -1278.1151      1805.9832      2873.3137    
     64000   64000          554.74903     -333.88557      38548.132      38931.252      12433.429      26497.822      6156.6288      8905.4582     -1577.5514      316.12682      426.15484      42890.679     -30619.674     -498.8502       78679.39       42.85028       42.85028       42.85028       1.0569306     -2462.4325      2412.6597     -951.88383    
     65000   65000          553.76456     -280.20685      38891.321      39212.847      12411.365      26801.482      6115.6407      9037.3955     -1493.1421      348.32639      491.42134      42916.764     -30614.924     -498.8502       78679.39       42.85028       42.85028       42.85028       1.0569306     -492.06256      502.34436     -850.90234    
     66000   66000          549.78902      1344.5604      40412.88       38870.054      12322.262      26547.791      6143.9413      8895.1547     -1544.2751      308.57261      433.15303      42936.722     -30625.477     -498.8502       78679.39       42.85028       42.85028       42.85028       1.0569306     -196.13312      2620.2836      1609.5306    
     67000   67000          550.80677     -1576.1225      37366.315      39174.85       12345.073      26829.777      6261.6414      9101.0339     -1547.2886      321.54658      410.63673      42901.74      -30619.533     -498.8502       78679.39       42.85028       42.85028       42.85028       1.0569306     -1235.7648     -1486.9676     -2005.6352    
     68000   68000          552.10932     -1849.4835      36804.858      38927.063      12374.267      26552.796      6094.6503      8811.0264     -1495.8884      311.18129      511.59315      42937.301     -30617.068     -498.8502       78679.39       42.85028       42.85028       42.85028       1.0569306     -2649.2549      504.79884     -3403.9944    
     69000   69000          545.95624      557.71039      39499.208      38859.259      12236.359      26622.899      6122.8991      8923.7433     -1474.1483      333.99509      438.1804       42903.538     -30625.309     -498.8502       78679.39       42.85028       42.85028       42.85028       1.0569306      3024.0663      567.75972     -1918.6949    
     70000   70000          551.97788     -1191.8366      37697.166      39064.749      12371.32       26693.429      6088.8774      9090.2916     -1447.5151      307.7185       369.77011      42903.51      -30619.224     -498.8502       78679.39       42.85028       42.85028       42.85028       1.0569306     -2118.4346     -968.31787     -488.75741    
     71000   71000          554.13692      771.05979      40026.433      39141.674      12419.71       26721.963      6228.044       8876.8818     -1527.71        316.09575      464.77214      42974.456     -30610.576     -498.8502       78679.39       42.85028       42.85028       42.85028       1.0569306      1979.9553     -896.59613      1229.8202    
     72000   72000          543.96411      8.7322181      38905.231      38895.211      12191.71       26703.501      6226.0791      8904.0977     -1534.0093      342.97488      453.04567      42931.237     -30619.923     -498.8502       78679.39       42.85028       42.85028       42.85028       1.0569306      1727.2421      479.68703     -2180.7325    
     73000   73000          553.08292      71.963075      39252.644      39170.07       12396.088      26773.982      6155.5323      9085.6737     -1490.6169      318.81484      409.75855      42915.759     -30620.939     -498.8502       78679.39       42.85028       42.85028       42.85028       1.0569306     -1999.5602      439.88573      1775.5637    
     74000   74000          550.42475     -120.81714      38600.294      38738.926      12336.511      26402.416      6056.2756      8783.9014     -1474.9969      294.29253      433.09407      42934.581     -30624.732     -498.8502       78679.39       42.85028       42.85028       42.85028       1.0569306      754.26815     -546.34703     -570.37254    
     75000   75000          551.7418      -663.82726      38246.864      39008.578      12366.029      26642.549      6111.3182      9097.7397     -1546.7543      311.13568      372.05748      42906.484     -30609.432     -498.8502       78679.39       42.85028       42.85028       42.85028       1.0569306      1081.1985     -1645.4282     -1427.2521    
     76000   76000          557.05272     -610.44443      38589.313      39289.773      12485.061      26804.711      6152.9173      9086.9632     -1549.9496      320.93006      455.07258      42948.643     -30609.866     -498.8502       78679.39       42.85028       42.85028       42.85028       1.0569306     -1268.2453     -616.06861      52.980575    
     77000   77000          544.61776      999.39173      39895.153      38748.393      12206.36       26542.033      5896.0372      9008.096      -1621.5354      330.41626      599.18309      42941.944     -30612.109     -498.8502       78679.39       42.85028       42.85028       42.85028       1.0569306      503.79433      1204.4968      1289.8841    
     78000   78000          549.64768     -2165.6536      36381.08       38866.077      12319.094      26546.983      6290.4917      8924.473      -1527.054       307.61418      264.75887      42903.888     -30617.189     -498.8502       78679.39       42.85028       42.85028       42.85028       1.0569306     -2003.1765     -236.83626     -4256.9481    
     79000   79000          555.3807       649.50077      39912.731      39167.456      12447.587      26719.869      6211.3357      8893.2754     -1481.0901      333.92663      460.06646      42917.234     -30614.879     -498.8502       78679.39       42.85028       42.85028       42.85028       1.0569306      1593.7758      133.09149      221.63503    
     80000   80000          556.87086      2626.9457      42100.978      39086.668      12480.985      26605.682      6001.5948      9038.3865     -1591.2782      313.68758      525.46515      42932.63      -30614.804     -498.8502       78679.39       42.85028       42.85028       42.85028       1.0569306      4765.5143      759.2213       2356.1016    
     81000   81000          547.19722      221.48852      39099.31       38845.162      12264.173      26580.989      5861.5154      9049.8416     -1467.2172      308.46649      488.77328      42951.629     -30612.021     -498.8502       78679.39       42.85028       42.85028       42.85028       1.0569306      1523.9071     -2021.2882      1161.8466    
     82000   82000          551.06985      616.81122      39588.572      38880.807      12350.969      26529.837      6148.9162      8948.1606     -1545.8011      300.0192       361.15749      42934.979     -30617.594     -498.8502       78679.39       42.85028       42.85028       42.85028       1.0569306     -448.9877       840.97855      1458.4428    
     83000   83000          559.28136      1072.9643      40116.204      38885.022      12535.011      26350.011      5987.4618      8881.8783     -1604.2465      310.8404       451.87236      42941.049     -30618.845     -498.8502       78679.39       42.85028       42.85028       42.85028       1.0569306     -511.57045      1226.4879      2503.9754    
     84000   84000          555.32126      1376.6201      40755.517      39175.903      12446.255      26729.648      6085.0312      9041.9472     -1562.5249      309.73936      561.19668      42912.861     -30618.603     -498.8502       78679.39       42.85028       42.85028       42.85028       1.0569306      2475.7465      670.36639      983.74743    
     85000   85000          549.80124     -658.72899      38412.982      39168.846      12322.536      26846.31       6231.8174      9014.454      -1483.3518      299.71203      495.81616      42910.526     -30622.664     -498.8502       78679.39       42.85028       42.85028       42.85028       1.0569306     -200.50953     -1025.6565     -750.02096    
     86000   86000          552.41575     -885.96258      37888.327      38904.932      12381.134      26523.797      6158.7001      8931.2948     -1543.2865      324.65612      340.71813      42921.158     -30609.443     -498.8502       78679.39       42.85028       42.85028       42.85028       1.0569306     -1964.9078     -1652.5903      959.61037    
     87000   87000          546.18753      696.27477      39680.039      38881.093      12241.543      26639.55       6077.9625      9002.3992     -1500.8735      319.41004      458.64678      42908.328     -30626.323     -498.8502       78679.39       42.85028       42.85028       42.85028       1.0569306      3794.8069      927.54898     -2633.5316    
     88000   88000          550.58204      380.04367      39411.594      38975.51       12340.036      26635.474      5997.8508      9103.9368     -1573.7466      359.73716      433.13865      42937.532     -30622.976     -498.8502       78679.39       42.85028       42.85028       42.85028       1.0569306      2637.5053      189.89943     -1687.2738    
     89000   89000          547.65598     -827.86119      37763.889      38713.825      12274.455      26439.37       6110.4725      8958.3463     -1619.3121      323.21067      356.86588      42934.417     -30624.63      -498.8502       78679.39       42.85028       42.85028       42.85028       1.0569306     -2229.6308      105.08009     -359.03282    
     90000   90000          547.53601      873.16326      39969.509      38967.591      12271.766      26695.825      6124.4201      9001.404      -1516.6985      309.96568      486.20728      42916.487     -30625.961     -498.8502       78679.39       42.85028       42.85028       42.85028       1.0569306      688.15907      911.58597      1019.7447    
     91000   91000          555.64899     -12.426743      39168.081      39182.34       12453.6        26728.74       6102.3215      9102.0923     -1516.9512      327.95786      418.21959      42912.408     -30617.308     -498.8502       78679.39       42.85028       42.85028       42.85028       1.0569306     -288.01962      1012.1014     -761.36203    
     92000   92000          551.60243     -178.17154      38594.574      38799.019      12362.906      26436.113      6020.7368      8962.31       -1607.9607      332.9499       387.69021      42947.026     -30606.64      -498.8502       78679.39       42.85028       42.85028       42.85028       1.0569306      221.8353      -248.89025     -507.45968    
     93000   93000          546.47031     -183.92227      38766.623      38977.666      12247.881      26729.785      6232.1663      8954.0168     -1485.2012      323.35268      405.36695      42914.432     -30614.348     -498.8502       78679.39       42.85028       42.85028       42.85028       1.0569306     -499.20723     -373.50888      320.94931    
     94000   94000          550.92456      863.29406      39673.015      38682.421      12347.713      26334.708      5921.2666      8959.3854     -1559.6237      312.36262      383.42737      42936.608     -30618.718     -498.8502       78679.39       42.85028       42.85028       42.85028       1.0569306     -139.66939      1273.3767      1456.1748    
     95000   95000          556.07978      212.92585      39366.068      39121.744      12463.255      26658.489      6285.3672      9010.7664     -1609.3901      300.21122      362.77004      42928.903     -30620.139     -498.8502       78679.39       42.85028       42.85028       42.85028       1.0569306      1707.3356     -977.95488     -90.603157    
     96000   96000          546.01193      484.42584      39478.486      38922.628      12237.607      26685.021      6002.1297      9180.8373     -1597.369       320.63852      491.18283      42907.005     -30619.404     -498.8502       78679.39       42.85028       42.85028       42.85028       1.0569306      778.96348      564.57514      109.7389     
     97000   97000          551.84987      1460.6926      40895.804      39219.721      12368.451      26851.269      6121.3681      8968.3648     -1470.5442      313.88666      605.01796      42930.449     -30617.273     -498.8502       78679.39       42.85028       42.85028       42.85028       1.0569306      2019.2546      645.70231      1717.121     
     98000   98000          548.68829     -165.61714      38701.066      38891.105      12297.592      26593.513      6101.4285      9042.5219     -1596.4146      358.98505      381.2448       42917.808     -30612.061     -498.8502       78679.39       42.85028       42.85028       42.85028       1.0569306     -918.81665      377.14006      44.825181    
     99000   99000          555.23617      1081.0225      40412.715      39172.287      12444.348      26727.94       6129.2772      9065.0796     -1561.7082      314.84403      479.39204      42908.759     -30607.704     -498.8502       78679.39       42.85028       42.85028       42.85028       1.0569306      744.37359      1349.7699      1148.9239    
    100000   100000         551.31003      2427.8626      41587.766      38801.895      12356.352      26445.543      5921.1851      8976.9486     -1572.845       310.90415      476.08827      42948.004     -30614.743     -498.8502       78679.39       42.85028       42.85028       42.85028       1.0569306      5634.4243      313.53602      1335.6273    
    101000   101000         549.50688     -2185.3873      36503.126      39010.767      12315.939      26694.828      6226.3338      9033.2522     -1568.4845      326.60321      398.32139      42894.094     -30615.292     -498.8502       78679.39       42.85028       42.85028       42.85028       1.0569306     -5307.2034      293.04313     -1542.0018    
    102000   102000         557.50239     -268.78236      39164.888      39473.305      12495.14       26978.165      6217.3978      9104.3435     -1503.8899      326.0317       520.7696       42930.888     -30617.376     -498.8502       78679.39       42.85028       42.85028       42.85028       1.0569306     -247.55557     -2008.8136      1450.0221    
    103000   103000         551.18252     -718.84986      38126.99       38951.84       12353.494      26598.346      5975.586       8914.1093     -1507.8424      342.59328      569.59707      42920.23      -30615.928     -498.8502       78679.39       42.85028       42.85028       42.85028       1.0569306     -1020.2854     -1370.1934      233.92928    
    104000   104000         559.06215      1593.9958      41140.494      39311.451      12530.098      26781.352      5948.3248      9161.3213     -1534.2047      316.26074      584.24676      42926.528     -30621.125     -498.8502       78679.39       42.85028       42.85028       42.85028       1.0569306      1787.2253      2897.0768      97.685368    
    105000   105000         550.48612      445.84032      39395.755      38884.172      12337.886      26546.285      6137.2301      8927.7615     -1563.5153      326.4238       400.23046      42926.524     -30608.369     -498.8502       78679.39       42.85028       42.85028       42.85028       1.0569306      793.11408     -133.48332      677.89018    
    106000   106000         555.88696      699.2454       40172.475      39370.121      12458.934      26911.187      6289.9939      8985.1865     -1528.7906      312.40614      552.40528      42923.689     -30623.703     -498.8502       78679.39       42.85028       42.85028       42.85028       1.0569306      1154.3766      941.58016      1.7794043    
    107000   107000         540.23531      1841.411       41063.405      38950.463      12108.138      26842.325      6188.8684      8976.6435     -1523.8585      331.40081      528.57963      42943.425     -30602.734     -498.8502       78679.39       42.85028       42.85028       42.85028       1.0569306      2952.8541      33.885232      2537.4937    
    108000   108000         546.15089     -320.96449      38407.226      38775.52       12240.722      26534.798      6085.7078      8814.565      -1465.1911      318.77319      471.57145      42923.667     -30614.296     -498.8502       78679.39       42.85028       42.85028       42.85028       1.0569306     -921.1321       704.07641     -745.8378     
    109000   109000         558.86655     -44.016887      39066.578      39117.085      12525.714      26591.371      6139.6526      8951.1304     -1531.0848      342.12899      375.8498       42927.289     -30613.595     -498.8502       78679.39       42.85028       42.85028       42.85028       1.0569306     -403.46092      462.84205     -191.4318     
    110000   110000         547.64269      835.4764       39748.067      38789.393      12274.157      26515.235      6045.1726      8957.0164     -1611.511       314.29704      506.31733      42924.833     -30620.89      -498.8502       78679.39       42.85028       42.85028       42.85028       1.0569306      1258.9524     -654.49737      1901.9742    
    111000   111000         544.66022      1013.0093      39881.527      38719.141      12207.312      26511.829      6081.9158      8983.508      -1593.6519      344.46995      390.87172      42919.36      -30614.644     -498.8502       78679.39       42.85028       42.85028       42.85028       1.0569306      705.33424      1860.1148      473.57876    
    112000   112000         548.89934     -691.07148      38174.229      38967.204      12302.322      26664.882      6182.7227      8943.3595     -1533.793       317.28877      430.49472      42933.744     -30608.934     -498.8502       78679.39       42.85028       42.85028       42.85028       1.0569306      399.36683     -1010.5426     -1462.0386    
    113000   113000         545.40278     -448.28308      38265.02       38779.406      12223.955      26555.451      6072.4775      8914.6218     -1512.4734      315.39396      458.19562      42902.591     -30595.356     -498.8502       78679.39       42.85028       42.85028       42.85028       1.0569306      1957.9195     -2717.7609     -585.00784    
    114000   114000         547.92906     -305.62106      38686.8        39037.487      12280.576      26756.912      6077.1262      9023.9588     -1484.2269      350.1935       472.23681      42939.207     -30621.584     -498.8502       78679.39       42.85028       42.85028       42.85028       1.0569306     -288.7263      -1056.9742      428.83736    
    115000   115000         543.34981      696.65288      39496.203      38696.823      12177.942      26518.881      6081.3396      8931.254      -1507.8593      316.49431      401.27166      42914.94      -30618.559     -498.8502       78679.39       42.85028       42.85028       42.85028       1.0569306     -394.82005      2120.83        363.9487     
    116000   116000         548.12678     -228.09253      38740.903      39002.629      12285.007      26717.622      6298.8309      8949.2533     -1576.7982      349.5838       375.44616      42942.811     -30621.505     -498.8502       78679.39       42.85028       42.85028       42.85028       1.0569306      106.58614      134.88058     -925.74432    
    117000   117000         552.61388      429.69283      39431.05       38937.996      12385.575      26552.42       6060.753       8982.0317     -1572.376       295.42512      437.81322      42956.502     -30607.728     -498.8502       78679.39       42.85028       42.85028       42.85028       1.0569306     -47.846227     -477.76935      1814.6941    
    118000   118000         544.09672     -264.86941      38351.152      38655.079      12194.682      26460.397      6017.7153      8838.8926     -1563.5852      297.26616      542.08825      42938.582     -30610.562     -498.8502       78679.39       42.85028       42.85028       42.85028       1.0569306     -1012.2529     -1060.1147      1277.7593    
    119000   119000         545.65859      220.10242      39202.151      38949.593      12229.688      26719.904      6120.6541      9074.6581     -1590.5176      320.21607      475.0753       42937.255     -30617.437     -498.8502       78679.39       42.85028       42.85028       42.85028       1.0569306      1907.6896     -507.05552     -740.32687    
    120000   120000         555.78155      972.76134      40165.138      39048.935      12456.571      26592.364      6211.1661      8985.9191     -1584.9055      340.07334      344.03816      42912.643     -30616.571     -498.8502       78679.39       42.85028       42.85028       42.85028       1.0569306     -42.519502      1586.1917      1374.6118    
    121000   121000         549.20127     -847.09011      37823.882      38795.882      12309.089      26486.793      6218.952       8916.8071     -1585.1719      314.41217      334.05917      42901.861     -30614.127     -498.8502       78679.39       42.85028       42.85028       42.85028       1.0569306     -1527.0282      1036.8307     -2051.0728    
    122000   122000         548.96481      947.4088       40150.359      39063.247      12303.789      26759.458      6142.4405      9092.9747     -1489.0976      304.84098      370.3082       42959.202     -30621.211     -498.8502       78679.39       42.85028       42.85028       42.85028       1.0569306      2527.8562      468.85299     -154.48277    
    123000   123000         550.49865     -492.83553      38639.735      39205.243      12338.167      26867.076      6199.9713      8995.6917     -1445.7379      334.8919       431.37849      42954.021     -30603.14      -498.8502       78679.39       42.85028       42.85028       42.85028       1.0569306      602.711       -441.26059     -1639.957     
    124000   124000         556.29678     -469.26334      38404.645      38943.105      12468.119      26474.986      5974.9421      8991.2121     -1539.9664      326.13057      371.63138      42954.257     -30603.221     -498.8502       78679.39       42.85028       42.85028       42.85028       1.0569306      730.16783      437.04739     -2575.0052    
    125000   125000         548.91374      1963.4087      41314.6        39061.67       12302.645      26759.025      6106.299       8835.8754     -1492.1301      365.85192      597.09883      42956.824     -30610.794     -498.8502       78679.39       42.85028       42.85028       42.85028       1.0569306      913.59441      2044.7404      2931.8911    
    126000   126000         548.08828      1114.8555      40084.967      38805.717      12284.144      26521.573      6139.7139      8775.4783     -1560.0808      330.95529      518.6885       42930.735     -30613.917     -498.8502       78679.39       42.85028       42.85028       42.85028       1.0569306      755.76283      1697.0447      891.75908    
    127000   127000         559.9519       386.11214      39682.796      39239.748      12550.04       26689.708      6085.183       9080.2818     -1534.4499      345.88403      416.01916      42912.718     -30615.928     -498.8502       78679.39       42.85028       42.85028       42.85028       1.0569306     -1884.748       755.71695      2287.3675    
    128000   128000         553.19701      0.42585881     39029.197      39028.708      12398.645      26630.063      6075.4843      8951.1418     -1489.5608      327.11831      451.85365      42928.237     -30614.211     -498.8502       78679.39       42.85028       42.85028       42.85028       1.0569306     -730.30972      703.70639      27.880906    
    129000   129000         555.91448      237.71749      39443.453      39170.682      12459.551      26711.132      6269.8408      8876.645      -1529.0655      341.17729      459.4981       42917.787     -30624.751     -498.8502       78679.39       42.85028       42.85028       42.85028       1.0569306      2075.1947     -1504.2712      142.22901    
    130000   130000         551.5527      -1729.4848      36854.06       38838.572      12361.791      26476.781      6142.7694      8859.3197     -1508.3225      321.87946      396.85786      42893.203     -30628.926     -498.8502       78679.39       42.85028       42.85028       42.85028       1.0569306     -2284.2178     -2131.7775     -772.45907    
    131000   131000         549.42668      1393.7338      40491.348      38892.096      12314.141      26577.955      6030.5346      8963.4431     -1545.9683      323.79646      492.26856      42931.11      -30617.229     -498.8502       78679.39       42.85028       42.85028       42.85028       1.0569306      3066.5952      946.25771      168.34847    
    132000   132000         560.68949      326.5405       39603.905      39229.213      12566.571      26662.642      6235.0359      8855.8856     -1559.3645      346.6704       494.78928      42908.978     -30619.353     -498.8502       78679.39       42.85028       42.85028       42.85028       1.0569306     -705.49751      1645.8236      39.295354    
    133000   133000         551.02241      142.27039      39080.176      38916.927      12349.906      26567.021      6041.1233      8883.618      -1532.3414      311.4526       538.11601      42942.98      -30617.927     -498.8502       78679.39       42.85028       42.85028       42.85028       1.0569306      742.70222      613.68337     -929.57441    
    134000   134000         550.73067      281.23112      39436.336      39113.635      12343.367      26770.268      6167.2823      9001.1348     -1475.6547      337.20105      428.09532      42938.165     -30625.956     -498.8502       78679.39       42.85028       42.85028       42.85028       1.0569306      1226.1229     -1084.0358      701.6063     
    135000   135000         539.16153     -357.91736      38443.539      38854.234      12084.071      26770.163      6202.3085      8933.9906     -1496.0338      321.47694      484.78197      42937.954     -30614.315     -498.8502       78679.39       42.85028       42.85028       42.85028       1.0569306      366.10053     -567.94482     -871.90778    
    136000   136000         554.10048     -131.77851      39045.846      39197.057      12418.894      26778.163      6195.7555      9087.6236     -1594.2059      315.69711      491.03698      42900.884     -30618.629     -498.8502       78679.39       42.85028       42.85028       42.85028       1.0569306      309.72442      495.20051     -1200.2605    
    137000   137000         554.69664      1334.0434      40458.622      38927.863      12432.255      26495.608      6160.6572      8886.6533     -1585.1644      344.69427      396.66144      42909.871     -30617.765     -498.8502       78679.39       42.85028       42.85028       42.85028       1.0569306      759.28751      2206.77        1036.0726    
    138000   138000         548.78072     -574.42587      38170.671      38829.8        12299.664      26530.137      6235.117       8885.9767     -1551.2393      316.00424      352.89618      42906.681     -30615.299     -498.8502       78679.39       42.85028       42.85028       42.85028       1.0569306     -898.81894     -155.51479     -668.94388    
    139000   139000         561.46695      2126.6492      41415.436      38975.195      12583.996      26391.198      5867.1962      8970.6111     -1580.0461      305.95641      529.57398      42920.768     -30622.862     -498.8502       78679.39       42.85028       42.85028       42.85028       1.0569306      3735.3774      1240.848       1403.7223    
    140000   140000         545.04591      323.00613      39127.158      38756.522      12215.956      26540.565      6040.8335      9055.4662     -1607.3661      307.07038      411.40335      42947.113     -30613.955     -498.8502       78679.39       42.85028       42.85028       42.85028       1.0569306     -130.71493      823.75835      275.97496    
    141000   141000         545.47386     -883.8123       38069.849      39083.987      12225.548      26858.439      6296.553       9103.5942     -1454.8866      323.59404      313.19777      42894.916     -30618.529     -498.8502       78679.39       42.85028       42.85028       42.85028       1.0569306      599.17708     -2166.1961     -1084.4179    
    142000   142000         552.61167     -1081.1982      37731.11       38971.74       12385.525      26586.214      6173.1237      8951.9548     -1588.8537      317.79238      439.23857      42906.352     -30613.393     -498.8502       78679.39       42.85028       42.85028       42.85028       1.0569306     -1310.8918     -1975.7312      43.028451    
    143000   143000         551.11221     -368.01482      38541.506      38963.787      12351.919      26611.869      6117.5488      9074.2614     -1574.3027      353.08786      350.24291      42918.907     -30627.876     -498.8502       78679.39       42.85028       42.85028       42.85028       1.0569306     -240.17941     -1148.2899      284.42486    
    144000   144000         555.51625     -240.55773      39207.302      39483.332      12450.625      27032.707      6403.0665      9030.6257     -1461.3807      343.25237      405.26786      42925.363     -30613.488     -498.8502       78679.39       42.85028       42.85028       42.85028       1.0569306      1020.3937     -188.84304     -1553.2238    
    145000   145000         551.19867     -865.76774      37998.383      38991.815      12353.856      26637.959      6071.9176      9054.2368     -1582.2489      327.31089      495.50597      42894.87      -30623.633     -498.8502       78679.39       42.85028       42.85028       42.85028       1.0569306     -1986.1867      122.34896     -733.4655     
    146000   146000         553.42813      426.25707      39501.125      39012.013      12403.825      26608.188      6108.5388      8981.5601     -1523.9288      315.15922      380.1513       42956.575     -30609.867     -498.8502       78679.39       42.85028       42.85028       42.85028       1.0569306      478.42777     -1495.3385      2295.6819    
    147000   147000         550.75552     -681.76279      37983.464      38765.758      12343.924      26421.834      6045.819       8838.9285     -1528.1081      324.02837      415.54752      42940.325     -30614.707     -498.8502       78679.39       42.85028       42.85028       42.85028       1.0569306      40.824121     -1282.9566     -803.15592    
    148000   148000         547.82426     -915.55516      37682.09       38732.651      12278.227      26454.425      6175.2616      8838.1202     -1569.5192      322.81704      393.37371      42924.603     -30630.231     -498.8502       78679.39       42.85028       42.85028       42.85028       1.0569306     -461.4637      -1167.7254     -1117.4764    
    149000   149000         543.48185      619.70428      39602.28       38891.195      12180.901      26710.294      6097.5962      8919.9814     -1500.7061      330.34536      539.99056      42946.745     -30623.658     -498.8502       78679.39       42.85028       42.85028       42.85028       1.0569306      897.4933      -779.57891      1741.1985    
    150000   150000         559.20391      336.63561      39742.061      39355.786      12533.275      26822.511      6106.7879      9108.0016     -1513.5414      359.35195      437.88084      42938.852     -30614.822     -498.8502       78679.39       42.85028       42.85028       42.85028       1.0569306      1858.8176     -337.58444     -511.32631    
[...]
   1955000   1955000        553.60797      1616.059       41062.958      39208.598      12407.855      26800.742      6131.99        9081.1902     -1571.4869      340.05291      503.34306      42933.411     -30617.757     -498.8502       78679.39       42.85028       42.85028       42.85028       1.0569306      961.06971      2214.9919      1672.1154    
   1956000   1956000        543.60725     -893.27219      37698.903      38723.896      12183.712      26540.184      6079.3712      8903.9763     -1558.2209      340.0261       457.24289      42933.225     -30615.437     -498.8502       78679.39       42.85028       42.85028       42.85028       1.0569306     -1194.1248     -737.92853     -747.76326    
   1957000   1957000        551.00436     -728.64915      38278.382      39114.477      12349.501      26764.975      6324.1401      9025.946      -1591.5628      301.22776      408.44664      42908.797     -30612.019     -498.8502       78679.39       42.85028       42.85028       42.85028       1.0569306     -1367.6802     -814.8747      -3.3926051    
   1958000   1958000        550.49689     -802.50277      38380.617      39301.455      12338.128      26963.328      6208.4605      9051.4696     -1460.9735      341.85564      527.14446      42910.635     -30615.264     -498.8502       78679.39       42.85028       42.85028       42.85028       1.0569306     -546.86063     -116.51957     -1744.1281    
   1959000   1959000        548.14904      385.65119      39485.44       39042.921      12285.506      26757.415      6270.122       8859.7033     -1534.002       346.53421      495.28713      42932.438     -30612.667     -498.8502       78679.39       42.85028       42.85028       42.85028       1.0569306      98.60062      -1754.4666      2812.8196    
   1960000   1960000        542.9253       407.16849      39317.83       38850.621      12168.428      26682.193      6164.4049      9002.8456     -1583.5807      326.20443      453.38733      42932.809     -30613.877     -498.8502       78679.39       42.85028       42.85028       42.85028       1.0569306     -13.304366      1177.1182      57.691631    
   1961000   1961000        550.37701      460.59181      39383.552      38855.043      12335.441      26519.602      6014.7837      8975.396      -1624.308       325.72601      516.53067      42920.58      -30609.107     -498.8502       78679.39       42.85028       42.85028       42.85028       1.0569306      887.16229      993.51655     -498.90341    
   1962000   1962000        556.44186     -927.50166      38035.243      39099.512      12471.37       26628.142      6241.1737      8825.0548     -1462.076       319.56826      431.17424      42893.004     -30619.757     -498.8502       78679.39       42.85028       42.85028       42.85028       1.0569306     -152.61748     -2256.7304     -373.15713    
   1963000   1963000        551.05415     -683.78833      38212.353      38996.971      12350.617      26646.354      5991.7414      9035.5313     -1583.9705      319.58187      554.46302      42926.328     -30597.321     -498.8502       78679.39       42.85028       42.85028       42.85028       1.0569306     -385.04384     -1450.9798     -215.34133    
   1964000   1964000        549.65235      1345.253       40330.298      38786.677      12319.199      26467.478      6087.3116      8783.4374     -1546.3622      305.26004      520.26775      42931.784     -30614.221     -498.8502       78679.39       42.85028       42.85028       42.85028       1.0569306      1027.2097      1294.2567      1714.2924    
   1965000   1965000        545.19141      2138.1833      41581.982      39128.506      12219.217      26909.288      6190.6261      9030.0544     -1551.3744      338.36658      572.97938      42934.41      -30605.773     -498.8502       78679.39       42.85028       42.85028       42.85028       1.0569306      2848.435       1888.5055      1677.6093    
   1966000   1966000        554.81093      123.99086      39005.09       38862.816      12434.817      26427.999      6008.6418      8951.7443     -1544.3866      342.66016      340.55598      42936.437     -30607.653     -498.8502       78679.39       42.85028       42.85028       42.85028       1.0569306      1992.1387     -1842.2715      222.10531    
   1967000   1967000        555.10186      917.9885       40156.847      39103.494      12441.337      26662.156      6102.8135      8990.4634     -1600.1028      320.06389      500.38106      42949.466     -30600.929     -498.8502       78679.39       42.85028       42.85028       42.85028       1.0569306      1988.0434      1826.5683     -1060.6461    
   1968000   1968000        555.67132      2835.3076      42476.883      39223.486      12454.101      26769.386      6021.0391      8916.6101     -1453.7452      327.6875       603.12848      42962.377     -30607.711     -498.8502       78679.39       42.85028       42.85028       42.85028       1.0569306      4681.9868      2142.415       1681.5209    
   1969000   1969000        551.19052     -64.257772      38819.14       38892.873      12353.674      26539.2        6148.672       8928.703      -1615.3928      310.148        438.62303      42937.862     -30609.415     -498.8502       78679.39       42.85028       42.85028       42.85028       1.0569306      170.51614     -16.142371     -347.14708    
   1970000   1970000        547.37246     -262.73904      38607.574      38909.056      12268.101      26640.956      6084.1007      8936.7181     -1534.0088      306.19819      517.98087      42937.618     -30607.652     -498.8502       78679.39       42.85028       42.85028       42.85028       1.0569306     -1300.9576      1088.252      -575.51151    
   1971000   1971000        551.73644      63.225137      39064.775      38992.227      12365.909      26626.318      6162.8083      8963.1819     -1577.0109      308.86106      464.48491      42922.359     -30618.367     -498.8502       78679.39       42.85028       42.85028       42.85028       1.0569306     -1644.9677      1886.381      -51.737889    
   1972000   1972000        546.10818     -1720.1247      36807.577      38781.349      12239.765      26541.584      6113.7804      8990.9315     -1516.6061      344.38837      292.2374       42919.558     -30602.706     -498.8502       78679.39       42.85028       42.85028       42.85028       1.0569306     -1273.006      -967.33921     -2920.0289    
   1973000   1973000        554.78822     -438.04899      38599.394      39102.037      12434.308      26667.729      6126.4552      8980.1827     -1572.6105      311.78603      500.48585      42934.365     -30612.935     -498.8502       78679.39       42.85028       42.85028       42.85028       1.0569306     -568.89345      546.90413     -1292.1577    
   1974000   1974000        552.31598      1624.1134      40958.488      39094.885      12378.898      26715.987      5982.2874      8948.7561     -1541.3106      325.79961      667.69649      42944.823     -30612.065     -498.8502       78679.39       42.85028       42.85028       42.85028       1.0569306      999.23969      2652.4868      1220.6137    
   1975000   1975000        545.13476      400.4627       39369.413      38909.899      12217.948      26691.951      6202.973       9003.1812     -1582.5665      299.91799      433.6745       42937.601     -30602.83      -498.8502       78679.39       42.85028       42.85028       42.85028       1.0569306     -1449.5324      1715.3365      935.58396    
   1976000   1976000        556.05699      2063.7798      41556.228      39188.127      12462.744      26725.383      5984.3806      9012.1708     -1514.4144      313.71887      583.11691      42956.418     -30610.007     -498.8502       78679.39       42.85028       42.85028       42.85028       1.0569306      1177.981       1719.5197      3293.8386    
   1977000   1977000        546.19737     -170.19266      38554.225      38749.514      12241.764      26507.75       6138.4291      8963.0051     -1591.9912      302.04561      405.99384      42898.418     -30608.15      -498.8502       78679.39       42.85028       42.85028       42.85028       1.0569306      336.41871     -256.17153     -590.82517    
   1978000   1978000        552.49408     -105.16894      38858.074      38978.751      12382.89       26595.861      6167.9472      8907.1793     -1580.8411      303.38412      470.04164      42933.304     -30605.154     -498.8502       78679.39       42.85028       42.85028       42.85028       1.0569306      215.68001     -1039.4072      508.22034    
   1979000   1979000        551.31175      400.67757      39450.847      38991.086      12356.391      26634.695      6162.1056      8845.8029     -1510.1848      333.43171      483.40361      42920.479     -30600.342     -498.8502       78679.39       42.85028       42.85028       42.85028       1.0569306     -148.48086      1343.966       6.5476116    
   1980000   1980000        547.93352      134.62631      39000.663      38846.185      12280.675      26565.51       6116.9854      9050.7761     -1634.0953      342.71814      373.37587      42922.666     -30606.916     -498.8502       78679.39       42.85028       42.85028       42.85028       1.0569306      1332.7219     -422.79078     -506.0522     
   1981000   1981000        546.23973     -1098.4882      37662.479      38922.948      12242.713      26680.235      6173.465       8961.0916     -1493.7794      315.52998      417.59812      42910.711     -30604.382     -498.8502       78679.39       42.85028       42.85028       42.85028       1.0569306     -325.8267      -447.91346     -2521.7243    
   1982000   1982000        558.24093     -531.18216      38484.992      39094.502      12511.692      26582.809      6054.7331      8997.4908     -1575.1626      333.33921      431.43796      42941.938     -30600.967     -498.8502       78679.39       42.85028       42.85028       42.85028       1.0569306      368.56722     -2061.5531      99.439438    
   1983000   1983000        555.43032      1118.3256      40283.396      39000.164      12448.699      26551.465      6150.3587      8816.9201     -1572.7845      330.3502       509.93353      42926.662     -30609.974     -498.8502       78679.39       42.85028       42.85028       42.85028       1.0569306      1085.5351      1564.1932      705.24834    
   1984000   1984000        554.81381      491.7725       39772.22       39207.932      12434.881      26773.051      6100.2031      9238.1369     -1573.6251      298.18629      398.22941      42910.353     -30598.433     -498.8502       78679.39       42.85028       42.85028       42.85028       1.0569306      508.53964      1294.3228     -327.54498    
   1985000   1985000        553.10523      323.70956      39217.084      38845.641      12396.588      26449.053      5959.2385      8931.2216     -1554.0892      307.2627       481.84733      42924.57      -30600.997     -498.8502       78679.39       42.85028       42.85028       42.85028       1.0569306      183.20417      1170.1568     -382.23228    
   1986000   1986000        550.86442      26.778573      39206.192      39175.465      12346.365      26829.1        6130.5808      9071.5012     -1610.5446      314.7069       596.80337      42928.894     -30602.842     -498.8502       78679.39       42.85028       42.85028       42.85028       1.0569306      676.06765      1862.3862     -2458.1181    
   1987000   1987000        547.42179      629.12303      39477.849      38755.956      12269.206      26486.75       6079.1643      8876.9197     -1562.6413      321.8196       465.2379       42920.465     -30614.215     -498.8502       78679.39       42.85028       42.85028       42.85028       1.0569306     -1543.0479      1182.7619      2247.655     
   1988000   1988000        558.63525     -691.1321       38351.785      39144.83       12520.53       26624.3        6076.8041      8996.3939     -1503.9842      328.81045      382.90319      42953.88      -30610.508     -498.8502       78679.39       42.85028       42.85028       42.85028       1.0569306     -439.2168       978.49516     -2612.6746    
   1989000   1989000        553.33531     -743.4229       38347.597      39200.643      12401.744      26798.899      6285.3212      9021.7808     -1592.0217      315.60674      483.00245      42895.748     -30610.538     -498.8502       78679.39       42.85028       42.85028       42.85028       1.0569306     -1329.5341      108.25701     -1008.9917    
   1990000   1990000        558.1999       184.74461      39512.214      39300.228      12510.773      26789.455      6007.8429      9127.8564     -1513.0843      364.03434      480.59893      42925.814     -30603.607     -498.8502       78679.39       42.85028       42.85028       42.85028       1.0569306      1192.5779     -1186.8659      548.52183    
   1991000   1991000        552.72938      385.81069      39426.905      38984.204      12388.164      26596.04       6009.807       8912.6756     -1530.5447      363.90102      540.44202      42912.641     -30612.882     -498.8502       78679.39       42.85028       42.85028       42.85028       1.0569306     -709.60168     -800.84514      2667.8789    
   1992000   1992000        564.34126      428.91074      40016.9        39524.743      12648.417      26876.325      6244.5246      9107.5446     -1576.5811      323.9687       454.75346      42937.173     -30615.058     -498.8502       78679.39       42.85028       42.85028       42.85028       1.0569306     -566.10229      1028.1204      824.71409    
   1993000   1993000        544.17352     -147.44847      38653.613      38822.804      12196.404      26626.4        6114.6256      9011.577      -1603.1387      328.36038      458.07707      42927.026     -30610.127     -498.8502       78679.39       42.85028       42.85028       42.85028       1.0569306     -2439.4313      2184.0489     -186.96306    
   1994000   1994000        548.4825       1259.8666      40542.989      39097.344      12292.98       26804.365      6209.0344      9012.7862     -1563.683       336.3996       502.10793      42920.346     -30612.626     -498.8502       78679.39       42.85028       42.85028       42.85028       1.0569306      2703.103      -103.72169      1180.2184    
   1995000   1995000        557.27468      1040.1196      40446.95       39253.456      12490.036      26763.42       6161.8561      8987.259      -1534.0478      291.70945      535.19543      42930.058     -30608.61      -498.8502       78679.39       42.85028       42.85028       42.85028       1.0569306      70.34661       1488.0659      1561.9462    
   1996000   1996000        544.08674     -399.25123      38468.07       38926.195      12194.459      26731.736      6203.2067      8997.3807     -1562.2509      311.85861      451.39181      42939.007     -30608.858     -498.8502       78679.39       42.85028       42.85028       42.85028       1.0569306      158.9293       597.65826     -1954.3412    
   1997000   1997000        545.62312      144.25483      39090.245      38924.719      12228.893      26695.826      6178.6243      8912.6505     -1499.8239      339.80868      477.72549      42904.875     -30618.034     -498.8502       78679.39       42.85028       42.85028       42.85028       1.0569306      230.42024      572.35012     -370.00586    
   1998000   1998000        552.52429      24.97279       39219.595      39190.94       12383.567      26807.373      6221.8648      8942.3805     -1503.4266      331.98543      466.5262       42947.482     -30599.439     -498.8502       78679.39       42.85028       42.85028       42.85028       1.0569306      1392.8514     -2710.3058      1392.3728    
   1999000   1999000        551.71494      219.0688       39264.8        39013.428      12365.427      26648.001      6036.4566      9038.8157     -1541.2682      316.30973      469.20667      42935.015     -30606.534     -498.8502       78679.39       42.85028       42.85028       42.85028       1.0569306     -60.736369     -37.053882      754.99664    
   2000000   2000000        549.27019      1332.1625      40790.932      39262.331      12310.634      26951.697      6173.5405      9041.5315     -1517.7687      386.13183      578.42809      42911.176     -30621.342     -498.8502       78679.39       42.85028       42.85028       42.85028       1.0569306      215.85491      1420.3251      2360.3075    
Loop time of 4142.36 on 1 procs for 2000000 steps with 7520 atoms

Performance: 41.715 ns/day, 0.575 hours/ns, 482.817 timesteps/s, 3.631 Matom-step/s
100.0% CPU use with 1 MPI tasks x 1 OpenMP threads

MPI task timing breakdown:
Section |  min time  |  avg time  |  max time  |%varavg| %total
---------------------------------------------------------------
Pair    | 32.399     | 32.399     | 32.399     |   0.0 |  0.78
Bond    | 716.09     | 716.09     | 716.09     |   0.0 | 17.29
Kspace  | 2193.6     | 2193.6     | 2193.6     |   0.0 | 52.95
Neigh   | 720.35     | 720.35     | 720.35     |   0.0 | 17.39
Comm    | 94.502     | 94.502     | 94.502     |   0.0 |  2.28
Output  | 21.685     | 21.685     | 21.685     |   0.0 |  0.52
Modify  | 293.36     | 293.36     | 293.36     |   0.0 |  7.08
Other   |            | 70.4       |            |       |  1.70

Nlocal:           7520 ave        7520 max        7520 min
Histogram: 1 0 0 0 0 0 0 0 0 0
Nghost:          19737 ave       19737 max       19737 min
Histogram: 1 0 0 0 0 0 0 0 0 0
Neighs:              0 ave           0 max           0 min
Histogram: 1 0 0 0 0 0 0 0 0 0
FullNghs:  4.57611e+06 ave 4.57611e+06 max 4.57611e+06 min
Histogram: 1 0 0 0 0 0 0 0 0 0

Total # of neighbors = 4576114
Ave neighs/atom = 608.5258
Ave special neighs/atom = 5.7207447
Neighbor list builds = 106919
Dangerous builds = 0

# --- Cleanup ---
unfix nvt_fix

undump dump_nvt

# --- Write Output ---
write_dump all custom nvt_production_last.dump id type mol x y z xu yu zu vx vy vz modify sort id
write_data /home/alexzhao/PolyJarvis/data/PMMA4/lammps/equil/nvt_production/nvt_production_out.data
System init for write_data ...
PPPM Kokkos initialization ...
  using 12-bit tables for long-range coulomb
  G vector (1/distance) = 0.33150457
  grid = 45 45 45
  stencil order = 5
  estimated absolute RMS force accuracy = 0.00030702658
  estimated relative force accuracy = 9.2460142e-07
  using double precision cuFFT
  3d grid and FFT values/proc = 140608 91125
Generated 15 of 15 mixed pair_coeff terms from sixthpower/sixthpower mixing rule

print "STAGE COMPLETE: NVT T=550.0->550.0K steps=2000000"
STAGE COMPLETE: NVT T=550.0->550.0K steps=2000000
quit
|            |       |  1.70

Nlocal:           7520 ave        7520 max        7520 min
Histogram: 1 0 0 0 0 0 0 0 0 0
Nghost:          19737 ave       19737 max       19737 min
Histogram: 1 0 0 0 0 0 0 0 0 0
Neighs:              0 ave           0 max           0 min
Histogram: 1 0 0 0 0 0 0 0 0 0
FullNghs:  4.57611e+06 ave 4.57611e+06 max 4.57611e+06 min
Histogram: 1 0 0 0 0 0 0 0 0 0

Total # of neighbors = 4576114
Ave neighs/atom = 608.5258
Ave special neighs/atom = 5.7207447
Neighbor list builds = 106919
Dangerous builds = 0
System init for write_data ...
PPPM Kokkos initialization ...
  using 12-bit tables for long-range coulomb
  G vector (1/distance) = 0.33150457
  grid = 45 45 45
  stencil order = 5
  estimated absolute RMS force accuracy = 0.00030702658
  estimated relative force accuracy = 9.2460142e-07
  using double precision cuFFT
  3d grid and FFT values/proc = 140608 91125
Generated 15 of 15 mixed pair_coeff terms from sixthpower/sixthpower mixing rule
STAGE COMPLETE: NVT T=550.0->550.0K steps=2000000
