units real
atom_style full
boundary p p p

# --- Force Field Styles ---
pair_style lj/class2/coul/long 9.5 9.5
kspace_style pppm 1e-6
dielectric 1.000000
bond_style class2
angle_style class2
dihedral_style class2
improper_style class2
special_bonds lj/coul 0 0 1
pair_modify mix sixthpower tail yes
neighbor 2.0 bin
neigh_modify delay 0 every 1 check yes
neigh_modify one 4000
# KOKKOS: package loaded via -pk kokkos on the command line

read_data /home/arz2/PolyJarvis/data/PSU4/lammps/equil/npt_cool/npt_cool_out.data
Reading data file ...
  orthogonal box = (4.7520132 4.7520132 4.7520132) to (57.140629 57.140629 57.140629)
  1 by 1 by 1 MPI processor grid
  reading atoms ...
  10816 atoms
  reading velocities ...
  10816 velocities
  scanning bonds ...
  4 = max bonds/atom
  scanning angles ...
  16 = max angles/atom
  scanning dihedrals ...
  38 = max dihedrals/atom
  scanning impropers ...
  12 = max impropers/atom
  orthogonal box = (4.7520132 4.7520132 4.7520132) to (57.140629 57.140629 57.140629)
  1 by 1 by 1 MPI processor grid
  reading bonds ...
  11608 bonds
  reading angles ...
  19600 angles
  reading dihedrals ...
  29184 dihedrals
  reading impropers ...
  8000 impropers
Finding 1-2 1-3 1-4 neighbors ...
  special bond factors lj:    0        0        1       
  special bond factors coul:  0        0        1       
     4 = max # of 1-2 neighbors
    10 = max # of 1-3 neighbors
    14 = max # of special neighbors
  special bonds CPU = 0.006 seconds
  read_data CPU = 0.442 seconds
include /home/arz2/PolyJarvis/data/PSU4/lammps/equil/emc_build.params
# LAMMPS parameters created by EMC v9.4.4, build Jul 31 2025 20:33:44

# Variables

variable	seed		index	734512
variable	ntotal		index	10816
variable	fshape		index	1
variable	output		index	emc_build
variable	field		index	pcff/pcff
variable	location1	index	/home/arz2/emc/field/
variable	nav		index	0.6022141179
variable	temperature	index	300
variable	radius		index	5
variable	nrelax		index	100
variable	weight_nonbond	index	0.0001
variable	weight_bond	index	0.0001
variable	weight_focus	index	1
variable	cutoff		index	9.5
variable	charge_cutoff	index	9.5
variable	kappa		index	4
variable	density1	index	0.62
variable	lprevious	index	0
variable	lphase		index	61.8926417911
variable	f_poly		index	8
variable	chem_repeat	index	*Oc1ccc(C(C)(C)c2ccc(Oc3ccc(S(=O)(=O)c4ccc(*)cc4)cc3)cc2)cc1
variable	chem_cap	index	*[H]
variable	lg_repeat	index	54
variable	lg_cap		index	1
variable	norm_poly	index	100
variable	l_poly		index	1352
variable	mg_repeat	index	414.52744
variable	mg_cap		index	0
variable	m_poly		index	10363.186
variable	n_poly		index	8
variable	mtotal		index	88523.72552
variable	nphase1		index	10816
variable	mphase1		index	88523.72552
variable	vphase1		index	237092.087694
variable	lbox		index	61.8926417911
variable	lphase1		index	61.8926417911
variable	lxx		index	61.8926417911
variable	lyy		index	61.8926417911
variable	lzz		index	61.8926417911
variable	lzy		index	0
variable	lzx		index	0
variable	lyx		index	0
variable	vtotal		index	237092.087694
variable	nl_poly		index	8

# Types

variable	type_c		index	1
variable	type_cp		index	2
variable	type_hc		index	3
variable	type_ho		index	4
variable	type_oe		index	5
variable	type_oc		index	6
variable	type_oh		index	7
variable	type_sf		index	8

variable	type_bond_c_c	index	1
variable	type_bond_c_cp	index	2
variable	type_bond_c_hc	index	3
variable	type_bond_cp_cp	index	4
variable	type_bond_cp_hc	index	5
variable	type_bond_cp_oc	index	6
variable	type_bond_cp_oh	index	7
variable	type_bond_cp_sf	index	8
variable	type_bond_ho_oh	index	9
variable	type_bond_oe_sf	index	10

variable	type_angle_c_c_c index	1
variable	type_angle_c_c_cp index	2
variable	type_angle_c_c_hc index	3
variable	type_angle_c_cp_cp index	4
variable	type_angle_cp_c_cp index	5
variable	type_angle_cp_cp_cp index	6
variable	type_angle_cp_cp_hc index	7
variable	type_angle_cp_cp_oc index	8
variable	type_angle_cp_cp_oh index	9
variable	type_angle_cp_cp_sf index	10
variable	type_angle_cp_oc_cp index	11
variable	type_angle_cp_oh_ho index	12
variable	type_angle_cp_sf_cp index	13
variable	type_angle_cp_sf_oe index	14
variable	type_angle_hc_c_hc index	15
variable	type_angle_oe_sf_oe index	16

# Clusters

variable	n0_poly		index	1
variable	n1_poly		index	8
variable	nl_poly		index	8

# Flags

variable	flag_charged	index	1

# Masses

mass		1    12.01115  # c
mass		2    12.01115  # cp
mass		3     1.00797  # hc
mass		4     1.00797  # ho
mass		5    15.99940  # o=
mass		6    15.99940  # oc
mass		7    15.99940  # oh
mass		8    32.06400  # sf

# Potentials

pair_modify	mix sixthpower tail yes
special_bonds	lj/coul 0 0 1

# Pair Coeffs

pair_coeff	 1  1    0.05400    4.01000  # c,c
pair_coeff	 2  2    0.06400    4.01000  # cp,cp
pair_coeff	 3  3    0.02000    2.99500  # hc,hc
pair_coeff	 4  4    0.01300    1.09800  # ho,ho
pair_coeff	 5  5    0.06000    3.53500  # o=,o=
pair_coeff	 6  6    0.24000    3.53500  # oc,oc
pair_coeff	 7  7    0.24000    3.53500  # oh,oh
pair_coeff	 8  8    0.25000    4.02700  # sf,sf

# Bond Coeffs

bond_coeff	 1    1.53000  299.67000 -501.77000  679.81000  # c,c
bond_coeff	 2    1.50100  321.90210 -521.82080  572.16280  # c,cp
bond_coeff	 3    1.10100  345.00000 -691.89000  844.60000  # c,hc
bond_coeff	 4    1.41700  470.83610 -627.61790 1327.63450  # cp,cp
bond_coeff	 5    1.09820  372.82510 -803.45260  894.31730  # cp,hc
bond_coeff	 6    1.37680  428.87980 -738.23510 1114.96550  # cp,oc
bond_coeff	 7    1.37680  428.87980 -738.23510 1114.96550  # cp,oh
bond_coeff	 8    1.72000  239.80240    0.00000    0.00000  # cp,sf
bond_coeff	 9    0.96500  532.50620 -1282.90500 2004.76580  # ho,oh
bond_coeff	10    1.43080  743.76000    0.00000    0.00000  # o=,sf

# Angle Coeffs

angle_coeff	 1  112.67000   39.51600   -7.44300   -9.55830  # c,c,c
angle_coeff	 2  108.40000   43.95940   -8.39240   -9.33790  # c,c,cp
angle_coeff	 3  110.77000   41.45300  -10.60400    5.12900  # c,c,hc
angle_coeff	 4  120.05000   44.71480  -22.73520    0.00000  # c,cp,cp
angle_coeff	 5  111.00000   44.32340   -9.44540    0.00000  # cp,c,cp
angle_coeff	 6  118.90000   61.02260  -34.99310    0.00000  # cp,cp,cp
angle_coeff	 7  117.94000   35.15580  -12.46820    0.00000  # cp,cp,hc
angle_coeff	 8  123.42000   73.67810  -21.67870    0.00000  # cp,cp,oc
angle_coeff	 9  123.42000   73.67810  -21.67870    0.00000  # cp,cp,oh
angle_coeff	10  120.00000   60.00000    0.00000    0.00000  # cp,cp,sf
angle_coeff	11  109.50000   60.00000    0.00000    0.00000  # cp,oc,cp
angle_coeff	12  108.19000   53.12500   -8.50160    0.00000  # cp,oh,ho
angle_coeff	13  102.00000   58.00000    0.00000    0.00000  # cp,sf,cp
angle_coeff	14  113.10000   42.30000    0.00000    0.00000  # cp,sf,o=
angle_coeff	15  107.66000   39.64100  -12.92100   -2.43180  # hc,c,hc
angle_coeff	16  119.32900  135.00000    0.00000    0.00000  # o=,sf,o=

# BondBond Coeffs

angle_coeff	 1 bb    0.00000    1.53000    1.53000  # c,c,c
angle_coeff	 2 bb    0.00000    1.53000    1.50100  # c,c,cp
angle_coeff	 3 bb    3.38720    1.53000    1.10100  # c,c,hc
angle_coeff	 4 bb   12.06760    1.50100    1.41700  # c,cp,cp
angle_coeff	 5 bb    0.00000    1.50100    1.50100  # cp,c,cp
angle_coeff	 6 bb   68.28560    1.41700    1.41700  # cp,cp,cp
angle_coeff	 7 bb    1.07950    1.41700    1.09820  # cp,cp,hc
angle_coeff	 8 bb   48.47540    1.41700    1.37680  # cp,cp,oc
angle_coeff	 9 bb   48.47540    1.41700    1.37680  # cp,cp,oh
angle_coeff	10 bb    0.00000    1.41700    1.72000  # cp,cp,sf
angle_coeff	11 bb    0.00000    1.37680    1.37680  # cp,oc,cp
angle_coeff	12 bb   20.65770    1.37680    0.96500  # cp,oh,ho
angle_coeff	13 bb    0.00000    1.72000    1.72000  # cp,sf,cp
angle_coeff	14 bb    0.00000    1.72000    1.43080  # cp,sf,o=
angle_coeff	15 bb    5.33160    1.10100    1.10100  # hc,c,hc
angle_coeff	16 bb   40.00000    1.43080    1.43080  # o=,sf,o=

# BondAngle Coeffs

angle_coeff	 1 ba    8.01600    8.01600    1.53000    1.53000  # c,c,c
angle_coeff	 2 ba    0.00000    0.00000    1.53000    1.50100  # c,c,cp
angle_coeff	 3 ba   20.75400   11.42100    1.53000    1.10100  # c,c,hc
angle_coeff	 4 ba   47.05790   31.07710    1.50100    1.41700  # c,cp,cp
angle_coeff	 5 ba    0.00000    0.00000    1.50100    1.50100  # cp,c,cp
angle_coeff	 6 ba   28.87080   28.87080    1.41700    1.41700  # cp,cp,cp
angle_coeff	 7 ba   20.00330   24.21830    1.41700    1.09820  # cp,cp,hc
angle_coeff	 8 ba   58.47900  107.68060    1.41700    1.37680  # cp,cp,oc
angle_coeff	 9 ba   58.47900  107.68060    1.41700    1.37680  # cp,cp,oh
angle_coeff	10 ba    0.00000    0.00000    1.41700    1.72000  # cp,cp,sf
angle_coeff	11 ba    0.00000    0.00000    1.37680    1.37680  # cp,oc,cp
angle_coeff	12 ba   53.86140   23.92240    1.37680    0.96500  # cp,oh,ho
angle_coeff	13 ba    0.00000    0.00000    1.72000    1.72000  # cp,sf,cp
angle_coeff	14 ba    0.00000    0.00000    1.72000    1.43080  # cp,sf,o=
angle_coeff	15 ba   18.10300   18.10300    1.10100    1.10100  # hc,c,hc
angle_coeff	16 ba    0.00000    0.00000    1.43080    1.43080  # o=,sf,o=

# Dihedral Coeffs

dihedral_coeff	 1    0.00000    0.00000    0.03160    0.00000   -0.16810    0.00000  # c,c,c,hc
dihedral_coeff	 2   -0.28020    0.00000   -0.06780    0.00000   -0.01220    0.00000  # c,c,cp,cp
dihedral_coeff	 3    0.00000    0.00000    4.40720    0.00000    0.00000    0.00000  # c,cp,cp,cp
dihedral_coeff	 4    0.00000    0.00000    1.55900    0.00000    0.00000    0.00000  # c,cp,cp,hc
dihedral_coeff	 5   -0.02280    0.00000    0.02800    0.00000   -0.18630    0.00000  # cp,c,c,hc
dihedral_coeff	 6   -0.28020    0.00000   -0.06780    0.00000   -0.01220    0.00000  # cp,c,cp,cp
dihedral_coeff	 7    8.36670    0.00000    1.19320    0.00000    0.00000    0.00000  # cp,cp,cp,cp
dihedral_coeff	 8    0.00000    0.00000    3.96610    0.00000    0.00000    0.00000  # cp,cp,cp,hc
dihedral_coeff	 9    0.00000    0.00000    4.84980    0.00000    0.00000    0.00000  # cp,cp,cp,oc
dihedral_coeff	10    0.00000    0.00000    4.84980    0.00000    0.00000    0.00000  # cp,cp,cp,oh
dihedral_coeff	11    0.00000    0.00000    3.00000    0.00000    0.00000    0.00000  # cp,cp,cp,sf
dihedral_coeff	12    0.00000    0.00000    1.80000    0.00000    0.00000    0.00000  # cp,cp,oc,cp
dihedral_coeff	13   -0.69000    0.00000    0.50970    0.00000    0.00950    0.00000  # cp,cp,oh,ho
dihedral_coeff	14    0.00000    0.00000    1.50000    0.00000    0.00000    0.00000  # cp,cp,sf,cp
dihedral_coeff	15    0.00000    0.00000    1.50000    0.00000    0.00000    0.00000  # cp,cp,sf,o=
dihedral_coeff	16    0.00000    0.00000    1.87690    0.00000    0.00000    0.00000  # hc,cp,cp,hc
dihedral_coeff	17    0.00000    0.00000    1.72340    0.00000    0.00000    0.00000  # hc,cp,cp,oc
dihedral_coeff	18    0.00000    0.00000    1.72340    0.00000    0.00000    0.00000  # hc,cp,cp,oh
dihedral_coeff	19    0.00000    0.00000    3.00000    0.00000    0.00000    0.00000  # hc,cp,cp,sf

# MiddleBondTorsion Coeffs

dihedral_coeff	 1 mbt  -14.87900   -3.65810   -0.31380    1.53000  # c,c,c,hc
dihedral_coeff	 2 mbt    0.00000    0.00000    0.00000    1.50100  # c,c,cp,cp
dihedral_coeff	 3 mbt    0.00000    9.17920    0.00000    1.41700  # c,cp,cp,cp
dihedral_coeff	 4 mbt    0.00000    3.94210    0.00000    1.41700  # c,cp,cp,hc
dihedral_coeff	 5 mbt    0.00000    0.00000    0.00000    1.53000  # cp,c,c,hc
dihedral_coeff	 6 mbt    0.00000    0.00000    0.00000    1.50100  # cp,c,cp,cp
dihedral_coeff	 7 mbt   27.59890   -2.31200    0.00000    1.41700  # cp,cp,cp,cp
dihedral_coeff	 8 mbt    0.00000   -1.15210    0.00000    1.41700  # cp,cp,cp,hc
dihedral_coeff	 9 mbt    0.00000    4.82550    0.00000    1.41700  # cp,cp,cp,oc
dihedral_coeff	10 mbt    0.00000    4.82550    0.00000    1.41700  # cp,cp,cp,oh
dihedral_coeff	11 mbt    0.00000    0.00000    0.00000    1.41700  # cp,cp,cp,sf
dihedral_coeff	12 mbt    0.00000    0.00000    0.00000    1.37680  # cp,cp,oc,cp
dihedral_coeff	13 mbt    1.15800    3.26970    3.51320    1.37680  # cp,cp,oh,ho
dihedral_coeff	14 mbt    0.00000    0.00000    0.00000    1.72000  # cp,cp,sf,cp
dihedral_coeff	15 mbt    0.00000    0.00000    0.00000    1.72000  # cp,cp,sf,o=
dihedral_coeff	16 mbt    0.00000    4.82280    0.00000    1.41700  # hc,cp,cp,hc
dihedral_coeff	17 mbt    0.00000    5.54320    0.00000    1.41700  # hc,cp,cp,oc
dihedral_coeff	18 mbt    0.00000    5.54320    0.00000    1.41700  # hc,cp,cp,oh
dihedral_coeff	19 mbt    0.00000    0.00000    0.00000    1.41700  # hc,cp,cp,sf

# EndBondTorsion Coeffs

dihedral_coeff	 1 ebt    0.24860    0.24220   -0.09250    0.08140    0.05910    0.22190    1.53000    1.10100  # c,c,c,hc
dihedral_coeff	 2 ebt    0.00000    0.00000    0.00000    0.00000    0.00000    0.00000    1.53000    1.41700  # c,c,cp,cp
dihedral_coeff	 3 ebt    0.00000    0.24210    0.00000    0.00000   -0.69180    0.00000    1.50100    1.41700  # c,cp,cp,cp
dihedral_coeff	 4 ebt    0.00000   -1.79700    0.00000    0.00000   -0.48790    0.00000    1.50100    1.09820  # c,cp,cp,hc
dihedral_coeff	 5 ebt    0.00000    0.00000    0.00000    0.00000    0.00000    0.00000    1.50100    1.10100  # cp,c,c,hc
dihedral_coeff	 6 ebt    0.00000    0.00000    0.00000    0.00000    0.00000    0.00000    1.50100    1.41700  # cp,c,cp,cp
dihedral_coeff	 7 ebt   -0.11850    6.32040    0.00000   -0.11850    6.32040    0.00000    1.41700    1.41700  # cp,cp,cp,cp
dihedral_coeff	 8 ebt    0.00000   -6.89580    0.00000    0.00000   -0.46690    0.00000    1.41700    1.09820  # cp,cp,cp,hc
dihedral_coeff	 9 ebt    0.00000    0.26550    0.00000    0.00000    4.89050    0.00000    1.41700    1.37680  # cp,cp,cp,oc
dihedral_coeff	10 ebt    0.00000    0.26550    0.00000    0.00000    4.89050    0.00000    1.41700    1.37680  # cp,cp,cp,oh
dihedral_coeff	11 ebt    0.00000    0.00000    0.00000    0.00000    0.00000    0.00000    1.41700    1.72000  # cp,cp,cp,sf
dihedral_coeff	12 ebt    0.00000    0.00000    0.00000    0.00000    0.00000    0.00000    1.41700    1.37680  # cp,cp,oc,cp
dihedral_coeff	13 ebt    0.90000   -1.34560    1.19000    3.41320    0.58730   -0.13230    1.41700    0.96500  # cp,cp,oh,ho
dihedral_coeff	14 ebt    0.00000    0.00000    0.00000    0.00000    0.00000    0.00000    1.41700    1.72000  # cp,cp,sf,cp
dihedral_coeff	15 ebt    0.00000    0.00000    0.00000    0.00000    0.00000    0.00000    1.41700    1.43080  # cp,cp,sf,o=
dihedral_coeff	16 ebt    0.00000   -0.68900    0.00000    0.00000   -0.68900    0.00000    1.09820    1.09820  # hc,cp,cp,hc
dihedral_coeff	17 ebt    0.00000   -1.58670    0.00000    0.00000    4.26410    0.00000    1.09820    1.37680  # hc,cp,cp,oc
dihedral_coeff	18 ebt    0.00000   -1.58670    0.00000    0.00000    4.26410    0.00000    1.09820    1.37680  # hc,cp,cp,oh
dihedral_coeff	19 ebt    0.00000    0.00000    0.00000    0.00000    0.00000    0.00000    1.09820    1.72000  # hc,cp,cp,sf

# AngleTorsion Coeffs

dihedral_coeff	 1 at   -0.24540    0.00000   -0.11360    0.31130    0.45160   -0.19880  112.67000  110.77000  # c,c,c,hc
dihedral_coeff	 2 at    0.00000    0.00000    0.00000    0.00000    0.00000    0.00000  108.40000  120.05000  # c,c,cp,cp
dihedral_coeff	 3 at    0.00000   -4.46830    0.00000    0.00000    3.89870    0.00000  120.05000  118.90000  # c,cp,cp,cp
dihedral_coeff	 4 at    0.00000   -0.12420    0.00000    0.00000    3.46010    0.00000  120.05000  117.94000  # c,cp,cp,hc
dihedral_coeff	 5 at    0.00000    0.00000    0.00000    0.00000    0.00000    0.00000  108.40000  110.77000  # cp,c,c,hc
dihedral_coeff	 6 at    0.00000    0.00000    0.00000    0.00000    0.00000    0.00000  111.00000  120.05000  # cp,c,cp,cp
dihedral_coeff	 7 at    1.97670    1.02390    0.00000    1.97670    1.02390    0.00000  118.90000  118.90000  # cp,cp,cp,cp
dihedral_coeff	 8 at    0.00000    2.50140    0.00000    0.00000    2.71470    0.00000  118.90000  117.94000  # cp,cp,cp,hc
dihedral_coeff	 9 at    0.00000   10.01550    0.00000    0.00000    1.74040    0.00000  118.90000  123.42000  # cp,cp,cp,oc
dihedral_coeff	10 at    0.00000   10.01550    0.00000    0.00000    1.74040    0.00000  118.90000  123.42000  # cp,cp,cp,oh
dihedral_coeff	11 at    0.00000    0.00000    0.00000    0.00000    0.00000    0.00000  118.90000  120.00000  # cp,cp,cp,sf
dihedral_coeff	12 at    0.00000    0.00000    0.00000    0.00000    0.00000    0.00000  123.42000  109.50000  # cp,cp,oc,cp
dihedral_coeff	13 at   -5.13600   -1.01220    0.00000    4.68520    0.02300   -0.59800  123.42000  108.19000  # cp,cp,oh,ho
dihedral_coeff	14 at    0.00000    0.00000    0.00000    0.00000    0.00000    0.00000  120.00000  102.00000  # cp,cp,sf,cp
dihedral_coeff	15 at    0.00000    0.00000    0.00000    0.00000    0.00000    0.00000  120.00000  113.10000  # cp,cp,sf,o=
dihedral_coeff	16 at    0.00000    2.45010    0.00000    0.00000    2.45010    0.00000  117.94000  117.94000  # hc,cp,cp,hc
dihedral_coeff	17 at    0.00000    1.87290    0.00000    0.00000    2.57060    0.00000  117.94000  123.42000  # hc,cp,cp,oc
dihedral_coeff	18 at    0.00000    1.87290    0.00000    0.00000    2.57060    0.00000  117.94000  123.42000  # hc,cp,cp,oh
dihedral_coeff	19 at    0.00000    0.00000    0.00000    0.00000    0.00000    0.00000  117.94000  120.00000  # hc,cp,cp,sf

# AngleAngleTorsion Coeffs

dihedral_coeff	 1 aat  -16.16400  112.67000  110.77000  # c,c,c,hc
dihedral_coeff	 2 aat    0.00000  108.40000  120.05000  # c,c,cp,cp
dihedral_coeff	 3 aat  -14.40970  120.05000  118.90000  # c,cp,cp,cp
dihedral_coeff	 4 aat    4.44440  120.05000  117.94000  # c,cp,cp,hc
dihedral_coeff	 5 aat    0.00000  108.40000  110.77000  # cp,c,c,hc
dihedral_coeff	 6 aat    0.00000  111.00000  120.05000  # cp,c,cp,cp
dihedral_coeff	 7 aat    0.00000  118.90000  118.90000  # cp,cp,cp,cp
dihedral_coeff	 8 aat   -4.81410  118.90000  117.94000  # cp,cp,cp,hc
dihedral_coeff	 9 aat  -21.02470  118.90000  123.42000  # cp,cp,cp,oc
dihedral_coeff	10 aat  -21.02470  118.90000  123.42000  # cp,cp,cp,oh
dihedral_coeff	11 aat    0.00000  118.90000  120.00000  # cp,cp,cp,sf
dihedral_coeff	12 aat    0.00000  123.42000  109.50000  # cp,cp,oc,cp
dihedral_coeff	13 aat   -4.60720  123.42000  108.19000  # cp,cp,oh,ho
dihedral_coeff	14 aat    0.00000  120.00000  102.00000  # cp,cp,sf,cp
dihedral_coeff	15 aat    0.00000  120.00000  113.10000  # cp,cp,sf,o=
dihedral_coeff	16 aat    0.35980  117.94000  117.94000  # hc,cp,cp,hc
dihedral_coeff	17 aat    4.22960  117.94000  123.42000  # hc,cp,cp,oc
dihedral_coeff	18 aat    4.22960  117.94000  123.42000  # hc,cp,cp,oh
dihedral_coeff	19 aat    0.00000  117.94000  120.00000  # hc,cp,cp,sf

# BondBond13 Coeffs

dihedral_coeff	 1 bb13    0.00000    1.53000    1.10100  # c,c,c,hc
dihedral_coeff	 2 bb13    0.00000    1.53000    1.41700  # c,c,cp,cp
dihedral_coeff	 3 bb13    2.50850    1.50100    1.41700  # c,cp,cp,cp
dihedral_coeff	 4 bb13    0.87430    1.50100    1.09820  # c,cp,cp,hc
dihedral_coeff	 5 bb13    0.00000    1.50100    1.10100  # cp,c,c,hc
dihedral_coeff	 6 bb13    0.00000    1.50100    1.41700  # cp,c,cp,cp
dihedral_coeff	 7 bb13   53.00000    1.41700    1.41700  # cp,cp,cp,cp
dihedral_coeff	 8 bb13   -6.27410    1.41700    1.09820  # cp,cp,cp,hc
dihedral_coeff	 9 bb13   -2.24360    1.41700    1.37680  # cp,cp,cp,oc
dihedral_coeff	10 bb13   -2.24360    1.41700    1.37680  # cp,cp,cp,oh
dihedral_coeff	11 bb13    0.00000    1.41700    1.72000  # cp,cp,cp,sf
dihedral_coeff	12 bb13    0.00000    1.41700    1.37680  # cp,cp,oc,cp
dihedral_coeff	13 bb13    1.15900    1.41700    0.96500  # cp,cp,oh,ho
dihedral_coeff	14 bb13    0.00000    1.41700    1.72000  # cp,cp,sf,cp
dihedral_coeff	15 bb13    0.00000    1.41700    1.43080  # cp,cp,sf,o=
dihedral_coeff	16 bb13   -1.70770    1.09820    1.09820  # hc,cp,cp,hc
dihedral_coeff	17 bb13    2.05170    1.09820    1.37680  # hc,cp,cp,oc
dihedral_coeff	18 bb13    2.05170    1.09820    1.37680  # hc,cp,cp,oh
dihedral_coeff	19 bb13    0.00000    1.09820    1.72000  # hc,cp,cp,sf

# Improper Coeffs

improper_coeff	 1    0.00000    0.00000  # c,c,c,cp
improper_coeff	 2    0.00000    0.00000  # c,c,cp,cp
improper_coeff	 3    0.00000    0.00000  # c,c,hc,hc
improper_coeff	 4    0.00000    0.00000  # c,hc,hc,hc
improper_coeff	 5    7.81530    0.00000  # cp,c,cp,cp
improper_coeff	 6    4.89120    0.00000  # cp,cp,cp,hc
improper_coeff	 7   13.04210    0.00000  # cp,cp,cp,oc
improper_coeff	 8   13.04210    0.00000  # cp,cp,cp,oh
improper_coeff	 9    0.00000    0.00000  # cp,cp,cp,sf
improper_coeff	10    0.00000    0.00000  # sf,cp,cp,o=
improper_coeff	11    0.00000    0.00000  # sf,cp,o=,o=

# AngleAngle Coeffs

improper_coeff	 1 aa    0.00000    0.00000    0.00000  112.67000  108.40000  108.40000  # c,c,c,cp
improper_coeff	 2 aa    0.00000    0.00000    0.00000  108.40000  108.40000  111.00000  # c,c,cp,cp
improper_coeff	 3 aa    0.27380   -0.48250    0.27380  110.77000  110.77000  107.66000  # c,c,hc,hc
improper_coeff	 4 aa   -0.31570   -0.31570   -0.31570  107.66000  107.66000  107.66000  # c,hc,hc,hc
improper_coeff	 5 aa    0.00000    0.00000    0.00000  120.05000  120.05000  118.90000  # cp,c,cp,cp
improper_coeff	 6 aa    0.00000    0.00000    0.00000  118.90000  117.94000  117.94000  # cp,cp,cp,hc
improper_coeff	 7 aa    0.00000    0.00000    0.00000  118.90000  123.42000  123.42000  # cp,cp,cp,oc
improper_coeff	 8 aa    0.00000    0.00000    0.00000  118.90000  123.42000  123.42000  # cp,cp,cp,oh
improper_coeff	 9 aa    0.00000    0.00000    0.00000  118.90000  120.00000  120.00000  # cp,cp,cp,sf
improper_coeff	10 aa    0.00000    0.00000    0.00000  102.00000  113.10000  113.10000  # sf,cp,cp,o=
improper_coeff	11 aa    0.00000    0.00000    0.00000  113.10000  113.10000  119.32900  # sf,cp,o=,o=


# --- Thermo Output ---
thermo_style custom step time temp press enthalpy etotal ke pe ebond eangle edihed eimp evdwl ecoul elong etail vol lx ly lz density pxx pyy pzz
thermo_modify flush yes
thermo 1000

# --- Trajectory ---
dump dump_nvt all custom 1000 nvt_production.dump id type mol x y z ix iy iz vx vy vz

# --- Restart Checkpointing ---
# No restart checkpointing

# --- Initial Velocities (optional) ---
# Velocities read from data file

# --- SHAKE Constraints ---
# Constrains H-X bonds to allow 2fs timestep
# SHAKE disabled

# --- NVT Thermostat (Nose-Hoover) ---
# T_damp = 100.0 fs  (coupling timescale for heat exchange)
# Ramp: 700.0 K -> 700.0 K over 2000000 steps
timestep 1.0
fix nvt_fix all nvt temp 700.0 700.0 100.0

run 2000000
PPPM Kokkos initialization ...
  using 12-bit tables for long-range coulomb
  G vector (1/distance) = 0.29792447
  grid = 36 36 36
  stencil order = 5
  estimated absolute RMS force accuracy = 0.00033359894
  estimated relative force accuracy = 1.0046233e-06
  using double precision cuFFT
  3d grid and FFT values/proc = 79507 46656
Generated 28 of 28 mixed pair_coeff terms from sixthpower/sixthpower mixing rule
Neighbor list info ...
  update: every = 1 steps, delay = 0 steps, check = yes
  max neighbors/atom: 4000, page size: 100000
  master list distance cutoff = 11.5
  ghost atom cutoff = 11.5
  binsize = 11.5, bins = 5 5 5
  1 neighbor lists, perpetual/occasional/extra = 1 0 0
  (1) pair lj/class2/coul/long/kk, perpetual
      attributes: full, newton off, kokkos_device
      pair build: full/bin/kk/device
      stencil: full/bin/3d
      bin: kk/device
Per MPI rank memory allocation (min/avg/max) = 60.9 | 60.9 | 60.9 Mbytes
   Step          Time           Temp          Press         Enthalpy        TotEng         KinEng         PotEng         E_bond        E_angle        E_dihed        E_impro         E_vdwl         E_coul         E_long         E_tail         Volume           Lx             Ly             Lz          Density          Pxx            Pyy            Pzz      
         0   0              707.02494      217.72239      52437.617      51981.066      22792.689      29188.377      9673.8776      9001.2593      7030.3283      899.60029      1530.7674      8075.1125     -7022.5685     -760.44645      143784.07      52.388615      52.388615      52.388615      1.0223462     -572.44332      404.35379      821.25672    
      1000   1000           690.50834      178.51248      51984.798      51610.467      22260.235      29350.232      9853.1621      8989.6255      7027.6229      859.18499      1548.1097      8096.56       -7024.0335     -760.44645      143784.07      52.388615      52.388615      52.388615      1.0223462      581.39888     -128.15697      82.295534    
      2000   2000           695.47961      780.6041       53571.079      51934.197      22420.497      29513.7        9792.1246      8788.507       7261.3767      917.0984       1692.8241      8082.4568     -7020.6872     -760.44645      143784.07      52.388615      52.388615      52.388615      1.0223462      2342.6425      881.00635     -881.83653    
      3000   3000           704.53562      1030.1522      54167.533      52007.363      22712.439      29294.923      9713.6216      8978.2342      7104.8657      845.93255      1583.7395      8089.1688     -7020.6391     -760.44645      143784.07      52.388615      52.388615      52.388615      1.0223462      1990.5003     -449.93089      1549.8871    
      4000   4000           701.42745     -114.83658      51577.101      51817.907      22612.24       29205.667      9766.0179      8936.5218      7101.0592      879.1535       1464.3254      8080.8051     -7022.2157     -760.44645      143784.07      52.388615      52.388615      52.388615      1.0223462      763.63153      91.989077     -1200.1303    
      5000   5000           701.52552     -680.01749      50691.657      52117.615      22615.401      29502.214      9826.7874      8994.7416      7228.3888      894.81763      1481.187       8096.7443     -7020.4529     -760.44645      143784.07      52.388615      52.388615      52.388615      1.0223462     -411.04783     -915.64806     -713.35658    
      6000   6000           695.50009      404.66903      52317.915      51469.347      22421.157      29048.19       9587.2363      9035.1592      6975.5904      882.57093      1499.3946      8091.5346     -7023.2963     -760.44645      143784.07      52.388615      52.388615      52.388615      1.0223462      2118.3165     -989.73325      85.423784    
      7000   7000           699.15124      922.78534      53229.465      51294.437      22538.861      28755.576      9624.0199      8668.9094      6950.8806      906.61077      1508.4201      8107.1049     -7010.3693     -760.44645      143784.07      52.388615      52.388615      52.388615      1.0223462      918.22324      1035.6613      814.47142    
      8000   8000           696.04488     -1367.0218      48836.517      51703.084      22438.719      29264.365      9709.1642      8858.4469      7189.7201      921.16516      1509.1554      8102.1086     -7025.3959     -760.44645      143784.07      52.388615      52.388615      52.388615      1.0223462     -2707.7331      91.57743      -1484.9097    
      9000   9000           709.31136      457.13926      53079.26       52120.665      22866.397      29254.268      9881.4816      8912.7161      6930.7436      900.24528      1557.7148      8089.5036     -7018.1367     -760.44645      143784.07      52.388615      52.388615      52.388615      1.0223462     -148.68409      154.51055      1365.5913    
     10000   10000          699.79223     -912.31895      49488.722      51401.803      22559.525      28842.279      9633.1365      8903.7396      6875.7022      846.48866      1534.0371      8074.3254     -7025.1508     -760.44645      143784.07      52.388615      52.388615      52.388615      1.0223462     -1497.2277     -635.55441     -604.17472    
     11000   11000          699.7383       297.29326      52377.35       51753.943      22557.786      29196.157      9779.9106      9010.54        6949.0104      891.81015      1500.4233      8096.0959     -7031.6333     -760.44645      143784.07      52.388615      52.388615      52.388615      1.0223462      601.92167      206.01611      83.942011    
     12000   12000          695.48393      1352.2348      54145.211      51309.652      22420.636      28889.016      9664.8242      8773.6355      6932.495       893.77984      1560.2301      8094.6048     -7030.5534     -760.44645      143784.07      52.388615      52.388615      52.388615      1.0223462      2708.5775      672.52025      675.60652    
     13000   13000          702.04589     -6.8327911      51681.164      51695.492      22632.177      29063.316      9618.4246      8836.4027      7023.811       897.71647      1607.3326      8102.3451     -7022.7169     -760.44645      143784.07      52.388615      52.388615      52.388615      1.0223462     -576.48059      1043.5356     -487.5534     
     14000   14000          708.21658     -66.098751      51819.997      51958.602      22831.104      29127.498      9625.6693      8940.29        7155.6721      857.82965      1491.1424      8077.2501     -7020.3553     -760.44645      143784.07      52.388615      52.388615      52.388615      1.0223462      216.05571     -802.43992      388.08795    
     15000   15000          690.71798     -329.38053      50872.501      51563.193      22266.994      29296.2        9761.7496      8945.0534      7013.5685      884.22363      1628.2331      8083.9812     -7020.6097     -760.44645      143784.07      52.388615      52.388615      52.388615      1.0223462     -734.02538      75.549744     -329.66594    
     16000   16000          698.27629      799.72204      53573.632      51896.661      22510.654      29386.006      9814.8         8891.292       7017.2219      906.1056       1679.2032      8095.0263     -7017.6428     -760.44645      143784.07      52.388615      52.388615      52.388615      1.0223462     -81.094215      789.83446      1690.4259    
     17000   17000          695.6486       387.95683      52496.501      51682.977      22425.944      29257.033      9574.4638      9027.4365      7079.9883      895.21858      1603.2999      8098.7815     -7022.1558     -760.44645      143784.07      52.388615      52.388615      52.388615      1.0223462      283.23718      1491.7251     -611.09185    
     18000   18000          706.80453     -660.67724      50713.776      52099.179      22785.583      29313.596      9722.6841      8998.2211      7203.869       883.15137      1448.836       8080.0438     -7023.2098     -760.44645      143784.07      52.388615      52.388615      52.388615      1.0223462     -1083.7306     -714.0868      -184.21434    
     19000   19000          692.43321     -243.20522      51001.023      51511.01       22322.288      29188.722      9809.7997      8824.4294      7189.6585      871.56508      1415.2123      8099.9652     -7021.9081     -760.44645      143784.07      52.388615      52.388615      52.388615      1.0223462     -1991.9076      2124.4598     -862.16789    
     20000   20000          702.41375      640.9698       53055.02       51710.943      22644.036      29066.908      9895.299       8726.0648      6996.7911      873.99243      1509.3305      8088.0881     -7022.6584     -760.44645      143784.07      52.388615      52.388615      52.388615      1.0223462      1631.8879      657.65801     -366.63654    
     21000   21000          703.40033      395.52723      52789.788      51960.39       22675.841      29284.55       9753.174       8958.844       7068.7787      930.73942      1514.5505      8087.3584     -7028.8954     -760.44645      143784.07      52.388615      52.388615      52.388615      1.0223462      638.07811     -140.32277      688.82635    
     22000   22000          699.43509     -882.3765       49487.913      51338.206      22548.011      28790.195      9639.3153      8624.6628      7132.349       887.0735       1436.3988      8087.2321     -7016.8368     -760.44645      143784.07      52.388615      52.388615      52.388615      1.0223462     -1536.9816     -73.78676      -1036.3611    
     23000   23000          697.95324     -736.77781      50237.696      51782.677      22500.24       29282.437      9850.4314      8823.5752      7127.968       884.05285      1540.5519      8080.8531     -7024.9952     -760.44645      143784.07      52.388615      52.388615      52.388615      1.0223462     -379.01115     -560.56541     -1270.7569    
     24000   24000          696.91499     -473.74693      50611.914      51605.334      22466.77       29138.565      9746.255       8820.7259      7077.5213      888.26259      1540.3229      8086.551      -7021.0742     -760.44645      143784.07      52.388615      52.388615      52.388615      1.0223462     -740.59631      534.2945      -1214.939     
     25000   25000          702.80802     -638.68643      50450.293      51789.583      22656.746      29132.837      9694.8747      8968.0226      7124.5181      891.68265      1405.7922      8072.711      -7024.7646     -760.44645      143784.07      52.388615      52.388615      52.388615      1.0223462     -699.13487     -1433.5069      216.58244    
     26000   26000          705.63376     -1357.2561      49050.664      51896.753      22747.841      29148.912      9858.0332      8821.1308      7115.5069      886.63675      1417.2745      8080.0437     -7029.7137     -760.44645      143784.07      52.388615      52.388615      52.388615      1.0223462     -1800.9177      442.6313      -2713.4818    
     27000   27000          704.69809      520.80253      52736.792      51644.699      22717.677      28927.022      9683.3596      8787.1302      7014.4864      877.13368      1490.0545      8102.2965     -7027.4387     -760.44645      143784.07      52.388615      52.388615      52.388615      1.0223462      1017.1078      446.69113      98.608643    
     28000   28000          694.8445      -1828.2953      47809.027      51642.858      22400.022      29242.836      9860.1492      8889.4187      7198.6959      897.98749      1330.2266      8093.8163     -7027.4585     -760.44645      143784.07      52.388615      52.388615      52.388615      1.0223462     -2118.4324     -184.73142     -3181.722     
     29000   29000          707.86358      1087.5772      54414.935      52134.347      22819.724      29314.623      9960.9571      9118.0952      6815.5127      875.89375      1477.8624      8089.3451     -7023.0431     -760.44645      143784.07      52.388615      52.388615      52.388615      1.0223462      86.92092       1913.0311      1262.7795    
     30000   30000          694.15854     -366.67417      50642.966      51411.86       22377.909      29033.952      9615.3118      8962.5949      7084.0114      864.39651      1456.0782      8079.3351     -7027.7761     -760.44645      143784.07      52.388615      52.388615      52.388615      1.0223462     -107.93494      149.0311      -1141.1187    
     31000   31000          702.72685      341.59019      52761.966      52045.671      22654.129      29391.542      9979.7445      9098.7111      6874.9726      906.01988      1466.9467      8089.2251     -7024.0778     -760.44645      143784.07      52.388615      52.388615      52.388615      1.0223462      768.93415      826.73567     -570.89923    
     32000   32000          695.90413     -91.643549      51505.25       51697.422      22434.182      29263.24       9795.9255      8944.5197      7052.1079      910.13882      1487.841       8098.1165     -7025.4098     -760.44645      143784.07      52.388615      52.388615      52.388615      1.0223462     -1826.2719     -506.03198      2057.3732    
     33000   33000          693.03505     -995.88173      49033.714      51122.022      22341.69       28780.331      9419.9557      8734.3166      7182.0989      888.5163       1511.259       8071.3556     -7027.1708     -760.44645      143784.07      52.388615      52.388615      52.388615      1.0223462      135.53322     -1246.1962     -1876.9822    
     34000   34000          704.06047     -466.96378      50853.113      51832.309      22697.122      29135.187      9686.9813      8858.8402      7164.2329      885.41625      1476.3831      8089.0665     -7025.7331     -760.44645      143784.07      52.388615      52.388615      52.388615      1.0223462     -390.54976      1125.5463     -2135.8879    
     35000   35000          693.65966     -942.24663      49226.605      51202.442      22361.826      28840.616      9662.0217      8906.4203      6916.6967      874.35377      1447.9216      8062.0227     -7028.8206     -760.44645      143784.07      52.388615      52.388615      52.388615      1.0223462      343.49382     -1079.0777     -2091.156     
     36000   36000          697.33676      912.63354      53617.003      51703.262      22480.366      29222.896      9830.0828      8834.2766      7081.1052      901.43373      1503.6232      8093.6794     -7021.305      -760.44645      143784.07      52.388615      52.388615      52.388615      1.0223462      1167.2686      1996.1333     -425.50124    
     37000   37000          706.06049     -275.16841      51291.338      51868.35       22761.597      29106.753      9764.321       8827.5639      7107.1056      894.72436      1443.2808      8093.3182     -7023.561      -760.44645      143784.07      52.388615      52.388615      52.388615      1.0223462      283.73004     -1724.9426      615.70734    
     38000   38000          700.31421      375.74425      52538.317      51750.402      22576.352      29174.051      9802.2399      8690.819       7017.8758      870.6475       1704.384       8117.8951     -7029.8107     -760.44645      143784.07      52.388615      52.388615      52.388615      1.0223462      397.96132     -731.05817      1460.3296    
     39000   39000          692.10485      165.22435      51750.62       51404.154      22311.703      29092.452      9791.537       8902.3562      7009.4245      850.68375      1437.7439      8120.7249     -7020.0187     -760.44645      143784.07      52.388615      52.388615      52.388615      1.0223462     -888.30958     -1514.561       2898.5436    
     40000   40000          703.97942      141.30026      52089.522      51793.223      22694.509      29098.714      9825.7508      8844.7715      7038.613       868.42234      1454.0696      8089.6477     -7022.5608     -760.44645      143784.07      52.388615      52.388615      52.388615      1.0223462      7.835633      -249.08713      665.15229    
     41000   41000          696.55839      851.08804      53479.77       51695.086      22455.274      29239.813      9771.245       9031.2751      6942.8076      870.59337      1550.0453      8102.5714     -7028.725      -760.44645      143784.07      52.388615      52.388615      52.388615      1.0223462     -292.80761      1643.428       1202.6438    
     42000   42000          693.8441       119.12457      51975.985      51726.187      22367.772      29358.416      9891.6063      8795.9011      7185.8804      874.75507      1560.0737      8077.8602     -7027.6612     -760.44645      143784.07      52.388615      52.388615      52.388615      1.0223462     -1064.4541      738.16159      683.66621    
     43000   43000          696.29198     -1656.4295      48239.735      51713.173      22446.685      29266.488      9797.2477      8874.3949      7133.5307      871.41551      1504.0977      8110.9497     -7025.1481     -760.44645      143784.07      52.388615      52.388615      52.388615      1.0223462     -1316.1791     -2201.4358     -1451.6736    
     44000   44000          689.22109     -164.53442      50792.114      51137.133      22218.738      28918.395      9694.8323      8849.8701      6921.378       867.41818      1518.5313      8091.7687     -7025.4034     -760.44645      143784.07      52.388615      52.388615      52.388615      1.0223462     -768.13477     -654.72005      929.25157    
     45000   45000          695.29631      1324.2386      54449.188      51672.336      22414.587      29257.748      9707.7813      9081.466       6908.1206      901.74678      1577.1407      8108.7864     -7027.2938     -760.44645      143784.07      52.388615      52.388615      52.388615      1.0223462      1464.2304      1132.6794      1375.8059    
     46000   46000          695.71848     -395.01346      50682.969      51511.29       22428.197      29083.092      9900.5669      8820.3628      6952.6634      839.93446      1491.1035      8104.1792     -7025.7178     -760.44645      143784.07      52.388615      52.388615      52.388615      1.0223462      181.02272     -134.66922     -1231.3939    
     47000   47000          691.91493      478.92999      52151.814      51147.525      22305.58       28841.945      9704.6591      8803.4328      6937.2675      856.44557      1441.6192      8118.5563     -7020.0353     -760.44645      143784.07      52.388615      52.388615      52.388615      1.0223462     -10.290372      2.3245779      1444.7558    
     48000   48000          706.68789     -241.40382      51119.49       51625.7        22781.823      28843.877      9755.7022      8899.3219      6800.6291      853.50074      1453.9804      8101.6138     -7020.8708     -760.44645      143784.07      52.388615      52.388615      52.388615      1.0223462      1218.1771     -1818.2541     -124.13448    
     49000   49000          697.91024     -98.834635      51442.135      51649.385      22498.854      29150.531      9912.9431      8842.4428      6916.1292      867.72979      1536.1084      8095.3838     -7020.2057     -760.44645      143784.07      52.388615      52.388615      52.388615      1.0223462      741.98631     -716.82538     -321.66483    
     50000   50000          695.63938     -131.66964      51107.881      51383.985      22425.647      28958.337      9781.0753      8974.0892      6734.2848      846.65102      1526.9123      8117.6509     -7022.3262     -760.44645      143784.07      52.388615      52.388615      52.388615      1.0223462     -1791.9842     -261.10425      1658.0795    
     51000   51000          707.80717      1168.2147      54299.549      51849.87       22817.906      29031.964      9716.6012      8714.2059      7096.5783      895.91509      1538.4595      8090.1607     -7019.9571     -760.44645      143784.07      52.388615      52.388615      52.388615      1.0223462      2943.1276     -31.97849       593.49496    
     52000   52000          703.38365      66.882038      51757.282      51617.034      22675.303      28941.731      9703.0503      8969.6021      6916.1662      836.84467      1427.5478      8107.1851     -7018.6653     -760.44645      143784.07      52.388615      52.388615      52.388615      1.0223462      425.89377     -39.145794     -186.10187    
     53000   53000          698.72615     -1539.6311      48576.604      51805.123      22525.157      29279.966      9741.3159      8865.8469      7268.3657      897.5084       1449.4709      8082.7345     -7025.2764     -760.44645      143784.07      52.388615      52.388615      52.388615      1.0223462     -465.49776     -1131.6957     -3021.7       
     54000   54000          702.04123      141.69712      52061.101      51763.97       22632.026      29131.944      9610.0743      8853.6024      7174.6834      871.142        1559.4421      8087.1783     -7024.1785     -760.44645      143784.07      52.388615      52.388615      52.388615      1.0223462      106.54131     -757.36599      1075.916     
     55000   55000          706.95205      1386.7233      54517.103      51609.223      22790.339      28818.884      9514.579       8954.2428      6894.4485      867.70844      1530.9496      8083.5651     -7026.6099     -760.44645      143784.07      52.388615      52.388615      52.388615      1.0223462      2793.5468      1217.0373      149.5859     
     56000   56000          699.79939      222.51548      52073.92       51607.318      22559.755      29047.562      9757.5164      8754.2259      6997.0815      855.19045      1611.6454      8094.4092     -7022.5065     -760.44645      143784.07      52.388615      52.388615      52.388615      1.0223462     -101.00215     -285.33599      1053.8846    
     57000   57000          699.57042      694.39105      52743.54       51287.442      22552.374      28735.068      9536.1851      8705.0624      7025.2078      874.59481      1517.2203      8100.981      -7024.1835     -760.44645      143784.07      52.388615      52.388615      52.388615      1.0223462      397.48527      803.40442      882.28346    
     58000   58000          706.09731      234.12919      52148.443      51657.487      22762.784      28894.703      9627.7606      8890.0067      6969.88        868.68141      1458.8696      8101.8553     -7022.351      -760.44645      143784.07      52.388615      52.388615      52.388615      1.0223462     -105.80666      714.20179      93.992426    
     59000   59000          696.38158      515.48334      52446.185      51365.245      22449.574      28915.672      9769.0708      8988.1033      6826.0899      865.3826       1394.3893      8094.6148     -7021.9791     -760.44645      143784.07      52.388615      52.388615      52.388615      1.0223462      90.562462      165.6412       1290.2464    
     60000   60000          700.89805      190.43697      51983.85       51584.515      22595.173      28989.342      9638.8089      8936.281       6950.7716      900.00539      1496.5291      8093.0226     -7026.077      -760.44645      143784.07      52.388615      52.388615      52.388615      1.0223462      100.3894      -282.58845      753.50998    
     61000   61000          702.81798      258.73749      52351.024      51808.466      22657.067      29151.399      9602.533       8926.0228      7139.8135      899.20717      1514.123       8093.4308     -7023.7309     -760.44645      143784.07      52.388615      52.388615      52.388615      1.0223462     -1250.2501      458.17175      1568.2908    
     62000   62000          693.63816     -925.62766      49378.02       51319.008      22361.133      28957.875      9417.42        8972.3296      7122.4314      882.72653      1475.0661      8103.5598     -7015.6583     -760.44645      143784.07      52.388615      52.388615      52.388615      1.0223462     -1095.503       467.27182     -2148.6518    
     63000   63000          701.22247     -841.81795      50034.038      51799.282      22605.632      29193.651      9897.7129      8747.6665      7024.5608      899.03693      1565.0326      8079.9315     -7020.2906     -760.44645      143784.07      52.388615      52.388615      52.388615      1.0223462     -1614.6553     -353.0164      -557.7822     
     64000   64000          696.89155     -493.04409      50599.101      51632.986      22466.014      29166.973      9724.3347      8818.2923      7126.6698      837.46965      1596.6354      8086.2779     -7022.7072     -760.44645      143784.07      52.388615      52.388615      52.388615      1.0223462     -732.39134     -1794.2631      1047.5222    
     65000   65000          695.77542     -766.37043      49896.775      51503.811      22430.033      29073.778      9715.3581      8849.9491      7129.6032      881.96444      1419.2924      8101.5183     -7023.9076     -760.44645      143784.07      52.388615      52.388615      52.388615      1.0223462     -1279.5596     -473.40277     -546.14893    
     66000   66000          703.45423     -243.79816      51474.545      51985.776      22677.578      29308.198      9738.5472      9065.825       6965.1687      862.78432      1595.6732      8097.5868     -7017.3871     -760.44645      143784.07      52.388615      52.388615      52.388615      1.0223462     -556.93554      824.72199     -999.18093    
     67000   67000          696.81333     -2097.5503      47133.846      51532.29       22463.492      29068.798      9631.5895      8779.3918      7243.4997      879.4582       1472.7523      8087.199      -7025.0929     -760.44645      143784.07      52.388615      52.388615      52.388615      1.0223462     -1137.8321     -4072.7847     -1082.0341    
     68000   68000          704.81471     -850.66093      50093.028      51876.815      22721.437      29155.379      9718.2775      8947.5595      7127.6689      885.98892      1377.8523      8121.6563     -7023.6248     -760.44645      143784.07      52.388615      52.388615      52.388615      1.0223462     -1241.9535     -823.87064     -486.15861    
     69000   69000          703.81385     -441.92514      50550.37       51477.062      22689.171      28787.891      9708.6444      8775.4245      6953.8799      868.8599       1413.3878      8095.8098     -7028.1153     -760.44645      143784.07      52.388615      52.388615      52.388615      1.0223462      566.43136     -910.03764     -982.16914    
     70000   70000          697.78685     -735.37129      50312.752      51854.784      22494.876      29359.908      9848.0133      8828.8635      7249.5841      898.82214      1461.5158      8098.2175     -7025.1088     -760.44645      143784.07      52.388615      52.388615      52.388615      1.0223462     -1379.288      -570.50332     -256.32252    
     71000   71000          703.52169     -158.51101      51519.91       51852.298      22679.753      29172.545      9793.7119      8828.7921      6991.5547      886.78932      1596.3438      8098.3863     -7023.0326     -760.44645      143784.07      52.388615      52.388615      52.388615      1.0223462      814.84162      124.069       -1414.4436    
     72000   72000          694.90588     -51.990512      51335.429      51444.45       22402.001      29042.45       9561.8088      8810.5947      7219.744       874.41615      1502.1574      8093.5799     -7019.8514     -760.44645      143784.07      52.388615      52.388615      52.388615      1.0223462      296.27597     -1010.7271      558.47963    
     73000   73000          699.56843     -1735.4051      47854.476      51493.522      22552.31       28941.212      9650.3264      8751.2567      7094.443       879.69661      1500.5816      8084.0423     -7019.1343     -760.44645      143784.07      52.388615      52.388615      52.388615      1.0223462     -2505.0399     -1870.7231     -830.45222    
     74000   74000          695.75243     -613.41479      49957.595      51243.891      22429.292      28814.599      9655.9946      8793.9927      6987.4719      868.71676      1443.3391      8085.0561     -7019.9719     -760.44645      143784.07      52.388615      52.388615      52.388615      1.0223462     -778.84749     -1154.0765      92.679637    
     75000   75000          706.65193     -161.48579      51634.997      51973.624      22780.664      29192.96       9759.9489      8973.1514      7030.9469      901.08368      1443.0636      8106.0302     -7021.2644     -760.44645      143784.07      52.388615      52.388615      52.388615      1.0223462      1856.0739     -2598.8822      258.35091    
     76000   76000          701.38317     -904.70243      49834.06       51731.169      22610.812      29120.357      9608.9413      8924.2759      7136.7351      870.82385      1526.735       8074.3086     -7021.4628     -760.44645      143784.07      52.388615      52.388615      52.388615      1.0223462     -1528.7907     -273.75069     -911.56589    
     77000   77000          702.22769      1360.6159      54393.175      51540.041      22638.037      28902.003      9618.054       8861.8037      6922.3947      849.4777       1573.7721      8095.8781     -7019.377      -760.44645      143784.07      52.388615      52.388615      52.388615      1.0223462      166.21829      3226.2565      689.37288    
     78000   78000          701.06954      1616.9893      54972.073      51581.338      22600.702      28980.637      9685.3446      8835.0431      6931.3961      879.38136      1578.5785      8090.9711     -7020.0782     -760.44645      143784.07      52.388615      52.388615      52.388615      1.0223462      1703.1277      1689.3483      1458.4918    
     79000   79000          685.72238     -33.268272      51105.298      51175.06       22105.948      29069.111      9635.8764      8775.6922      7150.3468      902.88933      1514.1992      8108.0728     -7017.9657     -760.44645      143784.07      52.388615      52.388615      52.388615      1.0223462      1250.3953     -1330.1593     -20.040864    
     80000   80000          702.44174     -955.40705      50049.9        52053.334      22644.938      29408.396      9959.1121      8949.749       7080.1918      883.94349      1451.1514      8107.7079     -7023.4593     -760.44645      143784.07      52.388615      52.388615      52.388615      1.0223462     -1190.315      -1216.815      -459.09117    
     81000   81000          702.43198     -6.9221809      51891.248      51905.763      22644.623      29261.14       9753.0912      8896.1515      7140.2919      893.61736      1489.2157      8109.6038     -7020.8314     -760.44645      143784.07      52.388615      52.388615      52.388615      1.0223462     -700.13291     -210.48425      889.85061    
     82000   82000          690.02687     -1241.6066      48720.06       51323.639      22244.714      29078.925      9706.225       8853.1318      7131.8345      896.89893      1428.9125      8081.8724     -7019.9507     -760.44645      143784.07      52.388615      52.388615      52.388615      1.0223462     -2398.4157     -971.1461      -355.25812    
     83000   83000          701.29862      657.68249      52932.728      51553.606      22608.087      28945.519      9899.3067      8866.8536      6873.7751      850.11007      1371.3304      8100.9505     -7016.8075     -760.44645      143784.07      52.388615      52.388615      52.388615      1.0223462     -241.95883      904.25314      1310.7532    
     84000   84000          696.7065      -562.23342      50575.194      51754.166      22460.049      29294.117      9726.4518      8959.3709      7062.8586      884.01606      1587.9119      8093.6516     -7020.1435     -760.44645      143784.07      52.388615      52.388615      52.388615      1.0223462     -766.87499     -304.49687     -615.3284     
     85000   85000          702.37314     -1459.1918      48785.915      51845.757      22642.726      29203.031      9779.2461      8773.9453      7225.1861      906.68416      1446.4666      8099.8035     -7028.3008     -760.44645      143784.07      52.388615      52.388615      52.388615      1.0223462     -1428.5189     -1766.0257     -1183.0308    
     86000   86000          695.73773     -490.01879      50284.799      51312.34       22428.818      28883.522      9654.3351      8847.3929      6998.576       874.18102      1425.7826      8105.2605     -7022.0056     -760.44645      143784.07      52.388615      52.388615      52.388615      1.0223462     -826.43871     -2175.4704      1531.8528    
     87000   87000          694.47226      832.33423      53295.222      51549.865      22388.022      29161.843      9796.7329      8927.1214      6901.0019      873.42322      1604.115       8081.1597     -7021.7115     -760.44645      143784.07      52.388615      52.388615      52.388615      1.0223462      686.13302      247.0598       1563.8099    
     88000   88000          701.04302     -602.76074      50515.271      51779.226      22599.847      29179.379      9730.5228      8919.7469      7083.4814      874.53273      1519.2489      8075.0318     -7023.1859     -760.44645      143784.07      52.388615      52.388615      52.388615      1.0223462      709.61179     -1512.351      -1005.543     
     89000   89000          703.16604     -847.17168      49724.734      51501.205      22668.287      28832.918      9703.6426      8833.3713      6858.3716      836.03526      1523.01        8097.0417     -7018.5547     -760.44645      143784.07      52.388615      52.388615      52.388615      1.0223462     -1778.7335      306.69521     -1069.4767    
     90000   90000          706.90317      966.51086      53538.851      51512.133      22788.763      28723.37       9544.4993      8849.2026      6865.5429      853.67685      1562.158       8073.3366     -7025.0466     -760.44645      143784.07      52.388615      52.388615      52.388615      1.0223462      319.54494      721.78245      1858.2052    
     91000   91000          702.10835      138.41333      52060.096      51769.851      22634.19       29135.661      9965.2571      8778.9416      6919.7277      873.73374      1519.5457      8095.582      -7017.127      -760.44645      143784.07      52.388615      52.388615      52.388615      1.0223462      538.8101      -1337.8547      1214.2845    
     92000   92000          699.07596      513.1071       53130.186      52054.229      22536.434      29517.795      9835.7704      9050.0982      6995.0335      873.81061      1690.0383      8097.3915     -7024.3472     -760.44645      143784.07      52.388615      52.388615      52.388615      1.0223462      616.15451     -507.78876      1430.9556    
     93000   93000          704.5778      -22.883628      51825.963      51873.948      22713.799      29160.149      9621.0927      8930.3293      7135.2673      901.85389      1487.8649      8103.0037     -7019.2627     -760.44645      143784.07      52.388615      52.388615      52.388615      1.0223462      824.18334     -520.36809     -372.46614    
     94000   94000          701.36343      836.80085      53860.06       52105.336      22610.176      29495.16       9880.5837      9027.7514      7030.3781      899.00869      1591.588       8087.6538     -7021.8033     -760.44645      143784.07      52.388615      52.388615      52.388615      1.0223462      1642.6406      1612.5494     -744.78744    
     95000   95000          701.40538      732.37877      53464.99       51929.233      22611.528      29317.705      9747.7617      8841.7009      7084.7301      906.62705      1660.8937      8101.7467     -7025.7552     -760.44645      143784.07      52.388615      52.388615      52.388615      1.0223462      885.9211       1512.8589     -201.64366    
     96000   96000          697.50686      572.12855      52736.383      51536.662      22485.85       29050.812      9540.7821      9013.3856      6956.2956      888.11124      1565.001       8105.8453     -7018.6088     -760.44645      143784.07      52.388615      52.388615      52.388615      1.0223462     -80.543796      239.92622      1557.0032    
     97000   97000          698.95731      605.21625      52727.982      51458.878      22532.609      28926.269      9569.0219      8726.9446      7105.5681      886.72477      1557.8745      8108.1774     -7028.0417     -760.44645      143784.07      52.388615      52.388615      52.388615      1.0223462      888.87923      374.11121      552.65829    
     98000   98000          710.90912     -857.90968      50451.347      52250.335      22917.905      29332.43       9774.2463      8880.481       7172.6893      909.41722      1509.0238      8113.9467     -7027.3741     -760.44645      143784.07      52.388615      52.388615      52.388615      1.0223462      569.35767     -1545.0018     -1598.0849    
     99000   99000          694.18001     -787.25227      49617.703      51268.526      22378.601      28889.926      9638.5325      8872.8798      6910.004       876.66452      1518.6463      8096.2432     -7023.0445     -760.44645      143784.07      52.388615      52.388615      52.388615      1.0223462      642.33151     -2573.6861     -430.40225    
    100000   100000         704.01134     -1731.4315      48239.231      51869.944      22695.538      29174.406      9592.5561      8843.8309      7241.7658      889.61481      1526.4841      8104.6935     -7024.5386     -760.44645      143784.07      52.388615      52.388615      52.388615      1.0223462     -2199.5988     -2451.1364     -543.55925    
    101000   101000         704.49674     -1578.1509      48631.556      51940.849      22711.186      29229.663      9660.6889      8929.317       7202.1391      875.98547      1512.7089      8073.455      -7024.6316     -760.44645      143784.07      52.388615      52.388615      52.388615      1.0223462     -3951.8105     -151.22698     -631.41524    
    102000   102000         701.72451     -469.54105      50717.159      51701.759      22621.816      29079.943      9805.4605      8965.7651      6980.9842      866.1663       1401.8476      8088.8554     -7029.136      -760.44645      143784.07      52.388615      52.388615      52.388615      1.0223462     -986.20089     -291.65682     -130.76545    
    103000   103000         699.96033     -1001.9282      49550.213      51651.2        22564.944      29086.256      9892.0284      8812.6714      6991.5268      865.30171      1447.6413      8102.4026     -7025.3162     -760.44645      143784.07      52.388615      52.388615      52.388615      1.0223462      87.709383     -1729.8553     -1363.6387    
    104000   104000         708.76838      1126.2816      54103.288      51741.539      22848.893      28892.646      9636.836       8831.1207      6945.3769      867.60217      1550.1675      8088.4074     -7026.8642     -760.44645      143784.07      52.388615      52.388615      52.388615      1.0223462      2434.528       639.00692      305.30994    
    105000   105000         702.46158     -230.65018      51328.245      51811.906      22645.577      29166.328      9830.9735      8893.1697      6955.1959      901.42455      1498.9173      8107.207      -7020.5598     -760.44645      143784.07      52.388615      52.388615      52.388615      1.0223462      331.48995     -1174.5313      151.09082    
    106000   106000         702.94782      791.0587       53353.198      51694.393      22661.253      29033.14       9748.4445      8991.352       6899.3327      864.2593       1462.7656      8090.1591     -7023.1729     -760.44645      143784.07      52.388615      52.388615      52.388615      1.0223462      701.51136      1252.2379      419.42684    
    107000   107000         703.13101      233.82051      52343.594      51853.286      22667.158      29186.127      9827.0769      8963.0398      6872.0704      858.58615      1582.7903      8110.3862     -7027.8223     -760.44645      143784.07      52.388615      52.388615      52.388615      1.0223462      1433.6345      212.10106     -944.27401    
    108000   108000         697.71214     -1052.6831      49623.03       51830.446      22492.468      29337.978      9833.3038      8935.1113      7115.1478      892.97587      1473.3755      8113.6753     -7025.6112     -760.44645      143784.07      52.388615      52.388615      52.388615      1.0223462     -1230.6986     -1118.3833     -808.96733    
    109000   109000         695.25731     -146.03605      51381.685      51687.914      22413.33       29274.584      9484.0727      9083.0211      7130.9188      891.24806      1588.9169      8121.538      -7025.1321     -760.44645      143784.07      52.388615      52.388615      52.388615      1.0223462     -186.25647      88.338508     -340.19019    
    110000   110000         701.30468     -397.62506      50555.401      51389.199      22608.282      28780.917      9607.5783      8787.7847      6938.2061      856.193        1519.3169      8103.3855     -7031.5479     -760.44645      143784.07      52.388615      52.388615      52.388615      1.0223462     -811.18996     -2139.808       1758.1228    
    111000   111000         704.37341     -223.76886      51393.356      51862.587      22707.21       29155.376      9629.454       8897.9268      7200.0287      895.67029      1451.7115      8102.1465     -7021.5614     -760.44645      143784.07      52.388615      52.388615      52.388615      1.0223462      553.33965     -1853.8673      629.22102    
    112000   112000         706.01613      1151.1019      54379.338      51965.542      22760.167      29205.375      9693.0307      9017.3437      6997.2767      878.1913       1565.0144      8080.6685     -7026.1503     -760.44645      143784.07      52.388615      52.388615      52.388615      1.0223462      1283.2421      1181.7501      988.31366    
    113000   113000         697.41182      272.25608      52152.967      51582.061      22482.786      29099.275      9705.7384      8780.1906      7125.5         871.34774      1565.2217      8079.9507     -7028.6742     -760.44645      143784.07      52.388615      52.388615      52.388615      1.0223462      336.2287      -12.141414      492.68097    
    114000   114000         693.66676      68.444963      51520.394      51376.869      22362.055      29014.814      9633.9384      8885.5712      7075.7253      891.83989      1464.264       8088.3457     -7024.87       -760.44645      143784.07      52.388615      52.388615      52.388615      1.0223462     -2719.7292      400.39751      2524.6666    
    115000   115000         703.24326     -548.79224      50261.352      51412.138      22670.777      28741.361      9483.9784      8782.8962      6993.3433      860.30399      1561.3067      8085.6071     -7026.0745     -760.44645      143784.07      52.388615      52.388615      52.388615      1.0223462      483.94992     -1121.6808     -1008.6458    
    116000   116000         702.64532     -1071.119       49563.882      51809.958      22651.501      29158.457      9751.3391      8942.0835      7007.1519      883.0741       1521.7565      8079.7098     -7026.6581     -760.44645      143784.07      52.388615      52.388615      52.388615      1.0223462     -1321.9789     -1944.1398      52.761758    
    117000   117000         698.01744     -194.07519      51046.132      51453.096      22502.31       28950.787      9640.1526      8894.386       7027.8846      875.05683      1447.4769      8091.2619     -7025.432      -760.44645      143784.07      52.388615      52.388615      52.388615      1.0223462      301.41118      202.28088     -1085.9176    
    118000   118000         704.4837       795.08169      53519.549      51852.308      22710.765      29141.542      9832.7732      8598.8729      7143.8041      867.2813       1624.7041      8096.1733     -7022.0666     -760.44645      143784.07      52.388615      52.388615      52.388615      1.0223462     -510.93303      2361.139       535.03907    
    119000   119000         695.63119     -963.14614      49598.517      51618.179      22425.383      29192.796      9739.2467      8713.9937      7214.3691      876.63735      1584.2964      8090.4615     -7026.2088     -760.44645      143784.07      52.388615      52.388615      52.388615      1.0223462      193.0339      -1628.1369     -1454.3354    
    120000   120000         706.40672     -611.2391       51030.08       52311.813      22772.759      29539.054      9798.5137      9032.6616      7210.6986      904.49499      1521.4314      8098.0694     -7026.8154     -760.44645      143784.07      52.388615      52.388615      52.388615      1.0223462     -1167.1458     -561.02734     -105.54416    
    121000   121000         698.32867      545.54475      52832.789      51688.812      22512.343      29176.469      9853.5749      8844.6777      6992.4778      872.94174      1569.7426      8071.3935     -7028.339      -760.44645      143784.07      52.388615      52.388615      52.388615      1.0223462      577.71854      1970.3472     -911.43145    
    122000   122000         705.64167      701.31946      53336.735      51866.108      22748.096      29118.013      9765.1555      9049.1309      6876.885       845.75319      1499.9038      8100.6311     -7019.4468     -760.44645      143784.07      52.388615      52.388615      52.388615      1.0223462      781.12174      1223.1427      99.69393     
    123000   123000         696.97328      288.32492      52323.537      51718.936      22468.649      29250.287      9736.1307      8977.5983      7040.3171      872.00231      1553.2539      8097.2789     -7026.2938     -760.44645      143784.07      52.388615      52.388615      52.388615      1.0223462      1491.9326     -1529.2908      902.33294    
    124000   124000         701.32074     -407.57503      51195.781      52050.442      22608.8        29441.643      9953.3466      8926.7237      7156.1403      908.0592       1402.6974      8119.3027     -7024.6273     -760.44645      143784.07      52.388615      52.388615      52.388615      1.0223462     -830.91442     -790.0462       398.23554    
    125000   125000         694.48        -3118.0674      45014.851      51553.261      22388.272      29164.989      9659.0725      8785.4182      7267.1046      886.31095      1492.2374      8101.6983     -7026.8525     -760.44645      143784.07      52.388615      52.388615      52.388615      1.0223462     -2843.4447     -1979.5043     -4531.2531    
    126000   126000         709.08075     -2205.1113      47659.084      52283.077      22858.963      29424.114      9760.9164      9141.8063      7211.9416      877.7882       1355.1001      8103.3562     -7026.7946     -760.44645      143784.07      52.388615      52.388615      52.388615      1.0223462     -2104.5914     -1560.009      -2950.7336    
    127000   127000         709.89178     -800.76945      50154.684      51833.852      22885.108      28948.744      9730.802       8926.9805      6969.1829      860.49942      1383.9481      8100.1852     -7022.8542     -760.44645      143784.07      52.388615      52.388615      52.388615      1.0223462      264.91666     -860.26283     -1806.9622    
    128000   128000         691.92823     -696.2327       49846.402      51306.362      22306.009      29000.353      9580.886       9030.4545      6990.8525      864.8405       1466.5356      8092.6312     -7025.8472     -760.44645      143784.07      52.388615      52.388615      52.388615      1.0223462      112.44136     -693.18428     -1507.9552    
    129000   129000         700.871       -1393.269       48764.414      51686.02       22594.301      29091.718      9807.7261      8881.2527      7008.894       855.33627      1471.3452      8092.18       -7025.016      -760.44645      143784.07      52.388615      52.388615      52.388615      1.0223462     -2734.6682     -230.29577     -1214.8432    
    130000   130000         700.27597      579.15429      53245.109      52030.655      22575.119      29455.537      9937.7249      8907.3642      7207.2695      884.09652      1463.8078      8082.6711     -7027.3975     -760.44645      143784.07      52.388615      52.388615      52.388615      1.0223462      302.59312      846.75907      588.11067    
    131000   131000         695.2768      -120.26878      51177.703      51429.9        22413.958      29015.942      9796.6219      8794.3602      6956.9673      896.46087      1519.4752      8075.4895     -7023.4332     -760.44645      143784.07      52.388615      52.388615      52.388615      1.0223462      145.04226     -1141.0022      635.15361    
    132000   132000         697.25529      359.77323      52379.348      51624.924      22477.74       29147.184      9724.6987      8985.8484      6978.1194      876.02655      1516.2518      8088.5812     -7022.3425     -760.44645      143784.07      52.388615      52.388615      52.388615      1.0223462      1257.3256     -840.9394       662.93347    
    133000   133000         697.88707      1366.2855      54572.246      51707.223      22498.107      29209.116      9928.0435      8938.2658      6878.0818      844.26841      1556.518       8084.518      -7020.5792     -760.44645      143784.07      52.388615      52.388615      52.388615      1.0223462      3368.7814      1005.7161     -275.64108    
    134000   134000         696.05163      441.53882      52380.022      51454.141      22438.937      29015.203      9723.1522      8827.2184      7024.1981      870.59486      1488.9262      8100.9683     -7019.8547     -760.44645      143784.07      52.388615      52.388615      52.388615      1.0223462      36.708754      1221.8413      66.066393    
    135000   135000         710.87691      231.72431      52635.257      52149.344      22916.866      29232.478      9778.8448      8973.1668      7182.2202      842.64077      1379.2455      8100.2156     -7023.8559     -760.44645      143784.07      52.388615      52.388615      52.388615      1.0223462     -335.67805     -164.57166      1195.4226    
    136000   136000         695.3398      -448.99635      50461.546      51403.066      22415.989      28987.077      9655.5846      8987.1901      6989.905       862.69805      1403.2843      8110.2523     -7021.8377     -760.44645      143784.07      52.388615      52.388615      52.388615      1.0223462     -782.36922      132.89721     -697.51703    
    137000   137000         704.50136     -685.35291      50319.282      51756.428      22711.335      29045.093      9689.3518      8749.0884      7151.5701      899.61883      1495.4354      8091.9681     -7031.9397     -760.44645      143784.07      52.388615      52.388615      52.388615      1.0223462     -1099.067       499.07224     -1456.064     
    138000   138000         707.61902     -226.06822      51341.47       51815.522      22811.84       29003.682      9505.3195      8868.2639      7192.8456      883.26478      1487.9969      8094.6818     -7028.691      -760.44645      143784.07      52.388615      52.388615      52.388615      1.0223462      1225.5141     -714.58223     -1189.1365    
    139000   139000         705.48656      416.35137      52614.194      51741.129      22743.095      28998.033      9487.5861      8771.4355      7231.7529      920.04997      1511.217       8102.2123     -7026.2203     -760.44645      143784.07      52.388615      52.388615      52.388615      1.0223462      470.71476      1455.6498     -677.31049    
    140000   140000         692.11348     -116.36302      50847.315      51091.322      22311.981      28779.341      9660.6368      8795.1755      6923.4301      870.2969       1456.3548      8096.0582     -7022.6117     -760.44645      143784.07      52.388615      52.388615      52.388615      1.0223462     -494.49481      390.23162     -244.82586    
    141000   141000         705.68678      191.29409      52041.392      51640.259      22749.55       28890.71       9505.8419      8839.2236      7052.8406      850.21013      1607.2679      8063.4856     -7028.1602     -760.44645      143784.07      52.388615      52.388615      52.388615      1.0223462      785.73474     -14.183758     -197.6687     
    142000   142000         691.72112     -490.10765      50428.991      51456.718      22299.333      29157.386      9781.8344      8787.6044      7127.8144      884.57157      1516.367       8080.9349     -7021.7408     -760.44645      143784.07      52.388615      52.388615      52.388615      1.0223462     -1235.79        57.649877     -292.1828     
    143000   143000         702.20625     -60.321549      51533.242      51659.732      22637.347      29022.386      9708.1193      8768.3554      7072.2129      853.82703      1566.8605      8085.4096     -7032.3987     -760.44645      143784.07      52.388615      52.388615      52.388615      1.0223462     -590.08774      27.770528      381.35257    
    144000   144000         697.63395     -254.01014      50802.365      51335.01       22489.947      28845.063      9514.0991      8700.4179      7096.3211      863.32588      1621.242       8076.5186     -7026.8619     -760.44645      143784.07      52.388615      52.388615      52.388615      1.0223462      304.62822     -376.40035     -690.2583     
    145000   145000         702.47842     -1226.1179      49258.249      51829.348      22646.12       29183.228      9699.587       8905.7033      7222.125       887.10338      1406.0437      8087.7893     -7025.124      -760.44645      143784.07      52.388615      52.388615      52.388615      1.0223462     -1587.6985     -1976.7473     -113.90791    
    146000   146000         698.26877     -998.68923      49526.034      51620.228      22510.412      29109.816      9955.0333      8764.0686      7046.1348      853.47487      1433.8289      8089.6958     -7032.4202     -760.44645      143784.07      52.388615      52.388615      52.388615      1.0223462     -1664.5371     -490.1218      -841.40878    
    147000   147000         698.06295      494.20351      52577.446      51541.129      22503.777      29037.352      9723.0179      8913.3546      6930.6822      874.5412       1520.2586      8102.2553     -7026.7575     -760.44645      143784.07      52.388615      52.388615      52.388615      1.0223462      1719.2484     -341.16607      104.52819    
    148000   148000         706.76143      1564.6933      55399.014      52117.941      22784.194      29333.747      9833.256       8885.1173      7055.7949      924.64551      1580.034       8081.9214     -7027.0221     -760.44645      143784.07      52.388615      52.388615      52.388615      1.0223462      426.69214      1492.1649      2775.2227    
    149000   149000         695.19163     -1397.7583      48739.679      51670.699      22411.213      29259.486      9772.3208      8863.3653      7311.9303      892.44887      1337.0551      8111.0773     -7028.7114     -760.44645      143784.07      52.388615      52.388615      52.388615      1.0223462     -2297.1656      236.94561     -2133.0548    
    150000   150000         702.56541     -1343.2921      48733.047      51549.854      22648.925      28900.929      9683.8751      8966.2341      6948.2909      859.34519      1373.4391      8095.3808     -7025.6359     -760.44645      143784.07      52.388615      52.388615      52.388615      1.0223462     -1777.5979     -2010.4997     -241.77883    
    151000   151000         701.14278      854.66337      53617.774      51825.593      22603.063      29222.53       9835.1723      8891.8082      6987.0697      899.49852      1552.5086      8087.252      -7030.7792     -760.44645      143784.07      52.388615      52.388615      52.388615      1.0223462      807.26821      1419.7391      336.9828     
    152000   152000         700.49717     -386.11088      50789.69       51599.342      22582.25       29017.093      9669.1315      8756.8417      7216.658       870.87602      1427.7554      8097.7454     -7021.9156     -760.44645      143784.07      52.388615      52.388615      52.388615      1.0223462     -210.66223     -1377.1142      429.44377    
    153000   153000         691.61378     -455.38044      50511.716      51466.623      22295.872      29170.751      9832.9064      8934.0527      7082.5453      893.32963      1360.0277      8097.0029     -7029.1133     -760.44645      143784.07      52.388615      52.388615      52.388615      1.0223462      289.39831     -457.97017     -1197.5695    
    154000   154000         701.26548     -73.649044      51528.59       51683.028      22607.018      29076.01       9761.1721      8860.077       7025.3534      853.18439      1503.666       8095.5275     -7022.9708     -760.44645      143784.07      52.388615      52.388615      52.388615      1.0223462     -1467.3793      82.594778      1163.8374    
    155000   155000         703.13766     -356.53959      50925.13       51672.773      22667.373      29005.401      9650.4419      8861.0685      7076.9902      877.54564      1459.0984      8104.8291     -7024.5731     -760.44645      143784.07      52.388615      52.388615      52.388615      1.0223462     -817.44352      1990.9578     -2243.133     
    156000   156000         699.51093      778.46107      53414.201      51781.812      22550.456      29231.356      9729.2904      8895.1847      7190.796       922.66493      1405.4452      8110.2846     -7022.3097     -760.44645      143784.07      52.388615      52.388615      52.388615      1.0223462      2052.2509     -73.909085      357.04141    
[...]
   1955000   1955000        707.00224      1333.6761      54652.89       51856.247      22791.957      29064.29       9950.9483      8716.4445      6913.7485      896.72923      1517.7091      8093.2085     -7024.4978     -760.44645      143784.07      52.388615      52.388615      52.388615      1.0223462      1657.128       1422.4472      921.45301    
   1956000   1956000        701.05955      574.5492       53087.542      51882.745      22600.38       29282.365      9756.2808      8979.0399      7066.1329      880.86479      1528.3356      8095.7342     -7024.0227     -760.44645      143784.07      52.388615      52.388615      52.388615      1.0223462     -227.45131      958.83653      992.26238    
   1957000   1957000        691.46138      317.31874      51561.747      50896.348      22290.959      28605.389      9523.6038      8880.7607      6805.8675      840.90977      1503.2193      8082.0129     -7030.9855     -760.44645      143784.07      52.388615      52.388615      52.388615      1.0223462      588.09715     -312.76302      676.62211    
   1958000   1958000        696.85344     -627.10562      50527.8        51842.805      22464.785      29378.019      9902.689       8794.7547      7200.7076      901.08156      1525.8514      8083.0271     -7030.0922     -760.44645      143784.07      52.388615      52.388615      52.388615      1.0223462      358.01554     -649.05545     -1590.277     
   1959000   1959000        696.2588       205.77489      51924.283      51492.785      22445.616      29047.169      9628.6395      8923.8343      7000.1846      864.30162      1566.8911      8093.3916     -7030.0736     -760.44645      143784.07      52.388615      52.388615      52.388615      1.0223462     -207.61739     -86.396887      911.33895    
   1960000   1960000        699.69863     -731.92542      49918.97       51453.776      22556.507      28897.269      9598.334       8808.9         7049.1623      861.40267      1503.6771      8102.1151     -7026.3224     -760.44645      143784.07      52.388615      52.388615      52.388615      1.0223462      2.9485518     -2533.2342      334.50937    
   1961000   1961000        703.62598     -245.08823      51235.204      51749.141      22683.115      29066.026      9565.1658      8763.1803      7209.7954      872.98238      1583.3879      8101.411      -7029.8972     -760.44645      143784.07      52.388615      52.388615      52.388615      1.0223462     -1590.0119      694.48413      160.26303    
   1962000   1962000        700.32539     -2019.9477      47630.389      51866.104      22576.712      29289.392      9745.4473      8991.0699      7204.0015      885.8542       1418.4961      8079.3413     -7034.8181     -760.44645      143784.07      52.388615      52.388615      52.388615      1.0223462     -1776.4726     -1762.9238     -2520.4466    
   1963000   1963000        698.42182      1182.6621      53991.335      51511.359      22515.346      28996.013      9579.1414      8909.5927      6909.7746      883.12754      1625.2174      8117.9148     -7028.7549     -760.44645      143784.07      52.388615      52.388615      52.388615      1.0223462      61.651946      441.73757      3044.5966    
   1964000   1964000        687.57606     -607.68211      49878.183      51152.457      22165.706      28986.751      9708.6075      8757.4851      7050.0307      861.46115      1544.4156      8091.4106     -7026.6593     -760.44645      143784.07      52.388615      52.388615      52.388615      1.0223462      610.29772     -496.90719     -1936.4369    
   1965000   1965000        693.84693     -803.17474      49760.582      51444.794      22367.863      29076.931      9592.2035      8843.7295      7175.989       874.22313      1513.6116      8100.7574     -7023.5836     -760.44645      143784.07      52.388615      52.388615      52.388615      1.0223462     -439.09724     -854.80039     -1115.6266    
   1966000   1966000        701.76386      740.58243      53533.981      51981.022      22623.085      29357.937      9885.0035      8854.8735      7082.7534      895.23918      1582.2617      8090.2293     -7032.4233     -760.44645      143784.07      52.388615      52.388615      52.388615      1.0223462      1783.8574      884.52147     -446.63158    
   1967000   1967000        701.427        442.31192      52687.083      51759.58       22612.225      29147.355      9758.7051      8893.3416      7021.1644      884.82101      1518.2347      8098.9121     -7027.8239     -760.44645      143784.07      52.388615      52.388615      52.388615      1.0223462     -1082.9115     -89.695423      2499.5427    
   1968000   1968000        691.48881     -54.333786      51330.352      51444.286      22291.843      29152.443      9567.0074      8967.2323      7067.577       882.70167      1597.9901      8097.9062     -7027.9716     -760.44645      143784.07      52.388615      52.388615      52.388615      1.0223462     -605.27638      535.55445     -93.279426    
   1969000   1969000        701.73244     -1133.4934      49279.04       51655.911      22622.072      29033.839      9519.0879      8876.5441      7078.7854      924.80426      1560.4143      8099.9842     -7025.7813     -760.44645      143784.07      52.388615      52.388615      52.388615      1.0223462     -1653.1576      296.38809     -2043.7106    
   1970000   1970000        705.27646      629.89356      53219.513      51898.662      22736.322      29162.34       9857.4764      8756.472       7024.9049      880.49789      1581.8051      8090.7738     -7029.5898     -760.44645      143784.07      52.388615      52.388615      52.388615      1.0223462      866.13705      986.25618      37.287437    
   1971000   1971000        692.5884      -349.16454      50524.115      51256.293      22327.291      28929.001      9493.5771      8934.6568      7031.4863      863.09211      1535.0838      8100.3484     -7029.2431     -760.44645      143784.07      52.388615      52.388615      52.388615      1.0223462     -819.95018     -90.18724      -137.35619    
   1972000   1972000        701.09419     -1496.6304      48531.244      51669.593      22601.496      29068.097      9680.9312      8788.6998      7311.4765      897.97243      1337.2388      8085.4424     -7033.6644     -760.44645      143784.07      52.388615      52.388615      52.388615      1.0223462     -1297.8872      104.81685     -3296.821     
   1973000   1973000        708.41702     -860.11674      49965.397      51769.013      22837.566      28931.447      9639.5776      8919.2016      7031.698       856.3626       1431.9163      8088.6322     -7035.9415     -760.44645      143784.07      52.388615      52.388615      52.388615      1.0223462     -407.80649      918.45684     -3091.0006    
   1974000   1974000        697.58717     -1298.8362      48927.232      51650.817      22488.439      29162.379      9572.924       9005.7391      7147.1046      891.45046      1477.4933      8097.829      -7030.1621     -760.44645      143784.07      52.388615      52.388615      52.388615      1.0223462     -825.98275     -1084.566      -1985.9598    
   1975000   1975000        686.10168      239.04029      51587.356      51086.103      22118.176      28967.927      9453.0146      8930.8245      7085.9407      868.88558      1562.0733      8094.4115     -7027.2237     -760.44645      143784.07      52.388615      52.388615      52.388615      1.0223462      823.3044      -841.79508      735.61154    
   1976000   1976000        700.80367      592.83449      52867.833      51624.692      22592.131      29032.562      9804.2381      8839.7409      7008.6447      889.89471      1400.9213      8115.3006     -7026.1787     -760.44645      143784.07      52.388615      52.388615      52.388615      1.0223462      1984.4881     -532.58321      326.59858    
   1977000   1977000        703.10986      994.89176      54068.304      51982.073      22666.477      29315.596      9814.4096      8971.3766      7062.3388      895.40122      1509.542       8093.1038     -7030.5759     -760.44645      143784.07      52.388615      52.388615      52.388615      1.0223462      827.10061     -168.34815      2325.9228    
   1978000   1978000        694.91591      143.16534      51974.011      51673.802      22402.324      29271.477      9696.9521      8834.8045      7149.5967      887.216        1629.986       8096.4981     -7023.5762     -760.44645      143784.07      52.388615      52.388615      52.388615      1.0223462      164.24354      145.54281      119.70966    
   1979000   1979000        704.22191     -1069.2483      49415.525      51657.677      22702.326      28955.351      9695.1549      8758.6168      7151.6096      847.58221      1450.2449      8082.2011     -7030.0582     -760.44645      143784.07      52.388615      52.388615      52.388615      1.0223462     -809.46637     -1551.8792     -846.39926    
   1980000   1980000        695.99082      253.6249       52033.697      51501.86       22436.977      29064.884      9447.6607      8971.7719      7048.5831      879.12252      1639.4844      8098.9306     -7020.6695     -760.44645      143784.07      52.388615      52.388615      52.388615      1.0223462      580.26606      415.96378     -235.35515    
   1981000   1981000        689.37252      2236.5342      55892.895      51203.01       22223.619      28979.391      9593.2083      8793.5469      7036.2065      892.10823      1593.3665      8094.942      -7023.9874     -760.44645      143784.07      52.388615      52.388615      52.388615      1.0223462      3743.1214      901.50122      2064.98      
   1982000   1982000        693.69486     -1146.8012      49250.183      51654.96       22362.961      29291.999      9736.8382      9086.4352      7060.4818      875.1502       1457.552       8103.7662     -7028.2248     -760.44645      143784.07      52.388615      52.388615      52.388615      1.0223462     -2491.5605      372.82349     -1321.6665    
   1983000   1983000        702.86293      174.43096      51717.337      51351.566      22658.516      28693.049      9675.398       8778.3786      6847.0987      842.46037      1442.8814      8124.3444     -7017.512      -760.44645      143784.07      52.388615      52.388615      52.388615      1.0223462      58.109335      657.33677     -192.15322    
   1984000   1984000        699.69536      354.3946       52501.879      51758.734      22556.402      29202.332      9884.811       8903.6177      6982.4539      874.02373      1469.4475      8115.6443     -7027.6661     -760.44645      143784.07      52.388615      52.388615      52.388615      1.0223462     -3.3434739      453.86707      612.66021    
   1985000   1985000        704.04804      709.22885      53346.409      51859.196      22696.721      29162.475      9888.4373      8890.9587      6923.1108      897.76148      1476.5117      8114.7251     -7029.0301     -760.44645      143784.07      52.388615      52.388615      52.388615      1.0223462     -82.065373      1211.5225      998.22939    
   1986000   1986000        701.18357     -1324.7656      48688.728      51466.686      22604.378      28862.308      9674.7465      8886.4938      7065.5142      877.38343      1269.4805      8112.8019     -7024.1124     -760.44645      143784.07      52.388615      52.388615      52.388615      1.0223462     -2492.3588     -2154.5794      672.64144    
   1987000   1987000        705.36477     -318.595        50888.739      51556.815      22739.169      28817.645      9796.3984      8850.285       6842.0786      864.38377      1399.0232      8092.1384     -7026.662      -760.44645      143784.07      52.388615      52.388615      52.388615      1.0223462     -879.26664      80.624857     -157.14321    
   1988000   1988000        700.72742      658.90016      53117.172      51735.496      22589.673      29145.823      9796.7139      8943.1828      6951.3692      888.61314      1493.5399      8097.6058     -7025.2015     -760.44645      143784.07      52.388615      52.388615      52.388615      1.0223462      127.82933      766.32963      1082.5415    
   1989000   1989000        698.45204      629.04609      53089.834      51770.76       22516.32       29254.44       9969.9151      8990.3206      6832.687       874.64816      1534.8079      8081.9502     -7029.8891     -760.44645      143784.07      52.388615      52.388615      52.388615      1.0223462      1774.0435      110.5381       2.5566562    
   1990000   1990000        698.95186     -455.69538      50386.361      51341.929      22532.433      28809.496      9653.721       8815.9915      6902.9635      869.16542      1498.9622      8093.8717     -7025.1797     -760.44645      143784.07      52.388615      52.388615      52.388615      1.0223462      48.139817     -851.66879     -563.55716    
   1991000   1991000        699.43424     -221.17113      51326.022      51789.806      22547.984      29241.822      9804.2688      9114.9566      6887.5572      875.89618      1490.6536      8096.4197     -7027.9301     -760.44645      143784.07      52.388615      52.388615      52.388615      1.0223462     -489.84977      819.97736     -993.64098    
   1992000   1992000        684.57891     -638.44757      49920.414      51259.202      22069.086      29190.117      9834.3002      8943.2891      6992.2101      837.95313      1531.0272      8085.0974     -7033.7603     -760.44645      143784.07      52.388615      52.388615      52.388615      1.0223462     -1243.4945      227.87397     -899.7222     
   1993000   1993000        706.23484     -1642.0496      48570.027      52013.311      22767.218      29246.093      9672.9432      8967.6871      7153.9417      900.66084      1475.5459      8103.0284     -7027.7139     -760.44645      143784.07      52.388615      52.388615      52.388615      1.0223462     -1477.6499     -2679.8943     -768.60453    
   1994000   1994000        702.58045      713.93844      53180.161      51683.072      22649.41       29033.663      9698.1977      9068.0394      6885.7918      882.69092      1426.2571      8099.5681     -7026.8824     -760.44645      143784.07      52.388615      52.388615      52.388615      1.0223462      693.87676     -696.15991      2144.0985    
   1995000   1995000        696.00707     -615.88529      50542.079      51833.555      22437.501      29396.055      9869.5011      9068.6435      6999.7019      900.34001      1468.6033      8116.2735     -7027.0085     -760.44645      143784.07      52.388615      52.388615      52.388615      1.0223462     -81.56785       302.42945     -2068.5175    
   1996000   1996000        703.59295     -929.87929      50096.357      52046.261      22682.05       29364.211      9956.3748      8891.6954      7124.7274      868.70397      1447.3559      8100.4251     -7025.0715     -760.44645      143784.07      52.388615      52.388615      52.388615      1.0223462     -1038.6361      612.82854     -2363.8303    
   1997000   1997000        694.18045     -360.81296      50648.695      51405.299      22378.615      29026.684      9649.1703      8814.518       7136.4843      867.2037       1509.0752      8079.3757     -7029.1432     -760.44645      143784.07      52.388615      52.388615      52.388615      1.0223462     -164.41787     -1412.9181      494.89705    
   1998000   1998000        695.91589     -1437.062       48794.072      51807.509      22434.561      29372.948      9882.7203      8864.0483      7236.0851      870.9731       1426.5969      8115.6259     -7023.1013     -760.44645      143784.07      52.388615      52.388615      52.388615      1.0223462     -286.0264      -2490.0668     -1535.0928    
   1999000   1999000        688.49602     -1050.0788      48870.593      51072.548      22195.363      28877.185      9748.5612      8753.5924      7011.4555      863.78006      1460.8008      8075.7352     -7036.7405     -760.44645      143784.07      52.388615      52.388615      52.388615      1.0223462      890.54029     -1830.873      -2209.9037    
   2000000   2000000        695.64316      1148.6111      54074.004      51665.432      22425.769      29239.663      9634.5129      9000.4905      7103.4654      892.59814      1528.7499      8102.3673     -7022.5213     -760.44645      143784.07      52.388615      52.388615      52.388615      1.0223462      961.70547      342.66168      2141.466     
Loop time of 8546.77 on 1 procs for 2000000 steps with 10816 atoms

Performance: 20.218 ns/day, 1.187 hours/ns, 234.007 timesteps/s, 2.531 Matom-step/s
100.0% CPU use with 1 MPI tasks x 1 OpenMP threads

MPI task timing breakdown:
Section |  min time  |  avg time  |  max time  |%varavg| %total
---------------------------------------------------------------
Pair    | 46.306     | 46.306     | 46.306     |   0.0 |  0.54
Bond    | 4592.9     | 4592.9     | 4592.9     |   0.0 | 53.74
Kspace  | 2028.4     | 2028.4     | 2028.4     |   0.0 | 23.73
Neigh   | 1303.1     | 1303.1     | 1303.1     |   0.0 | 15.25
Comm    | 147.32     | 147.32     | 147.32     |   0.0 |  1.72
Output  | 44.023     | 44.023     | 44.023     |   0.0 |  0.52
Modify  | 310.1      | 310.1      | 310.1      |   0.0 |  3.63
Other   |            | 74.62      |            |       |  0.87

Nlocal:          10816 ave       10816 max       10816 min
Histogram: 1 0 0 0 0 0 0 0 0 0
Nghost:          21404 ave       21404 max       21404 min
Histogram: 1 0 0 0 0 0 0 0 0 0
Neighs:              0 ave           0 max           0 min
Histogram: 1 0 0 0 0 0 0 0 0 0
FullNghs:  5.17251e+06 ave 5.17251e+06 max 5.17251e+06 min
Histogram: 1 0 0 0 0 0 0 0 0 0

Total # of neighbors = 5172510
Ave neighs/atom = 478.22763
Ave special neighs/atom = 5.7707101
Neighbor list builds = 154037
Dangerous builds = 0

# --- Cleanup ---
unfix nvt_fix

undump dump_nvt

# --- Write Output ---
write_dump all custom nvt_production_last.dump id type mol x y z xu yu zu vx vy vz modify sort id
write_data /home/arz2/PolyJarvis/data/PSU4/lammps/equil/nvt_production/nvt_production_out.data
System init for write_data ...
PPPM Kokkos initialization ...
  using 12-bit tables for long-range coulomb
  G vector (1/distance) = 0.29792447
  grid = 36 36 36
  stencil order = 5
  estimated absolute RMS force accuracy = 0.00033359894
  estimated relative force accuracy = 1.0046233e-06
  using double precision cuFFT
  3d grid and FFT values/proc = 79507 46656
Generated 28 of 28 mixed pair_coeff terms from sixthpower/sixthpower mixing rule

print "STAGE COMPLETE: NVT T=700.0->700.0K steps=2000000"
STAGE COMPLETE: NVT T=700.0->700.0K steps=2000000
quit
2      |            |       |  0.87

Nlocal:          10816 ave       10816 max       10816 min
Histogram: 1 0 0 0 0 0 0 0 0 0
Nghost:          21404 ave       21404 max       21404 min
Histogram: 1 0 0 0 0 0 0 0 0 0
Neighs:              0 ave           0 max           0 min
Histogram: 1 0 0 0 0 0 0 0 0 0
FullNghs:  5.17251e+06 ave 5.17251e+06 max 5.17251e+06 min
Histogram: 1 0 0 0 0 0 0 0 0 0

Total # of neighbors = 5172510
Ave neighs/atom = 478.22763
Ave special neighs/atom = 5.7707101
Neighbor list builds = 154037
Dangerous builds = 0
System init for write_data ...
PPPM Kokkos initialization ...
  using 12-bit tables for long-range coulomb
  G vector (1/distance) = 0.29792447
  grid = 36 36 36
  stencil order = 5
  estimated absolute RMS force accuracy = 0.00033359894
  estimated relative force accuracy = 1.0046233e-06
  using double precision cuFFT
  3d grid and FFT values/proc = 79507 46656
Generated 28 of 28 mixed pair_coeff terms from sixthpower/sixthpower mixing rule
STAGE COMPLETE: NVT T=700.0->700.0K steps=2000000
