LAMMPS data file via write_data, version 22 Jul 2025, timestep = 2000000, units = real

6420 atoms
4 atom types
6810 bonds
8 bond types
12000 angles
15 angle types
19110 dihedrals
24 dihedral types
5600 impropers
14 improper types

4.766808778245906 45.96787625173181 xlo xhi
4.766808778245906 45.96787625173181 ylo yhi
4.766808778245906 45.96787625173181 zlo zhi

Masses

1 12.01115
2 12.01115
3 12.01115
4 1.00797

Pair Coeffs # lj/class2/coul/long/kk

1 0.054 4.01
2 0.054 4.01
3 0.064 4.01
4 0.02 2.995

Bond Coeffs # class2/kk

1 1.53 299.67 -501.77 679.81
2 1.53 299.67 -501.77 679.81
3 1.501 321.902 -521.821 572.163
4 1.101 345 -691.89 844.6
5 1.501 321.902 -521.821 572.163
6 1.101 345 -691.89 844.6
7 1.417 470.836 -627.618 1327.63
8 1.0982 372.825 -803.453 894.317

Angle Coeffs # class2/kk

1 112.67 39.516 -7.443 -9.5583
2 108.4 43.9594 -8.3924 -9.3379
3 110.77 41.453 -10.604 5.129
4 112.67 39.516 -7.443 -9.5583
5 108.4 43.9594 -8.3924 -9.3379
6 110.77 41.453 -10.604 5.129
7 120.05 44.7148 -22.7352 0
8 112.67 39.516 -7.443 -9.5583
9 110.77 41.453 -10.604 5.129
10 120.05 44.7148 -22.7352 0
11 111 44.3234 -9.4454 0
12 111 44.3234 -9.4454 0
13 118.9 61.0226 -34.9931 0
14 117.94 35.1558 -12.4682 0
15 107.66 39.641 -12.921 -2.4318

BondBond Coeffs

1 0 1.53 1.53
2 0 1.53 1.501
3 3.3872 1.53 1.101
4 0 1.53 1.53
5 0 1.53 1.501
6 3.3872 1.53 1.101
7 12.0676 1.501 1.417
8 0 1.53 1.53
9 3.3872 1.53 1.101
10 12.0676 1.501 1.417
11 2.9168 1.501 1.101
12 2.9168 1.501 1.101
13 68.2856 1.417 1.417
14 1.0795 1.417 1.0982
15 5.3316 1.101 1.101

BondAngle Coeffs

1 8.016 8.016 1.53 1.53
2 0 0 1.53 1.501
3 20.754 11.421 1.53 1.101
4 8.016 8.016 1.53 1.53
5 0 0 1.53 1.501
6 20.754 11.421 1.53 1.101
7 47.0579 31.0771 1.501 1.417
8 8.016 8.016 1.53 1.53
9 20.754 11.421 1.53 1.101
10 47.0579 31.0771 1.501 1.417
11 26.4608 11.7717 1.501 1.101
12 26.4608 11.7717 1.501 1.101
13 28.8708 28.8708 1.417 1.417
14 20.0033 24.2183 1.417 1.0982
15 18.103 18.103 1.101 1.101

Dihedral Coeffs # class2/kk

1 0 0 0.0514 0 -0.143 0
2 0 0 0 0 0.158 180
3 0 0 0.0316 0 -0.1681 0
4 -0.2802 0 -0.0678 0 -0.0122 0
5 0 0 0.0514 0 -0.143 0
6 0 0 0.0316 0 -0.1681 0
7 -0.2802 0 -0.0678 0 -0.0122 0
8 0 0 4.4072 0 0 0
9 0 0 1.559 0 0 0
10 0 0 0 0 0.158 180
11 0 0 0.0316 0 -0.1681 0
12 0 0 0 0 0.158 180
13 0 0 0.0316 0 -0.1681 0
14 0 0 4.4072 0 0 0
15 0 0 1.559 0 0 0
16 -0.0228 0 0.028 0 -0.1863 0
17 -0.0228 0 0.028 0 -0.1863 0
18 -0.2801 0 -0.0678 0 -0.0122 0
19 -0.2801 0 -0.0678 0 -0.0122 0
20 8.3667 0 1.1932 0 0 0
21 0 0 3.9661 0 0 0
22 -0.1432 0 0.0617 0 -0.1083 0
23 -0.1432 0 0.0617 0 -0.1083 0
24 0 0 1.8769 0 0 0

AngleAngleTorsion Coeffs

1 -22.045 112.67 112.67
2 0 112.67 108.4
3 -16.164 112.67 110.77
4 0 108.4 120.05
5 -22.045 112.67 112.67
6 -16.164 112.67 110.77
7 0 108.4 120.05
8 -14.4097 120.05 118.9
9 4.4444 120.05 117.94
10 0 112.67 108.4
11 -16.164 112.67 110.77
12 0 112.67 108.4
13 -16.164 112.67 110.77
14 -14.4097 120.05 118.9
15 4.4444 120.05 117.94
16 0 108.4 110.77
17 0 108.4 110.77
18 -5.8888 120.05 111
19 -5.8888 120.05 111
20 0 118.9 118.9
21 -4.8141 118.9 117.94
22 -12.564 110.77 110.77
23 -12.564 110.77 110.77
24 0.3598 117.94 117.94

EndBondTorsion Coeffs

1 -0.0732 0 0 -0.0732 0 0 1.53 1.53
2 0 0 0 0 0 0 1.53 1.501
3 0.2486 0.2422 -0.0925 0.0814 0.0591 0.2219 1.53 1.101
4 0 0 0 0 0 0 1.53 1.417
5 -0.0732 0 0 -0.0732 0 0 1.53 1.53
6 0.2486 0.2422 -0.0925 0.0814 0.0591 0.2219 1.53 1.101
7 0 0 0 0 0 0 1.53 1.417
8 0 0.2421 0 0 -0.6918 0 1.501 1.417
9 0 -1.797 0 0 -0.4879 0 1.501 1.0982
10 0 0 0 0 0 0 1.53 1.501
11 0.2486 0.2422 -0.0925 0.0814 0.0591 0.2219 1.53 1.101
12 0 0 0 0 0 0 1.53 1.501
13 0.2486 0.2422 -0.0925 0.0814 0.0591 0.2219 1.53 1.101
14 0 0.2421 0 0 -0.6918 0 1.501 1.417
15 0 -1.797 0 0 -0.4879 0 1.501 1.0982
16 0 0 0 0 0 0 1.501 1.101
17 0 0 0 0 0 0 1.501 1.101
18 -0.5835 1.122 0.3978 1.3997 0.7756 0 1.417 1.101
19 -0.5835 1.122 0.3978 1.3997 0.7756 0 1.417 1.101
20 -0.1185 6.3204 0 -0.1185 6.3204 0 1.417 1.417
21 0 -6.8958 0 0 -0.4669 0 1.417 1.0982
22 0.213 0.312 0.0777 0.213 0.312 0.0777 1.101 1.101
23 0.213 0.312 0.0777 0.213 0.312 0.0777 1.101 1.101
24 0 -0.689 0 0 -0.689 0 1.0982 1.0982

MiddleBondTorsion Coeffs

1 -17.787 -7.1877 0 1.53
2 0 0 0 1.53
3 -14.879 -3.6581 -0.3138 1.53
4 0 0 0 1.501
5 -17.787 -7.1877 0 1.53
6 -14.879 -3.6581 -0.3138 1.53
7 0 0 0 1.501
8 0 9.1792 0 1.417
9 0 3.9421 0 1.417
10 0 0 0 1.53
11 -14.879 -3.6581 -0.3138 1.53
12 0 0 0 1.53
13 -14.879 -3.6581 -0.3138 1.53
14 0 9.1792 0 1.417
15 0 3.9421 0 1.417
16 0 0 0 1.53
17 0 0 0 1.53
18 -5.5679 1.4083 0.301 1.501
19 -5.5679 1.4083 0.301 1.501
20 27.5989 -2.312 0 1.417
21 0 -1.1521 0 1.417
22 -14.261 -0.5322 -0.4864 1.53
23 -14.261 -0.5322 -0.4864 1.53
24 0 4.8228 0 1.417

BondBond13 Coeffs

1 0 1.53 1.53
2 0 1.53 1.501
3 0 1.53 1.101
4 0 1.53 1.417
5 0 1.53 1.53
6 0 1.53 1.101
7 0 1.53 1.417
8 2.5085 1.501 1.417
9 0.8743 1.501 1.0982
10 0 1.53 1.501
11 0 1.53 1.101
12 0 1.53 1.501
13 0 1.53 1.101
14 2.5085 1.501 1.417
15 0.8743 1.501 1.0982
16 0 1.501 1.101
17 0 1.501 1.101
18 -3.4826 1.417 1.101
19 -3.4826 1.417 1.101
20 53 1.417 1.417
21 -6.2741 1.417 1.0982
22 0 1.101 1.101
23 0 1.101 1.101
24 -1.7077 1.0982 1.0982

AngleTorsion Coeffs

1 0.3886 -0.3139 0.1389 0.3886 -0.3139 0.1389 112.67 112.67
2 0 0 0 0 0 0 112.67 108.4
3 -0.2454 0 -0.1136 0.3113 0.4516 -0.1988 112.67 110.77
4 0 0 0 0 0 0 108.4 120.05
5 0.3886 -0.3139 0.1389 0.3886 -0.3139 0.1389 112.67 112.67
6 -0.2454 0 -0.1136 0.3113 0.4516 -0.1988 112.67 110.77
7 0 0 0 0 0 0 108.4 120.05
8 0 -4.4683 0 0 3.8987 0 120.05 118.9
9 0 -0.1242 0 0 3.4601 0 120.05 117.94
10 0 0 0 0 0 0 112.67 108.4
11 -0.2454 0 -0.1136 0.3113 0.4516 -0.1988 112.67 110.77
12 0 0 0 0 0 0 112.67 108.4
13 -0.2454 0 -0.1136 0.3113 0.4516 -0.1988 112.67 110.77
14 0 -4.4683 0 0 3.8987 0 120.05 118.9
15 0 -0.1242 0 0 3.4601 0 120.05 117.94
16 0 0 0 0 0 0 108.4 110.77
17 0 0 0 0 0 0 108.4 110.77
18 0.2251 0.6548 0.1237 4.6266 0.1632 0.0461 120.05 111
19 0.2251 0.6548 0.1237 4.6266 0.1632 0.0461 120.05 111
20 1.9767 1.0239 0 1.9767 1.0239 0 118.9 118.9
21 0 2.5014 0 0 2.7147 0 118.9 117.94
22 -0.8085 0.5569 -0.2466 -0.8085 0.5569 -0.2466 110.77 110.77
23 -0.8085 0.5569 -0.2466 -0.8085 0.5569 -0.2466 110.77 110.77
24 0 2.4501 0 0 2.4501 0 117.94 117.94

Improper Coeffs # class2/kk

1 0 0
2 0 0
3 0 0
4 0 0
5 0 0
6 0 0
7 0 0
8 0 0
9 0 0
10 0 0
11 0 0
12 7.8153 0
13 7.8153 0
14 4.8912 0

AngleAngle Coeffs

1 2.0403 -1.8202 1.0827 108.4 110.77 111
2 0.1184 -1.3199 -1.3199 110.77 112.67 110.77
3 1.0827 -1.8202 2.0403 110.77 108.4 111
4 0.2738 -0.4825 0.2738 110.77 110.77 107.66
5 -1.3199 -1.3199 0.1184 112.67 110.77 110.77
6 0.2738 -0.4825 0.2738 110.77 110.77 107.66
7 2.3794 3.0118 2.3794 111 111 107.66
8 -0.3157 -0.3157 -0.3157 107.66 107.66 107.66
9 0 0 0 112.67 108.4 108.4
10 -1.3199 -1.3199 0.1184 112.67 110.77 110.77
11 2.0403 -1.8202 1.0827 108.4 110.77 111
12 0 0 0 120.05 120.05 118.9
13 0 0 0 120.05 120.05 118.9
14 0 0 0 118.9 117.94 117.94

Atoms # full/kk

6308 10 4 0.053 6.915171267479442 45.457657582709885 9.061476710203573 1 0 0
6396 10 4 0.1268 10.44778729942309 11.101101089672476 8.629974563934661 1 1 0
6324 10 4 0.053 9.195970632360474 45.658213668824516 10.036694642593453 1 0 0
6296 10 3 0 6.160536270739495 45.91986404534465 6.402760354257995 1 0 0
3056 5 4 0.1268 6.0584379866165845 10.459965762297161 5.791104528245647 0 0 0
6317 10 3 -0.1268 8.516693237226304 9.510778376917493 6.363324658001392 1 1 0
6307 10 1 -0.106 6.893309631306776 5.291148330230235 8.754716553586954 1 1 0
6311 10 4 0.053 8.610220632546412 4.787729433926269 7.488186855390634 1 1 0
6295 10 4 0.053 5.529211265839302 6.4683669432000785 7.627458110105372 1 1 0
6294 10 2 -0.053 5.78438571613224 5.404969471802039 7.727636820786983 1 1 0
6309 10 4 0.053 6.68815827786527 5.8624222065404545 9.703374029406511 1 1 0
6323 10 1 -0.106 9.378846954046967 5.412344387417508 9.48763322496144 1 1 0
6315 10 3 -0.1268 7.994941929228149 9.418147931874095 7.669911971534186 1 1 0
6319 10 3 -0.1268 8.885628702994737 8.314192088771204 5.644576708549541 1 1 0
6314 10 4 0.1268 7.6262760147140405 7.955304713031922 9.255724385356492 1 1 0
6312 10 3 0 8.463280624901447 6.977497958409241 7.645340486575886 1 1 0
6310 10 2 -0.053 8.377605575427507 5.572178947796066 8.251286910928163 1 1 0
6325 10 4 0.053 9.082567250769024 6.193273522856372 10.147096645882877 1 1 0
6313 10 3 -0.1268 7.981635187427786 8.1563377821703 8.265253840066764 1 1 0
6305 10 3 -0.1268 6.136251510666664 5.394143311605493 5.158376393740231 1 1 0
6321 10 3 -0.1268 8.947005697166613 7.156208700134314 6.34993793950839 1 1 0
6306 10 4 0.1268 5.887333345159097 6.429792693362995 5.2061602185173665 1 1 0
6322 10 4 0.1268 9.28175973500152 6.239351858713362 5.8196244143526155 1 1 0
6320 10 4 0.1268 9.249328221882937 8.356913682770053 45.74807802417085 1 1 -1
6327 10 4 0.053 11.171104715367935 45.750917538083684 8.720254609472486 1 0 0
6326 10 2 -0.053 10.887550679201562 5.439906883663711 9.296310417494547 1 1 0
6395 10 3 -0.1268 10.910219053441825 10.902399254372462 9.53171056048402 1 1 0
6362 10 4 0.1268 15.168526652232583 11.108476326248086 6.899073620917187 1 1 0
6373 10 4 0.053 14.945528961331723 10.508830891207003 8.826264117127227 1 1 0
6346 10 4 0.1268 12.98633290104414 6.071108831690298 5.844410449342121 1 1 0
6354 10 4 0.1268 14.45079771399078 45.84491537518295 9.708985289525023 1 0 0
6328 10 3 0 11.468422825645098 5.270378235319253 10.698708991725306 1 1 0
6341 10 4 0.053 11.14341034591913 6.646344865900686 7.390503707935564 1 1 0
6361 10 3 -0.1268 15.32447580446743 10.394343225194039 6.06934043826253 1 1 0
6345 10 3 -0.1268 13.478753242348688 5.3201728675167 6.5022338067189445 1 1 0
6340 10 4 0.053 11.021653626164367 7.646078967170377 8.821466784989013 1 1 0
6375 10 4 0.053 13.790171922681347 8.783612142463607 10.597809307635337 1 1 0
6374 10 2 -0.053 14.86367204013121 9.026105242197477 10.454448126659306 1 1 0
6339 10 1 -0.106 11.50211731065123 6.6519222332645835 8.456576697914175 1 1 0
6344 10 3 0 13.600141013116117 5.547133961505759 7.900195198705716 1 1 0
6371 10 1 -0.106 15.371075005547151 9.507248141019893 8.951403589849953 1 1 0
6343 10 4 0.053 13.239843234239704 6.907891122381232 9.617625030405852 1 1 0
6357 10 4 0.053 12.909339160942682 9.036958614556156 8.155537551469296 1 1 0
6342 10 2 -0.053 13.012165461458238 6.823693519538715 8.5160538530395 1 1 0
6356 10 4 0.053 13.13030230016411 8.073482582029637 6.718987220854319 1 1 0
6355 10 1 -0.106 13.51055333124801 8.15334301795228 7.789609385855548 1 1 0
6359 10 4 0.053 15.649287742466978 7.6101616475866205 7.903310356857375 1 1 0
6358 10 2 -0.053 14.988982364324531 8.499471749817452 7.7733911137351575 1 1 0
6360 10 3 0 15.43249129361548 9.047471241203501 6.393338107300159 1 1 0
6367 10 3 -0.1268 16.265546919227198 8.657594743088492 45.333038371915336 1 1 -1
6368 10 4 0.1268 16.496198364229944 7.941900274828672 44.56232508224845 1 1 -1
4473 7 3 -0.1268 21.728115959927006 7.621218856249413 5.152077962789547 0 1 1
4474 7 4 0.1268 21.071773149993312 8.386885212241525 5.619603131297542 0 1 1
2159 4 3 -0.1268 23.187755636565626 45.68969460955192 8.19125912008997 0 -1 1
6369 10 3 -0.1268 15.887089647561746 8.216373390195105 5.380623773777197 1 1 0
6370 10 4 0.1268 16.14918421996512 7.165450953065528 5.6948241460343745 1 1 0
2196 4 4 0.1268 18.123366357583983 11.554353018273128 9.50177982344906 0 0 1
6372 10 4 0.053 16.458980218509232 9.695118622870488 8.958561126019609 1 1 0
2161 4 3 -0.1268 21.944716537754914 45.79664331427294 7.554109003094065 0 -1 1
2164 4 4 0.1268 20.129443298516883 5.819236121986799 7.361601237468766 0 0 1
2163 4 3 -0.1268 21.140221302063892 5.744185233622028 7.780820931649759 0 0 1
6386 10 4 0.1268 17.126929022187994 7.808002513402025 9.666825335714172 1 1 0
2166 4 4 0.1268 20.87647112444579 7.588780746171764 8.765623768621131 0 0 1
2165 4 3 -0.1268 21.55610348550386 6.70549635699907 8.666410955519714 0 0 1
4471 7 3 -0.1268 23.036666577038382 7.317783219553116 5.597265131397804 0 1 1
4469 7 3 -0.1268 23.77641329018559 6.300133702679451 4.969661618560431 0 1 1
4472 7 4 0.1268 23.55757660066927 7.646003093972899 6.524939483377366 0 1 1
2804 5 4 0.1268 23.141889483065473 10.851891664558172 6.775430849495477 0 0 0
624 1 4 0.1268 26.11606244804013 45.45269141604305 5.502169818391374 0 -1 0
2158 4 4 0.1268 24.659407780728934 5.553395775055252 9.397549534179158 0 0 1
642 1 4 0.053 28.504306754608738 45.677742986206695 7.805523448378229 0 -1 0
2154 4 2 -0.053 23.29960481080701 7.822225645867941 10.157026900675483 0 0 1
2156 4 3 0 22.788015376512718 6.634704318829803 9.316785323556983 0 0 1
2157 4 3 -0.1268 23.62398567253177 5.5236435376727435 8.977134594146904 0 0 1
2136 4 4 0.053 26.69547685159402 8.396756153151056 10.431226028849675 0 0 1
4470 7 4 0.1268 24.648088356012288 5.856174993481454 5.375614467027388 0 1 1
2153 4 4 0.053 23.410194824363877 9.073318328343376 8.390303843809841 0 0 1
2142 4 4 0.1268 26.984695759468906 8.787122924040279 8.40136073439273 0 0 1
2151 4 1 -0.106 24.106546001518183 8.72676780916719 9.258642842286532 0 0 1
2152 4 4 0.053 24.787988698128036 8.01503573879344 8.712082022141944 0 0 1
2138 4 2 -0.053 25.004568396832664 9.766314547858242 9.895074076301437 0 0 1
627 1 4 0.053 26.8709310532837 6.22664569215392 6.2354578481979575 0 0 0
625 1 1 -0.106 28.008313459309097 6.021963389738913 6.312952675578962 0 0 0
629 1 4 0.053 27.571827630016372 5.744433059755043 8.453356423731204 0 0 0
612 1 2 -0.053 28.63882344753195 5.2410205271964445 5.050516039075167 0 0 0
579 1 4 0.053 32.62851277746965 8.069992971380612 45.552799994616045 0 0 -1
2117 4 3 -0.1268 30.307992882157116 10.75784079711553 9.185108902998214 0 0 1
565 1 4 0.053 31.993803833380046 10.756607458038353 5.162402677114605 0 0 0
2116 4 4 0.1268 30.541316648744793 10.7443859155395 7.035487355054846 0 0 1
626 1 4 0.053 28.351915486464236 7.131013176656258 6.307079701893988 0 0 0
628 1 1 -0.106 28.399402160076974 5.542445024803494 7.784653782967091 0 0 0
566 1 3 0 33.884469711685355 9.826772419358878 5.513544425349581 0 0 0
613 1 4 0.053 29.735906423843108 5.3438031489931515 5.116652310029302 0 0 0
2118 4 4 0.1268 30.197457870860777 9.708798743812437 9.32587892481866 0 0 1
633 1 3 -0.1268 31.00599915785742 6.746977479059911 10.409640938664507 0 0 0
635 1 3 -0.1268 31.93014974148237 7.447829647508817 9.704340827099164 0 0 0
640 1 4 0.1268 30.674543612723575 6.879211748410421 6.654996379507819 0 0 0
631 1 3 -0.1268 29.88872264436434 6.164955938191067 9.871210894795164 0 0 0
639 1 3 -0.1268 30.664410414224086 6.8051564694228635 7.718571251492338 0 0 0
630 1 3 0 29.67983327168416 6.197559634127289 8.468106633554354 0 0 0
637 1 3 -0.1268 31.803517571179427 7.4119415383126945 8.335657262958557 0 0 0
638 1 4 0.1268 32.51720887728149 7.863456920043032 7.709102514804876 0 0 0
636 1 4 0.1268 32.86098122824733 7.946403239229195 10.109860426733691 0 0 0
632 1 4 0.1268 29.146272792776852 5.626631537126946 10.505213998673284 0 0 0
575 1 3 -0.1268 33.919973544968315 10.362088947159661 6.848234757360123 0 0 0
520 1 4 0.1268 39.672018450172104 9.422051999544824 45.58818701107428 0 0 -1
522 1 4 0.1268 39.86759469369768 6.987740505424956 45.77714619185947 0 0 -1
6239 10 3 -0.1268 35.169609515940344 5.641823818001095 8.572790122611645 0 1 0
6241 10 3 -0.1268 36.21964859521882 5.44118624918957 9.397685322677955 0 1 0
574 1 4 0.1268 34.92780066294209 10.452991612974657 8.69427153648956 0 0 0
573 1 3 -0.1268 34.91326851620919 9.990487404108718 7.750987619141158 0 0 0
567 1 3 -0.1268 34.92581612385378 8.945152850803153 5.219694794431047 0 0 0
570 1 4 0.1268 36.73016807239385 7.931640873185728 5.8155681384527265 0 0 0
6228 10 4 0.053 38.824619236497654 5.787524828492711 10.547228933604796 0 1 0
6250 10 4 0.1268 38.393151414014056 5.651829240389628 7.231433499553462 0 1 0
6240 10 4 0.1268 34.95234524940254 6.640574006615401 8.170396497243896 0 1 0
6242 10 4 0.1268 36.950498288902125 6.299381823373208 9.578257928752642 0 1 0
569 1 3 -0.1268 35.90754475337059 8.525256982453179 6.195498945223648 0 0 0
571 1 3 -0.1268 35.963088282814 9.18928993018151 7.354384190728676 0 0 0
572 1 4 0.1268 36.69724743456021 8.95589828933075 8.086395668495348 0 0 0
3058 5 4 0.1268 45.75557405862148 9.671172620435014 7.781687657726268 -1 0 0
6288 10 4 0.1268 42.156118032015826 8.556532534040285 8.968155192693034 0 1 0
6293 10 4 0.053 45.42872238775206 5.224004590082768 9.24361950750212 0 1 0
6289 10 3 -0.1268 43.38284849890779 6.957819910303225 8.329856282516229 0 1 0
6284 10 4 0.1268 43.26524512860699 8.199018041174053 45.96078665818608 0 1 -1
6287 10 3 -0.1268 42.75330400793452 8.131425732970705 8.150441198318443 0 1 0
6281 10 3 -0.1268 43.556501193588545 6.479126440413209 5.9707485113883205 0 1 0
6286 10 4 0.1268 42.26739332534646 9.523165750724656 6.544447100506646 0 1 0
6282 10 4 0.1268 43.95009188090988 5.8982414824794125 5.1843218565303335 0 1 0
6279 10 4 0.053 44.52126296140014 45.59076855095067 6.47776566894313 0 0 0
6277 10 4 0.053 43.135597314168905 45.375775575408454 9.191926209121432 0 0 0
6280 10 3 0 43.73013982138343 6.073978985482086 7.296954556269726 0 1 0
6283 10 3 -0.1268 43.07108332234657 7.767847409349823 5.7550053729582755 0 1 0
6285 10 3 -0.1268 42.635073057415696 8.567647986177475 6.806629272530076 0 1 0
6278 10 2 -0.053 44.332149061947035 45.879895460730566 7.488896722588337 0 0 0
6291 10 1 -0.106 45.64722013581073 4.784142535152867 8.302194612437031 0 1 0
6290 10 4 0.1268 43.40154797754258 6.5188519976922255 9.318928686101753 0 1 0
2583 5 3 -0.1268 7.037550491835805 13.414997362767474 9.771862522380763 1 0 0
2581 5 3 -0.1268 8.288661899016958 13.448360484220542 9.110498818824059 1 0 0
3067 5 4 0.053 7.000309384805789 14.21625905142724 5.538229821529531 0 0 0
2584 5 4 0.1268 6.170477126950705 12.872543934802001 9.460736331902508 1 0 0
2577 5 3 -0.1268 9.084246508635772 14.869202599904083 10.932156716645311 1 0 0
2580 5 4 0.1268 10.258607445187357 14.297558660433408 9.096501081985702 1 0 0
2574 5 3 0 6.867404462667863 13.96565981518526 11.078059795260893 1 0 0
3072 5 4 0.1268 9.669676971067018 15.428885593410252 5.41887648688169 0 0 0
2578 5 4 0.1268 9.996100375908892 15.35079250379215 11.47444468846229 1 0 0
3054 5 3 0 5.217209323094261 12.3108124674055 5.705790725359758 0 0 0
3071 5 3 -0.1268 10.013265989169035 14.400581616486026 5.299898942513253 0 0 0
6318 10 4 0.1268 8.501236236751282 10.496340486761433 5.816177359589416 1 1 0
2579 5 3 -0.1268 9.2460451426585 14.278287189256988 9.667944866932565 1 0 0
2582 5 4 0.1268 8.429918282283234 13.01559076870827 8.122149334260799 1 0 0
6316 10 4 0.1268 7.909482103445523 10.342898206227948 8.27319485819182 1 1 0
3055 5 3 -0.1268 5.304212713336966 11.05970026870631 6.26478028337925 0 0 0
3063 5 3 -0.1268 45.62375395380886 13.27325333826059 6.366581349798116 -1 0 0
3064 5 4 0.1268 45.35290100774729 14.149067762363737 5.7693467972168975 -1 0 0
6413 10 3 -0.1268 15.041158775439742 16.70550271036796 9.249362787402122 1 1 0
3073 5 3 -0.1268 11.23017915767903 13.967575460890531 5.848934637696151 0 0 0
3078 5 4 0.1268 11.262255285544327 10.71019384380768 45.928211702603235 0 0 -1
3077 5 3 -0.1268 10.937876559855793 11.758175445918837 4.878093436653093 0 0 0
6411 10 3 -0.1268 15.862526812525147 16.20854941989539 10.216633442962328 1 1 0
3074 5 4 0.1268 11.789387762277833 14.67136352980094 6.387633603390734 0 0 0
3075 5 3 -0.1268 11.71118742982887 12.647210434453019 5.61884760997352 0 0 0
6415 10 3 -0.1268 13.697431501552389 16.261324593207387 9.29288001443062 1 1 0
6393 10 3 -0.1268 12.159365934203127 11.445663595570338 9.773037064752454 1 1 0
6417 10 3 -0.1268 13.271853089281292 15.316349185852587 10.210968089764437 1 1 0
6391 10 4 0.053 14.620003384947164 12.06000197347738 10.264290426823687 1 1 0
6409 10 3 -0.1268 15.40834057221686 15.437219623798855 11.257884545096347 1 1 0
3076 5 4 0.1268 12.612434632430421 12.26946860535255 6.084110993760309 0 0 0
6394 10 4 0.1268 12.750982225776903 12.079808853984531 9.031719409959143 1 1 0
6410 10 4 0.1268 16.17156327522479 15.140270805391154 11.971804043396622 1 1 0
2820 5 4 0.1268 15.090442374184825 13.97977109932723 8.026828770278168 0 0 0
2818 5 4 0.1268 14.855362686462755 15.471341124335057 5.9827621297584095 0 0 0
2817 5 3 -0.1268 15.720493075421926 14.866111099556024 6.0942750664801455 0 0 0
2819 5 3 -0.1268 15.90391167256568 14.029667412604594 7.191988953368044 0 0 0
6412 10 4 0.1268 16.882484843132303 16.5703798575708 10.294661841504155 1 1 0
2793 5 1 -0.106 21.72756825982137 16.778255373290875 5.582980046076412 0 0 0
2814 5 3 0 17.92856999934594 14.117191461823188 5.215822306062028 0 0 0
2815 5 3 -0.1268 16.727669367220127 14.909778844208013 5.112232668996159 0 0 0
2789 5 3 -0.1268 20.79192684937242 16.662801683602428 10.2433173067782 0 0 0
2193 4 3 -0.1268 19.699141426891703 12.661967026231768 10.526761596605002 0 0 1
2195 4 3 -0.1268 18.834072597301848 11.58431001408599 10.306850243338006 0 0 1
2821 5 3 -0.1268 16.955158971349867 13.209926114136636 7.252774720545388 0 0 0
2822 5 4 0.1268 16.962562542025275 12.467074451070271 8.070066765661794 0 0 0
2796 5 2 -0.053 20.677675057006965 15.594686326702009 5.5363595640552825 0 0 0
2798 5 3 0 21.415788485041286 14.305901594209386 5.940693375890046 0 0 0
2194 4 4 0.1268 19.618412115528177 13.464922088310292 9.826415620260661 0 0 1
2790 5 4 0.1268 20.75644989736466 15.935608691398278 11.049303127390278 0 0 0
2824 5 4 0.1268 18.874673788126188 12.565924995492006 6.3033319190270225 0 0 0
2797 5 4 0.053 19.94662083566418 15.92523818716017 6.350024400250427 0 0 0
2823 5 3 -0.1268 17.965190234351564 13.239102853929817 6.30119407037823 0 0 0
2808 5 4 0.1268 20.448061962987676 14.204305775038689 7.855926321278389 0 0 0
2807 5 3 -0.1268 21.15109617134355 13.65607372999169 7.155591428618685 0 0 0
2805 5 3 -0.1268 21.79303318650727 12.43494844907606 7.520600031170118 0 0 0
2806 5 4 0.1268 21.468112679896635 11.955388563861387 8.42860314310601 0 0 0
2791 5 3 -0.1268 21.583404631455057 16.4681587758263 9.11633096949911 0 0 0
2792 5 4 0.1268 22.264492696883806 15.624882746499082 9.197957341303646 0 0 0
2794 5 4 0.053 22.498970028812238 16.726804240262467 45.95284240188402 0 0 -1
2781 5 4 0.053 23.103662654332286 16.126584567854366 7.109137613332418 0 0 0
2803 5 3 -0.1268 22.60253628613601 11.813127638626689 6.558458307931296 0 0 0
2769 5 3 -0.1268 27.665602567262805 15.339141952013964 6.491715721670715 0 0 0
2146 4 4 0.1268 27.148143757483638 11.976466541544259 5.350856256308782 0 0 1
2774 5 4 0.1268 26.89557719458999 15.62653940161855 9.749739524262484 0 0 0
2150 4 4 0.1268 24.499357821856293 12.28306168375649 8.780411061877809 0 0 1
2149 4 3 -0.1268 25.259994368819275 11.657700470845406 8.27043173482485 0 0 1
2148 4 4 0.1268 25.511646568907466 13.235430767691719 6.865081217223051 0 0 1
2773 5 3 -0.1268 26.618067110974096 15.732914255631925 8.669613327781136 0 0 0
2147 4 3 -0.1268 25.897108720481366 12.228428656900842 7.1389856091764 0 0 1
2145 4 3 -0.1268 26.75411664826564 11.525778776505987 6.290999978286677 0 0 1
2771 5 3 -0.1268 27.55983492580586 15.078025437388174 7.875517748014392 0 0 0
2123 4 4 0.053 27.521213898880905 10.995318328755213 10.207207510846215 0 0 1
2143 4 3 -0.1268 27.25341415501156 10.33213581278196 6.807274594114862 0 0 1
2140 4 3 0 25.64064558664214 10.410694938247381 8.691596319416313 0 0 1
2144 4 4 0.1268 28.138603778655515 9.788719729342038 6.400357321607255 0 0 1
2141 4 3 -0.1268 26.717156620560747 9.77189631077167 7.987402213035364 0 0 1
2770 5 4 0.1268 28.3893405519745 14.867464149128438 5.8425384319545985 0 0 0
555 1 3 -0.1268 31.049285218683142 15.443462025791165 5.071817868515337 0 0 0
556 1 4 0.1268 30.21212465913467 16.158235831252348 5.313256497161072 0 0 0
2080 4 4 0.1268 33.659914619924024 16.385968864405015 9.76264371816097 0 0 1
2772 5 4 0.1268 28.20709965530699 14.233316410940876 8.28970541487033 0 0 0
2108 4 3 0 30.256297793852262 11.520798516199516 10.353939505865847 0 0 1
2109 4 3 -0.1268 30.39079133923852 12.8966950413338 10.257547165197607 0 0 1
2079 4 3 -0.1268 34.03793610986418 15.417648787739783 10.153364693917593 0 0 1
559 1 3 -0.1268 33.1106190859811 14.370428614529297 5.45454109656103 0 0 0
558 1 4 0.1268 32.376412065016275 15.92030020003032 6.78911306474687 0 0 0
2112 4 4 0.1268 30.8585153555701 14.551724590631933 8.916346312629928 0 0 1
2111 4 3 -0.1268 30.664586206913153 13.434644754780454 9.02372025519434 0 0 1
557 1 3 -0.1268 32.130577969397365 15.30048915263045 5.892612016880987 0 0 0
2113 4 3 -0.1268 30.73954363976766 12.721326472879259 7.839501926585509 0 0 1
2114 4 4 0.1268 30.90998451975384 13.217696542904505 6.887952767928418 0 0 1
576 1 4 0.1268 33.15230872505422 11.038513552434047 7.234254145216513 0 0 0
2115 4 3 -0.1268 30.466990886719795 11.352004661922681 7.94617141197558 0 0 1
2633 5 1 -0.106 38.73312368274824 14.998415281862558 10.84832352627816 0 0 0
560 1 4 0.1268 33.8668433451565 14.116898378748944 6.23133418828882 0 0 0
2081 4 3 -0.1268 34.965936523161986 14.664878499921143 9.368593290666613 0 0 1
536 1 4 0.1268 36.7328852833773 11.517452107915828 5.249775949274756 0 0 0
542 1 4 0.1268 37.92447085089846 16.20212537440294 6.054297800563825 0 0 0
2082 4 4 0.1268 35.46324988219878 15.196189509108148 8.520371529445528 0 0 1
535 1 3 -0.1268 37.0281650483151 12.5245622561796 5.3904892985574495 0 0 0
2623 5 3 -0.1268 39.63121787398657 11.97517636339153 9.879268096431323 0 0 0
2083 4 3 -0.1268 35.47869462697862 13.457574212700717 9.848406850370344 0 0 1
541 1 3 -0.1268 37.68096033624799 15.154842421151297 5.868987689770174 0 0 0
538 1 4 0.1268 37.453206272329 12.117791907981427 7.3225326816048115 0 0 0
2634 5 4 0.053 38.6510771584944 14.788233100125039 9.792874719359961 0 0 0
2084 4 4 0.1268 36.25718636284228 12.908258548088982 9.333911116958836 0 0 1
540 1 4 0.1268 38.11708392084978 14.535976939825375 7.898409068726365 0 0 0
539 1 3 -0.1268 37.79255237564959 14.23581083880631 6.855663229780237 0 0 0
537 1 3 -0.1268 37.379089931380236 12.90707232054206 6.635152186222645 0 0 0
2624 5 4 0.1268 40.28355652104615 12.517099909961855 9.14441206013987 0 0 0
2625 5 3 -0.1268 39.09811658608939 10.698512163962235 9.496224426099682 0 0 0
2626 5 4 0.1268 39.228852741718555 10.284287520756298 8.482496050062913 0 0 0
2602 5 4 0.053 43.65644483829567 15.122579073751863 10.66517017160528 0 0 0
2618 5 4 0.053 41.726930550753565 13.212665232316755 10.912903776893128 0 0 0
3057 5 3 -0.1268 45.769905643400094 10.721500447818114 7.40551207651271 -1 0 0
2573 5 4 0.053 4.789251116398944 13.406014444031829 11.225929737502689 1 0 0
507 1 3 -0.1268 42.411653859416376 13.400833911018792 4.949514958481806 0 0 0
506 1 4 0.1268 41.38456791119107 15.401691049051616 4.997897993408525 0 0 0
426 1 4 0.1268 5.446299101148026 16.015654744843644 7.7355737983475095 1 0 0
2619 5 4 0.053 41.399662101484 14.730258095727903 10.266872889686834 0 0 0
3062 5 4 0.1268 44.28621199584862 13.673347083238838 8.048717795992228 -1 0 0
3061 5 3 -0.1268 44.88711954565372 12.90394697053277 7.469879217883032 -1 0 0
3060 5 4 0.1268 44.21161812000737 11.393063129583187 8.84279969615844 -1 0 0
3059 5 3 -0.1268 44.929902859522514 11.62171298454294 8.03468237626948 -1 0 0
508 1 4 0.1268 43.015072436584234 13.672838599399412 5.802910023879739 0 0 0
3149 5 4 0.053 10.366426997064583 20.990074632562642 9.072330382431758 0 0 0
429 1 3 -0.1268 6.100718758822842 19.38162432546721 7.787153966036711 1 0 0
3130 5 4 0.053 10.409306281527583 17.96089803107218 5.745937815071499 0 0 0
3134 5 3 0 10.380304549672882 20.667920405384525 6.548934554148412 0 0 0
3145 5 1 -0.106 10.696107797824457 18.961340712434833 8.314485071314511 0 0 0
3137 5 3 -0.1268 8.292585188755643 21.566678210606497 5.581097470353394 0 0 0
3148 5 2 -0.053 10.63328534926946 20.006511954213316 9.501250187049303 0 0 0
3146 5 4 0.053 9.753234576915588 18.5627884318993 8.095156654042576 0 0 0
430 1 4 0.1268 6.554053825268118 20.298525611622072 8.293471355869473 1 0 0
3160 5 4 0.1268 8.226546604553233 21.203573578229932 9.60778093211646 0 0 0
3150 5 3 0 9.465551002155241 19.6615349505499 10.437663869179197 0 0 0
3147 5 4 0.053 11.300171942098293 18.043878769748687 8.579163418467731 0 0 0
3132 5 2 -0.053 11.29028270320856 19.558546010213625 6.9704503779182385 0 0 0
3152 5 4 0.1268 10.253529673392908 17.809847113130893 11.37984013298589 0 0 0
432 1 4 0.1268 5.132716529757347 20.80660541235009 6.439733324584258 1 0 0
3159 5 3 -0.1268 8.368033945292524 20.524384258973484 10.471299557681467 0 0 0
428 1 4 0.1268 7.121076679003717 17.766358530902554 8.767824385331709 1 0 0
3135 5 3 -0.1268 9.040378080069466 20.5176008910179 6.2030351731560724 0 0 0
3151 5 3 -0.1268 9.47041142689616 18.59202123716983 11.341914987234595 0 0 0
427 1 3 -0.1268 6.35392185862893 18.0512583904371 8.031962933808853 1 0 0
431 1 3 -0.1268 5.171887756565775 19.761819852034932 6.762129866507331 1 0 0
3136 5 4 0.1268 8.623068726924302 19.511901227949394 6.3504513800340145 0 0 0
3129 5 1 -0.106 11.361992689712944 18.496757252079338 5.839328832855484 0 0 0
3131 5 4 0.053 12.029203165900586 17.642548560721202 6.05914063425655 0 0 0
3143 5 3 -0.1268 10.961263738266549 21.95257803875752 6.410835212109173 0 0 0
3133 5 4 0.053 12.344611119935678 19.879805291257796 7.273407586676468 0 0 0
3161 5 1 -0.106 12.026448774650554 20.118550897428797 10.235102832593604 0 0 0
3163 5 4 0.053 12.816296278477456 20.52777667195332 9.474305056180016 0 0 0
3122 5 4 0.1268 16.367412966828354 17.694656260330966 4.78881568613517 0 0 0
3121 5 3 -0.1268 15.621629118470471 18.451951120876792 4.863300224992554 0 0 0
6416 10 4 0.1268 12.948418102605597 16.6073676240283 8.486258974342256 1 1 0
3119 5 3 -0.1268 14.309791852125699 18.216162216407596 45.652777805003225 0 0 -1
3120 5 4 0.1268 13.88970313675088 17.187813199818017 45.49721730137416 0 0 -1
6414 10 4 0.1268 15.378950414171142 17.347821485077347 8.396474309247246 1 1 0
3144 5 4 0.1268 11.965314802006386 22.120029111444996 6.712103710284929 0 0 0
3123 5 3 -0.1268 16.060084434980602 19.750965538899088 5.141516243046036 0 0 0