units real
atom_style full
boundary p p p

# --- Force Field Styles ---
pair_style lj/class2/coul/long 9.5 9.5
kspace_style pppm 1e-6
dielectric 1.000000
bond_style class2
angle_style class2
dihedral_style class2
improper_style class2
special_bonds lj/coul 0 0 1
pair_modify mix sixthpower tail yes
neighbor 2.0 bin
neigh_modify delay 0 every 1 check yes
neigh_modify one 4000
# KOKKOS: package loaded via -pk kokkos on the command line

read_data /home/alexzhao/PolyJarvis/data/PVC2/lammps/equil/nvt_production/nvt_production_out.data
Reading data file ...
  orthogonal box = (5.5335563 5.5335563 5.5335563) to (42.851939 42.851939 42.851939)
  1 by 1 by 1 MPI processor grid
  reading atoms ...
  3620 atoms
  reading velocities ...
  3620 velocities
  scanning bonds ...
  4 = max bonds/atom
  scanning angles ...
  12 = max angles/atom
  scanning dihedrals ...
  24 = max dihedrals/atom
  scanning impropers ...
  10 = max impropers/atom
  orthogonal box = (5.5335563 5.5335563 5.5335563) to (42.851939 42.851939 42.851939)
  1 by 1 by 1 MPI processor grid
  reading bonds ...
  3610 bonds
  reading angles ...
  7200 angles
  reading dihedrals ...
  10710 dihedrals
  reading impropers ...
  4800 impropers
Finding 1-2 1-3 1-4 neighbors ...
  special bond factors lj:    0        0        1       
  special bond factors coul:  0        0        1       
     4 = max # of 1-2 neighbors
     6 = max # of 1-3 neighbors
    10 = max # of special neighbors
  special bonds CPU = 0.003 seconds
  read_data CPU = 0.247 seconds
include /home/alexzhao/PolyJarvis/data/PVC2/lammps/equil/emc_build.params
# LAMMPS parameters created by EMC v9.4.4, build Jul 31 2025 20:33:44

# Variables

variable	seed		index	482917
variable	ntotal		index	3620
variable	fshape		index	1
variable	output		index	emc_build
variable	field		index	pcff/pcff
variable	location1	index	~/emc/field/
variable	nav		index	0.6022141179
variable	temperature	index	300
variable	radius		index	5
variable	nrelax		index	100
variable	weight_nonbond	index	0.0001
variable	weight_bond	index	0.0001
variable	weight_focus	index	1
variable	cutoff		index	9.5
variable	charge_cutoff	index	9.5
variable	kappa		index	4
variable	density1	index	0.55
variable	lprevious	index	0
variable	lphase		index	48.3854950346
variable	f_poly		index	10
variable	chem_repeat	index	*CC(Cl)*
variable	chem_cap	index	*[H]
variable	lg_repeat	index	6
variable	lg_cap		index	1
variable	norm_poly	index	100
variable	l_poly		index	362
variable	mg_repeat	index	50.48806
variable	mg_cap		index	1.00797
variable	m_poly		index	3031.29954
variable	n_poly		index	10
variable	mtotal		index	37519.6854
variable	nphase1		index	3620
variable	mphase1		index	37519.6854
variable	vphase1		index	113277.998291
variable	lbox		index	48.3854950346
variable	lphase1		index	48.3854950346
variable	lxx		index	48.3854950346
variable	lyy		index	48.3854950346
variable	lzz		index	48.3854950346
variable	lzy		index	0
variable	lzx		index	0
variable	lyx		index	0
variable	vtotal		index	113277.998291
variable	nl_poly		index	10

# Types

variable	type_c		index	1
variable	type_c1		index	2
variable	type_cl		index	3
variable	type_hc		index	4

variable	type_bond_c_c	index	1
variable	type_bond_c_c1	index	2
variable	type_bond_c_cl	index	3
variable	type_bond_c_hc	index	4
variable	type_bond_c1_cl	index	5
variable	type_bond_c1_hc	index	6

variable	type_angle_c_c_c1 index	1
variable	type_angle_c_c_cl index	2
variable	type_angle_c_c_hc index	3
variable	type_angle_c_c1_c index	4
variable	type_angle_c_c1_cl index	5
variable	type_angle_c_c1_hc index	6
variable	type_angle_c1_c_c1 index	7
variable	type_angle_c1_c_hc index	8
variable	type_angle_cl_c_hc index	9
variable	type_angle_cl_c1_hc index	10
variable	type_angle_hc_c_hc index	11

# Clusters

variable	n0_poly		index	1
variable	n1_poly		index	10
variable	nl_poly		index	10

# Flags

variable	flag_charged	index	1

# Masses

mass		1    12.01115  # c
mass		2    12.01115  # c1
mass		3    35.45300  # cl
mass		4     1.00797  # hc

# Potentials

pair_modify	mix sixthpower tail yes
special_bonds	lj/coul 0 0 1

# Pair Coeffs

pair_coeff	 1  1    0.05400    4.01000  # c,c
pair_coeff	 2  2    0.05400    4.01000  # c1,c1
pair_coeff	 3  3    0.22470    3.92000  # cl,cl
pair_coeff	 4  4    0.02000    2.99500  # hc,hc

# Bond Coeffs

bond_coeff	1    1.53000  299.67000 -501.77000  679.81000  # c,c
bond_coeff	2    1.53000  299.67000 -501.77000  679.81000  # c,c1
bond_coeff	3    1.79000  194.31900    0.00000    0.00000  # c,cl
bond_coeff	4    1.10100  345.00000 -691.89000  844.60000  # c,hc
bond_coeff	5    1.79000  194.31900    0.00000    0.00000  # c1,cl
bond_coeff	6    1.10100  345.00000 -691.89000  844.60000  # c1,hc

# Angle Coeffs

angle_coeff	 1  112.67000   39.51600   -7.44300   -9.55830  # c,c,c1
angle_coeff	 2  107.00000   61.17450    0.00000    0.00000  # c,c,cl
angle_coeff	 3  110.77000   41.45300  -10.60400    5.12900  # c,c,hc
angle_coeff	 4  112.67000   39.51600   -7.44300   -9.55830  # c,c1,c
angle_coeff	 5  107.00000   61.17450    0.00000    0.00000  # c,c1,cl
angle_coeff	 6  110.77000   41.45300  -10.60400    5.12900  # c,c1,hc
angle_coeff	 7  112.67000   39.51600   -7.44300   -9.55830  # c1,c,c1
angle_coeff	 8  110.77000   41.45300  -10.60400    5.12900  # c1,c,hc
angle_coeff	 9  107.99680   51.09870    0.00000    0.00000  # cl,c,hc
angle_coeff	10  107.99680   51.09870    0.00000    0.00000  # cl,c1,hc
angle_coeff	11  107.66000   39.64100  -12.92100   -2.43180  # hc,c,hc

# BondBond Coeffs

angle_coeff	 1 bb    0.00000    1.53000    1.53000  # c,c,c1
angle_coeff	 2 bb    0.00000    1.53000    1.79000  # c,c,cl
angle_coeff	 3 bb    3.38720    1.53000    1.10100  # c,c,hc
angle_coeff	 4 bb    0.00000    1.53000    1.53000  # c,c1,c
angle_coeff	 5 bb    0.00000    1.53000    1.79000  # c,c1,cl
angle_coeff	 6 bb    3.38720    1.53000    1.10100  # c,c1,hc
angle_coeff	 7 bb    0.00000    1.53000    1.53000  # c1,c,c1
angle_coeff	 8 bb    3.38720    1.53000    1.10100  # c1,c,hc
angle_coeff	 9 bb    0.00000    1.79000    1.10100  # cl,c,hc
angle_coeff	10 bb    0.00000    1.79000    1.10100  # cl,c1,hc
angle_coeff	11 bb    5.33160    1.10100    1.10100  # hc,c,hc

# BondAngle Coeffs

angle_coeff	 1 ba    8.01600    8.01600    1.53000    1.53000  # c,c,c1
angle_coeff	 2 ba    0.00000    0.00000    1.53000    1.79000  # c,c,cl
angle_coeff	 3 ba   20.75400   11.42100    1.53000    1.10100  # c,c,hc
angle_coeff	 4 ba    8.01600    8.01600    1.53000    1.53000  # c,c1,c
angle_coeff	 5 ba    0.00000    0.00000    1.53000    1.79000  # c,c1,cl
angle_coeff	 6 ba   20.75400   11.42100    1.53000    1.10100  # c,c1,hc
angle_coeff	 7 ba    8.01600    8.01600    1.53000    1.53000  # c1,c,c1
angle_coeff	 8 ba   20.75400   11.42100    1.53000    1.10100  # c1,c,hc
angle_coeff	 9 ba    0.00000    0.00000    1.79000    1.10100  # cl,c,hc
angle_coeff	10 ba    0.00000    0.00000    1.79000    1.10100  # cl,c1,hc
angle_coeff	11 ba   18.10300   18.10300    1.10100    1.10100  # hc,c,hc

# Dihedral Coeffs

dihedral_coeff	 1    0.00000    0.00000    0.05140    0.00000   -0.14300    0.00000  # c,c,c1,c
dihedral_coeff	 2    0.00000    0.00000    0.00000    0.00000    0.15000    0.00000  # c,c,c1,cl
dihedral_coeff	 3    0.00000    0.00000    0.03160    0.00000   -0.16810    0.00000  # c,c,c1,hc
dihedral_coeff	 4    0.00000    0.00000    0.05140    0.00000   -0.14300    0.00000  # c,c1,c,c1
dihedral_coeff	 5    0.00000    0.00000    0.03160    0.00000   -0.16810    0.00000  # c,c1,c,hc
dihedral_coeff	 6    0.00000    0.00000    0.00000    0.00000    0.15000    0.00000  # c1,c,c,cl
dihedral_coeff	 7    0.00000    0.00000    0.03160    0.00000   -0.16810    0.00000  # c1,c,c,hc
dihedral_coeff	 8    0.00000    0.00000    0.00000    0.00000    0.15000    0.00000  # c1,c,c1,cl
dihedral_coeff	 9    0.00000    0.00000    0.03160    0.00000   -0.16810    0.00000  # c1,c,c1,hc
dihedral_coeff	10    0.00000    0.00000    0.00000    0.00000   -0.10000    0.00000  # cl,c,c,hc
dihedral_coeff	11    0.00000    0.00000    0.00000    0.00000   -0.10000    0.00000  # cl,c1,c,hc
dihedral_coeff	12   -0.14320    0.00000    0.06170    0.00000   -0.10830    0.00000  # hc,c,c,hc
dihedral_coeff	13   -0.14320    0.00000    0.06170    0.00000   -0.10830    0.00000  # hc,c,c1,hc

# MiddleBondTorsion Coeffs

dihedral_coeff	 1 mbt  -17.78700   -7.18770    0.00000    1.53000  # c,c,c1,c
dihedral_coeff	 2 mbt    0.00000    0.00000    0.00000    1.53000  # c,c,c1,cl
dihedral_coeff	 3 mbt  -14.87900   -3.65810   -0.31380    1.53000  # c,c,c1,hc
dihedral_coeff	 4 mbt  -17.78700   -7.18770    0.00000    1.53000  # c,c1,c,c1
dihedral_coeff	 5 mbt  -14.87900   -3.65810   -0.31380    1.53000  # c,c1,c,hc
dihedral_coeff	 6 mbt    0.00000    0.00000    0.00000    1.53000  # c1,c,c,cl
dihedral_coeff	 7 mbt  -14.87900   -3.65810   -0.31380    1.53000  # c1,c,c,hc
dihedral_coeff	 8 mbt    0.00000    0.00000    0.00000    1.53000  # c1,c,c1,cl
dihedral_coeff	 9 mbt  -14.87900   -3.65810   -0.31380    1.53000  # c1,c,c1,hc
dihedral_coeff	10 mbt    0.00000    0.00000    0.00000    1.53000  # cl,c,c,hc
dihedral_coeff	11 mbt    0.00000    0.00000    0.00000    1.53000  # cl,c1,c,hc
dihedral_coeff	12 mbt  -14.26100   -0.53220   -0.48640    1.53000  # hc,c,c,hc
dihedral_coeff	13 mbt  -14.26100   -0.53220   -0.48640    1.53000  # hc,c,c1,hc

# EndBondTorsion Coeffs

dihedral_coeff	 1 ebt   -0.07320    0.00000    0.00000   -0.07320    0.00000    0.00000    1.53000    1.53000  # c,c,c1,c
dihedral_coeff	 2 ebt    0.00000    0.00000    0.00000    0.00000    0.00000    0.00000    1.53000    1.79000  # c,c,c1,cl
dihedral_coeff	 3 ebt    0.24860    0.24220   -0.09250    0.08140    0.05910    0.22190    1.53000    1.10100  # c,c,c1,hc
dihedral_coeff	 4 ebt   -0.07320    0.00000    0.00000   -0.07320    0.00000    0.00000    1.53000    1.53000  # c,c1,c,c1
dihedral_coeff	 5 ebt    0.24860    0.24220   -0.09250    0.08140    0.05910    0.22190    1.53000    1.10100  # c,c1,c,hc
dihedral_coeff	 6 ebt    0.00000    0.00000    0.00000    0.00000    0.00000    0.00000    1.53000    1.79000  # c1,c,c,cl
dihedral_coeff	 7 ebt    0.24860    0.24220   -0.09250    0.08140    0.05910    0.22190    1.53000    1.10100  # c1,c,c,hc
dihedral_coeff	 8 ebt    0.00000    0.00000    0.00000    0.00000    0.00000    0.00000    1.53000    1.79000  # c1,c,c1,cl
dihedral_coeff	 9 ebt    0.24860    0.24220   -0.09250    0.08140    0.05910    0.22190    1.53000    1.10100  # c1,c,c1,hc
dihedral_coeff	10 ebt    0.00000    0.00000    0.00000    0.00000    0.00000    0.00000    1.79000    1.10100  # cl,c,c,hc
dihedral_coeff	11 ebt    0.00000    0.00000    0.00000    0.00000    0.00000    0.00000    1.79000    1.10100  # cl,c1,c,hc
dihedral_coeff	12 ebt    0.21300    0.31200    0.07770    0.21300    0.31200    0.07770    1.10100    1.10100  # hc,c,c,hc
dihedral_coeff	13 ebt    0.21300    0.31200    0.07770    0.21300    0.31200    0.07770    1.10100    1.10100  # hc,c,c1,hc

# AngleTorsion Coeffs

dihedral_coeff	 1 at    0.38860   -0.31390    0.13890    0.38860   -0.31390    0.13890  112.67000  112.67000  # c,c,c1,c
dihedral_coeff	 2 at    0.00000    0.00000    0.00000    0.00000    0.00000    0.00000  112.67000  107.00000  # c,c,c1,cl
dihedral_coeff	 3 at   -0.24540    0.00000   -0.11360    0.31130    0.45160   -0.19880  112.67000  110.77000  # c,c,c1,hc
dihedral_coeff	 4 at    0.38860   -0.31390    0.13890    0.38860   -0.31390    0.13890  112.67000  112.67000  # c,c1,c,c1
dihedral_coeff	 5 at   -0.24540    0.00000   -0.11360    0.31130    0.45160   -0.19880  112.67000  110.77000  # c,c1,c,hc
dihedral_coeff	 6 at    0.00000    0.00000    0.00000    0.00000    0.00000    0.00000  112.67000  107.00000  # c1,c,c,cl
dihedral_coeff	 7 at   -0.24540    0.00000   -0.11360    0.31130    0.45160   -0.19880  112.67000  110.77000  # c1,c,c,hc
dihedral_coeff	 8 at    0.00000    0.00000    0.00000    0.00000    0.00000    0.00000  112.67000  107.00000  # c1,c,c1,cl
dihedral_coeff	 9 at   -0.24540    0.00000   -0.11360    0.31130    0.45160   -0.19880  112.67000  110.77000  # c1,c,c1,hc
dihedral_coeff	10 at    0.00000    0.00000    0.00000    0.00000    0.00000    0.00000  107.00000  110.77000  # cl,c,c,hc
dihedral_coeff	11 at    0.00000    0.00000    0.00000    0.00000    0.00000    0.00000  107.00000  110.77000  # cl,c1,c,hc
dihedral_coeff	12 at   -0.80850    0.55690   -0.24660   -0.80850    0.55690   -0.24660  110.77000  110.77000  # hc,c,c,hc
dihedral_coeff	13 at   -0.80850    0.55690   -0.24660   -0.80850    0.55690   -0.24660  110.77000  110.77000  # hc,c,c1,hc

# AngleAngleTorsion Coeffs

dihedral_coeff	 1 aat  -22.04500  112.67000  112.67000  # c,c,c1,c
dihedral_coeff	 2 aat    0.00000  112.67000  107.00000  # c,c,c1,cl
dihedral_coeff	 3 aat  -16.16400  112.67000  110.77000  # c,c,c1,hc
dihedral_coeff	 4 aat  -22.04500  112.67000  112.67000  # c,c1,c,c1
dihedral_coeff	 5 aat  -16.16400  112.67000  110.77000  # c,c1,c,hc
dihedral_coeff	 6 aat    0.00000  112.67000  107.00000  # c1,c,c,cl
dihedral_coeff	 7 aat  -16.16400  112.67000  110.77000  # c1,c,c,hc
dihedral_coeff	 8 aat    0.00000  112.67000  107.00000  # c1,c,c1,cl
dihedral_coeff	 9 aat  -16.16400  112.67000  110.77000  # c1,c,c1,hc
dihedral_coeff	10 aat    0.00000  107.00000  110.77000  # cl,c,c,hc
dihedral_coeff	11 aat    0.00000  107.00000  110.77000  # cl,c1,c,hc
dihedral_coeff	12 aat  -12.56400  110.77000  110.77000  # hc,c,c,hc
dihedral_coeff	13 aat  -12.56400  110.77000  110.77000  # hc,c,c1,hc

# BondBond13 Coeffs

dihedral_coeff	 1 bb13    0.00000    1.53000    1.53000  # c,c,c1,c
dihedral_coeff	 2 bb13    0.00000    1.53000    1.79000  # c,c,c1,cl
dihedral_coeff	 3 bb13    0.00000    1.53000    1.10100  # c,c,c1,hc
dihedral_coeff	 4 bb13    0.00000    1.53000    1.53000  # c,c1,c,c1
dihedral_coeff	 5 bb13    0.00000    1.53000    1.10100  # c,c1,c,hc
dihedral_coeff	 6 bb13    0.00000    1.53000    1.79000  # c1,c,c,cl
dihedral_coeff	 7 bb13    0.00000    1.53000    1.10100  # c1,c,c,hc
dihedral_coeff	 8 bb13    0.00000    1.53000    1.79000  # c1,c,c1,cl
dihedral_coeff	 9 bb13    0.00000    1.53000    1.10100  # c1,c,c1,hc
dihedral_coeff	10 bb13    0.00000    1.79000    1.10100  # cl,c,c,hc
dihedral_coeff	11 bb13    0.00000    1.79000    1.10100  # cl,c1,c,hc
dihedral_coeff	12 bb13    0.00000    1.10100    1.10100  # hc,c,c,hc
dihedral_coeff	13 bb13    0.00000    1.10100    1.10100  # hc,c,c1,hc

# Improper Coeffs

improper_coeff	 1    0.00000    0.00000  # c,c,cl,hc
improper_coeff	 2    0.00000    0.00000  # c,c,hc,c1
improper_coeff	 3    0.00000    0.00000  # c,c,hc,cl
improper_coeff	 4    0.00000    0.00000  # c,c,hc,hc
improper_coeff	 5    0.00000    0.00000  # c,c1,c1,hc
improper_coeff	 6    0.00000    0.00000  # c,c1,hc,hc
improper_coeff	 7    0.00000    0.00000  # c,cl,hc,hc
improper_coeff	 8    0.00000    0.00000  # c,hc,hc,hc
improper_coeff	 9    0.00000    0.00000  # c1,c,c,cl
improper_coeff	10    0.00000    0.00000  # c1,c,c,hc
improper_coeff	11    0.00000    0.00000  # c1,c,cl,hc

# AngleAngle Coeffs

improper_coeff	 1 aa    0.00000    0.00000    0.00000  107.00000  110.77000  107.99680  # c,c,cl,hc
improper_coeff	 2 aa    0.11840   -1.31990   -1.31990  110.77000  112.67000  110.77000  # c,c,hc,c1
improper_coeff	 3 aa    0.00000    0.00000    0.00000  110.77000  107.00000  107.99680  # c,c,hc,cl
improper_coeff	 4 aa    0.27380   -0.48250    0.27380  110.77000  110.77000  107.66000  # c,c,hc,hc
improper_coeff	 5 aa   -1.31990   -1.31990    0.11840  112.67000  110.77000  110.77000  # c,c1,c1,hc
improper_coeff	 6 aa    0.27380   -0.48250    0.27380  110.77000  110.77000  107.66000  # c,c1,hc,hc
improper_coeff	 7 aa    0.00000    0.00000    0.00000  107.99680  107.99680  107.66000  # c,cl,hc,hc
improper_coeff	 8 aa   -0.31570   -0.31570   -0.31570  107.66000  107.66000  107.66000  # c,hc,hc,hc
improper_coeff	 9 aa    0.00000    0.00000    0.00000  112.67000  107.00000  107.00000  # c1,c,c,cl
improper_coeff	10 aa   -1.31990   -1.31990    0.11840  112.67000  110.77000  110.77000  # c1,c,c,hc
improper_coeff	11 aa    0.00000    0.00000    0.00000  107.00000  110.77000  107.99680  # c1,c,cl,hc


# --- Thermo Output ---
thermo_style custom step time temp press enthalpy etotal ke pe ebond eangle edihed eimp evdwl ecoul elong etail vol lx ly lz density pxx pyy pzz
thermo_modify flush yes
thermo 1000

# --- Trajectory ---
dump dump_npt all custom 1000 npt_production.dump id type mol x y z ix iy iz vx vy vz

# --- Restart Checkpointing ---
# No restart checkpointing

# --- Initial Velocities (optional) ---
# Velocities read from data file

# --- SHAKE Constraints ---
# SHAKE disabled

# --- NPT Thermostat + Barostat (Nose-Hoover) ---
# T_damp = 100.0 fs  (heat bath coupling)
# P_damp = 1000.0 fs  (pressure bath coupling, ~10x T_damp typical)
# Ramp: T=530.0->530.0K  P=1.0->1.0atm
timestep 1.0
fix npt_fix all npt temp 530.0 530.0 100.0 iso 1.0 1.0 1000.0

run 500000
PPPM Kokkos initialization ...
  using 12-bit tables for long-range coulomb
  G vector (1/distance) = 0.29534312
  grid = 25 25 25
  stencil order = 5
  estimated absolute RMS force accuracy = 0.0003538476
  estimated relative force accuracy = 1.0656015e-06
  using double precision cuFFT
  3d grid and FFT values/proc = 32768 15625
Generated 6 of 6 mixed pair_coeff terms from sixthpower/sixthpower mixing rule
Neighbor list info ...
  update: every = 1 steps, delay = 0 steps, check = yes
  max neighbors/atom: 4000, page size: 100000
  master list distance cutoff = 11.5
  ghost atom cutoff = 11.5
  binsize = 11.5, bins = 4 4 4
  1 neighbor lists, perpetual/occasional/extra = 1 0 0
  (1) pair lj/class2/coul/long/kk, perpetual
      attributes: full, newton off, kokkos_device
      pair build: full/bin/kk/device
      stencil: full/bin/3d
      bin: kk/device
Per MPI rank memory allocation (min/avg/max) = 24.29 | 24.29 | 24.29 Mbytes
   Step          Time           Temp          Press         Enthalpy        TotEng         KinEng         PotEng         E_bond        E_angle        E_dihed        E_impro         E_vdwl         E_coul         E_long         E_tail         Volume           Lx             Ly             Lz          Density          Pxx            Pyy            Pzz      
         0   0              538.24484     -665.99831      4682.3128      5187.1106      5806.344      -619.23337      2281.6251      3101.0675     -1878.0486      19.961952     -356.77869     -1561.7191     -2225.3415     -243.49621      51971.881      37.318382      37.318382      37.318382      1.1987809      480.97367     -2044.7332     -434.2354     
      1000   1000           525.91927      584.9856       5492.5133      5043.5761      5673.3812     -629.80514      2312.2298      3046.6365     -1886.2677      18.092266     -356.67571     -1545.4202     -2218.4001     -240.48949      52621.658      37.473263      37.473263      37.473263      1.1839782      964.90068      167.89334      622.16277    
      2000   2000           529.03297      656.3976       5659.1989      5162.8516      5706.9705     -544.11886      2196.2888      3238.876      -1852.5989      20.6547       -376.05347     -1548.0023     -2223.2836     -244.07192      51849.29       37.289017      37.289017      37.289017      1.2016153     -103.03153     -13.051844      2085.2762    
      3000   3000           523.69909      245.9099       5158.9605      4973.5351      5649.431      -675.89586      2147.3542      3148.8866     -1855.4594      21.496672     -356.48652     -1557.0425     -2224.645      -244.76159      51703.193      37.253961      37.253961      37.253961      1.2050106      170.17879      255.80632      311.74461    
      4000   4000           521.10172     -1006.6661      4263.0544      5022.5713      5621.4117     -598.8404       2257.1508      3139.941      -1874.8983      19.58969      -363.07806     -1549.7308     -2227.8148     -244.61578      51734.011      37.261361      37.261361      37.261361      1.2042928     -52.323123     -1606.0215     -1361.6536    
      5000   5000           517.19157     -657.95641      4715.6764      5218.3153      5579.2308     -360.9155       2247.3726      3351.2653     -1891.2252      20.593914     -324.81559     -1543.4656     -2220.641      -241.58925      52382.114      37.416315      37.416315      37.416315      1.1893926      161.35508      580.08525     -2715.3096    
      6000   6000           521.02844     -322.74196      4714.1782      4957.5735      5620.6211     -663.04765      2214.3023      3189.8961     -1900.8386      20.365609     -413.18892     -1550.7725     -2222.8117     -244.72583      51710.748      37.255775      37.255775      37.255775      1.2048346     -821.63706     -66.968264     -79.620544    
      7000   7000           531.30808     -1294.1116      4117.3686      5107.8194      5731.5133     -623.6939       2242.9732      3173.1661     -1901.7725      19.217718     -402.98644     -1538.0657     -2216.2263     -241.14338      52478.969      37.439361      37.439361      37.439361      1.1871974     -1681.9667     -747.7252      -1452.6429    
      8000   8000           539.06097     -736.96695      4624.7965      5180.1041      5815.148      -635.04391      2250.9111      3159.6326     -1902.487       19.202093     -398.73429     -1544.3984     -2219.17       -244.93504      51666.58       37.245165      37.245165      37.245165      1.2058646     -1512.4619      1435.9957     -2134.4347    
      9000   9000           525.25232      295.71554      5275.0539      5050.7995      5666.1865     -615.38709      2171.4927      3238.2713     -1941.8124      21.286432     -353.30465     -1539.274      -2212.0464     -243.37139      51998.534      37.324761      37.324761      37.324761      1.1981664      1075.9693     -365.65808      176.83538    
     10000   10000          518.624        1137.1817      5957.0669      5083.9486      5594.6831     -510.73447      2148.0944      3292.2778     -1907.7834      20.253437     -295.57963     -1551.939      -2216.0581     -240.37722      52646.236      37.479096      37.479096      37.479096      1.1834255     -125.61815      704.13185      2833.0315    
     11000   11000          529.81311     -960.61928      4618.4334      5355.5622      5715.3862     -359.82406      2311.8093      3312.1103     -1893.7388      22.120213     -358.91461     -1535.0147     -2218.1957     -240.51625      52615.804      37.471873      37.471873      37.471873      1.18411       -997.95521     -827.12751     -1056.7751    
     12000   12000          524.00465     -749.14456      4535.837       5103.6274      5652.7271     -549.09971      2264.1685      3193.6298     -1888.3808      20.928545     -388.16888     -1533.9409     -2217.336      -243.50846      51969.266      37.317757      37.317757      37.317757      1.1988412     -1884.7054     -1806.5198      1443.7915    
     13000   13000          540.05903     -2617.8688      3361.833       5356.2965      5825.9146     -469.61813      2355.2996      3155.1952     -1873.0897      21.485615     -386.42205     -1527.5587     -2214.5281     -242.24695      52239.898      37.382422      37.382422      37.382422      1.1926305     -1965.339      -2928.6245     -2959.6431    
     14000   14000          530.81948      2021.7486      6740.0662      5206.4952      5726.2425     -519.74739      2228.7892      3220.272      -1903.0592      20.328655     -337.2796      -1537.2913     -2211.5071     -243.30989      52011.678      37.327905      37.327905      37.327905      1.1978636      2555.5456     -17.711559      3527.4117    
     15000   15000          517.9692       368.18175      5279.6598      4999.0233      5587.6195     -588.59625      2282.0338      3163.0986     -1910.2762      22.349738     -396.06342     -1535.4559     -2214.2829     -242.13333      52264.41       37.388268      37.388268      37.388268      1.1920712     -43.226612     -1594.5126      2742.2845    
     16000   16000          527.09696     -880.55932      4518.5359      5189.6992      5686.0856     -496.38645      2316.3434      3185.3698     -1884.6346      21.944586     -402.94985     -1524.301      -2208.1589     -242.14024      52262.919      37.387913      37.387913      37.387913      1.1921052     -1710.527       792.07399     -1723.2249    
     17000   17000          531.47218      675.28467      5767.543       5259.4717      5733.2836     -473.81186      2199.4366      3263.3128     -1855.532       20.844857     -345.29609     -1540.3217     -2216.2563     -245.30066      51589.572      37.226652      37.226652      37.226652      1.2076646      553.61685      343.251        1128.9862    
     18000   18000          524.24129     -1498.4417      3933.7123      5061.8203      5655.2799     -593.45964      2275.0707      3141.7108     -1888.9241      20.345275     -409.28222     -1524.998      -2207.3821     -245.14652      51622.009      37.234452      37.234452      37.234452      1.2069057     -1783.7735     -2106.139      -605.41266    
     19000   19000          537.99006     -193.58735      5108.7919      5257.5076      5803.5955     -546.0879       2218.27        3159.0301     -1875.7457      19.504981     -340.88621     -1523.5507     -2202.7104     -240.24627      52674.931      37.485904      37.485904      37.485904      1.1827808     -537.90844      1425.4654     -1468.319     
     20000   20000          523.51967      119.14007      5265.1398      5173.2491      5647.4954     -474.24628      2319.4062      3188.1581     -1894.7123      21.131798     -372.85953     -1527.0933     -2208.2773     -239.28898      52885.661      37.535826      37.535826      37.535826      1.1780679     -118.56266     -334.51123      810.4941     
     21000   21000          520.82933      1248.77        5855.7335      4903.4028      5618.4733     -715.07041      2126.5282      3157.0051     -1900.7282      21.050083     -370.34316     -1537.9341     -2210.6483     -242.00884      52291.296      37.394678      37.394678      37.394678      1.1914583      1713.2017      505.53752      1527.5709    
     22000   22000          538.54748      761.52426      5881.0265      5306.2303      5809.6088     -503.37842      2209.3116      3240.6726     -1871.872       21.386557     -366.08833     -1528.902      -2207.8869     -244.51552      51755.226      37.266454      37.266454      37.266454      1.2037992      399.24551      1828.5885      56.738814    
     23000   23000          530.45822      43.814311      5069.4782      5036.2226      5722.3454     -686.12274      2121.2529      3190.1271     -1896.4957      21.202375     -379.88562     -1530.9516     -2211.3723     -243.15803      52044.162      37.335675      37.335675      37.335675      1.197116      -150.01482      592.71858     -311.26083    
     24000   24000          522.41396     -26.203874      5205.457       5225.6464      5635.5676     -409.92117      2243.9853      3290.7469     -1876.4509      19.888093     -344.22786     -1531.8052     -2212.0574     -239.54004      52830.232      37.522708      37.522708      37.522708      1.1793039     -620.99062      507.30505      35.073949    
     25000   25000          526.12557      1439.8303      6270.7655      5183.4441      5675.6067     -492.16268      2252.4332      3191.468      -1868.4197      20.887829     -321.9618      -1548.7464     -2217.8239     -244.39362      51781.039      37.272649      37.272649      37.272649      1.2031991      2926.9264      2075.042      -682.47744    
     26000   26000          526.53604     -473.23613      4745.9903      5111.3719      5680.0347     -568.66281      2313.7238      3068.1914     -1873.6509      19.63504      -332.31487     -1545.7806     -2218.4666     -239.03842      52941.094      37.548936      37.548936      37.548936      1.1768343     -126.08194      1522.0685     -2815.695     
     27000   27000          526.18877     -72.294289      4972.2576      5026.5777      5676.2885     -649.71073      2219.7612      3095.4376     -1846.6109      19.978891     -391.11648     -1530.5349     -2216.6262     -245.62913      51520.582      37.21005       37.21005       37.21005       1.2092817     -786.00382     -981.6605       1550.7815    
     28000   28000          524.4111      -167.77672      5061.5537      5188.3302      5657.1118     -468.78154      2262.1702      3261.5619     -1907.1015      22.624542     -353.19104     -1539.2299     -2215.6158     -244.24709      51812.105      37.280101      37.280101      37.280101      1.2024776      707.60279      2719.0872     -3930.0201    
     29000   29000          523.02871     -910.16015      4162.1591      4851.6835      5642.1992     -790.51573      2214.5715      3067.4699     -1889.4042      18.269953     -447.36205     -1536.9888     -2217.072      -243.61539      51946.455      37.312296      37.312296      37.312296      1.1993676     -393.82396     -2701.5864      364.92994    
     30000   30000          531.06615     -878.4937       4441.831       5099.0824      5728.9035     -629.82112      2216.8568      3209.3304     -1897.5361      20.985299     -439.35792     -1531.3352     -2208.7644     -246.68554      51299.95       37.156858      37.156858      37.156858      1.2144826     -732.35079     -769.49778     -1133.6325    
     31000   31000          529.40112      1556.7251      6332.0843      5172.7026      5710.9419     -538.23926      2264.9768      3198.1844     -1895.5418      21.029489     -363.13997     -1550.0116     -2213.7365     -247.81182      51066.796      37.100481      37.100481      37.100481      1.2200275      2415.6501      3637.6779     -1383.1527    
     32000   32000          531.22192     -13.951825      5128.041       5138.5887      5730.5839     -591.99517      2256.9094      3168.291      -1854.3003      20.918162     -404.31511     -1552.97       -2226.5284     -244.12339      51838.358      37.286396      37.286396      37.286396      1.2018687      113.03095      2208.5391     -2363.4256    
     33000   33000          524.19051     -656.44601      4529.9776      5024.4434      5654.7322     -630.28883      2234.7202      3212.6107     -1933.8199      21.912611     -391.16036     -1548.6104     -2225.9417     -245.01875      51648.928      37.240923      37.240923      37.240923      1.2062767     -1448.2788      442.37516     -963.43435    
     34000   34000          535.02363      755.78497      5847.5848      5276.9764      5771.595      -494.61856      2248.4996      3206.7415     -1871.6224      20.574511     -323.99397     -1553.1539     -2221.664      -244.45371      51768.311      37.269594      37.269594      37.269594      1.2034949      1213.2992      379.78049      674.27519    
     35000   35000          527.11655     -915.1975       4473.8135      5182.4425      5686.297      -503.85449      2287.3227      3176.8136     -1901.7328      20.37494      -334.75464     -1538.305      -2213.5732     -238.35947      53091.894      37.584554      37.584554      37.584554      1.1734917     -2407.7146     -877.93354      540.05566    
     36000   36000          524.72075     -1339.4881      4165.6851      5187.2294      5660.4522     -473.22275      2344.7714      3199.7521     -1900.795       20.302978     -371.58548     -1542.2735     -2223.3953     -242.00156      52292.868      37.395053      37.395053      37.395053      1.1914225     -1402.237      -424.85713     -2191.3701    
     37000   37000          534.871        750.52584      5831.9518      5269.1043      5769.9485     -500.84429      2248.5504      3239.401      -1910.8563      22.454478     -357.27616     -1528.9313     -2214.1865     -246.09989      51422.03       37.186309      37.186309      37.186309      1.2115993      1618.4479     -1123.6484      1756.7781    
     38000   38000          538.00081      1028.5835      6004.917       5216.3485      5803.7115     -587.363        2193.5535      3235.8943     -1907.1012      21.379857     -354.87523     -1554.2556     -2221.9587     -240.73355      52568.31       37.460595      37.460595      37.460595      1.1851798      1605.2631      512.70185      967.78547    
     39000   39000          521.94039     -362.48499      4831.2849      5109.9052      5630.4588     -520.55365      2305.1879      3162.5513     -1904.0122      21.423915     -326.23925     -1554.5446     -2224.9207     -240.11201      52704.386      37.49289       37.49289       37.49289       1.1821198     -17.757132     -1951.6621      881.96431    
     40000   40000          530.03825     -274.13864      5054.7833      5262.2329      5717.815      -455.58207      2349.7492      3181.8847     -1895.0597      21.713441     -348.74077     -1548.0243     -2217.1046     -243.89008      51887.949      37.298283      37.298283      37.298283      1.20072       -470.00633     -591.42929      239.01971    
     41000   41000          523.39393      741.34762      5792.6813      5223.0305      5646.139      -423.10848      2315.0379      3179.1858     -1913.0784      19.250412     -263.47838     -1550.2949     -2209.7309     -240.18713      52687.9        37.48898       37.48898       37.48898       1.1824897      1482.578      -578.71114      1320.176     
     42000   42000          517.39406     -1919.3999      3582.2886      5068.3583      5581.4151     -513.05682      2328.8432      3188.1187     -1911.4933      20.108754     -389.40946     -1537.9901     -2211.2346     -238.37616      53088.178      37.583678      37.583678      37.583678      1.1735739     -3376.906      -1757.1959     -624.09779    
     43000   43000          520.88855      1747.5245      6325.9675      5018.8569      5619.1121     -600.25519      2248.2647      3271.5993     -1951.264       23.868644     -419.01547     -1549.3597     -2224.3486     -246.74448      51287.696      37.153899      37.153899      37.153899      1.2147728      2436.4777      1418.9309      1387.1648    
     44000   44000          539.16153      1147.4527      6010.1154      5131.8506      5816.2328     -684.38224      2187.0431      3151.1515     -1935.6699      21.613256     -342.79884     -1550.497      -2215.2243     -241.12701      52482.532      37.440209      37.440209      37.440209      1.1871169      2473.8244      743.09904      225.43473    
     45000   45000          516.94651      1065.3697      5800.0174      5000.3874      5576.5871     -576.19972      2276.9506      3171.584      -1914.8946      21.669057     -363.79392     -1554.6589     -2213.056      -245.8939       51465.107      37.19669       37.19669       37.19669       1.2105852      112.98314      3010.3303      72.795548    
     46000   46000          529.98851      469.8996       5276.1815      4922.0012      5717.2784     -795.27713      2193.8883      3057.6255     -1885.8357      18.93853      -434.80335     -1534.971      -2210.1194     -244.85968      51682.482      37.248986      37.248986      37.248986      1.2054935      768.30613     -245.68814      887.08083    
     47000   47000          526.44107     -1158.562       4128.5332      5002.8737      5679.0101     -676.13649      2225.4339      3095.7768     -1892.1997      20.200133     -380.25067     -1536.9933     -2208.1038     -244.55426      51747.027      37.264486      37.264486      37.264486      1.2039899     -670.70534     -1248.5464     -1556.4344    
     48000   48000          549.49372      455.79143      5675.9053      5330.9779      5927.6919     -596.71402      2223.9716      3159.1585     -1878.334       20.985928     -358.78941     -1548.037      -2215.6696     -243.87931      51890.239      37.298831      37.298831      37.298831      1.200667       231.29227     -1231.3452      2367.4272    
     49000   49000          514.57282     -1772.4323      3476.62        4822.7506      5550.9809     -728.23033      2180.0828      3072.8539     -1856.7509      19.854466     -394.62373     -1535.215      -2214.4318     -243.00713      52076.48       37.343401      37.343401      37.343401      1.1963731     -1314.817      -3280.1019     -722.37809    
     50000   50000          538.73271     -1522.1791      4013.4647      5160.5946      5811.6069     -651.01229      2164.2098      3249.2587     -1905.3469      21.656037     -419.55236     -1543.1725     -2218.065      -244.90049      51673.869      37.246917      37.246917      37.246917      1.2056945     -1917.9793      564.5594      -3213.1173    
     51000   51000          528.11704     -1520.2515      3971.8477      5150.4949      5697.0898     -546.59494      2199.7312      3204.3674     -1870.6609      21.359474     -357.67307     -1531.9291     -2211.79       -238.04997      53160.921      37.600836      37.600836      37.600836      1.171968      -1424.6477     -2170.1286     -965.97818    
     52000   52000          549.61541      392.00865      5786.6026      5490.5544      5929.0045     -438.45017      2285.6883      3234.0536     -1892.9136      20.831279     -318.06478     -1549.5969     -2218.4481     -244.38227      51783.444      37.273225      37.273225      37.273225      1.2031432      669.98562      2442.0355     -1935.9951    
     53000   53000          533.42622      1065.2297      6004.2231      5182.9065      5754.3628     -571.45632      2203.127       3143.1052     -1871.8504      20.97335      -294.45533     -1552.6411     -2219.7151     -239.36973      52867.82       37.531605      37.531605      37.531605      1.1784654      1058.4794      753.03566      1384.174     
     54000   54000          552.71206     -711.55974      4902.1826      5440.6165      5962.4098     -521.7933       2288.7258      3194.1808     -1890.4088      20.799038     -394.31938     -1534.7301     -2206.0406     -243.90208      51885.395      37.297671      37.297671      37.297671      1.2007791     -1262.0176     -854.07051     -18.591079    
     55000   55000          533.67173      1526.787       6385.5498      5235.0312      5757.0113     -521.98014      2287.2634      3159.9436     -1895.9255      20.627465     -340.40842     -1539.3977     -2214.083      -244.91836      51670.099      37.246011      37.246011      37.246011      1.2057824     -316.89487      3399.524       1497.732     
     56000   56000          514.05018     -176.86569      4884.3931      5019.4858      5545.3428     -525.857        2327.9407      3204.8187     -1911.5139      22.435701     -397.91807     -1547.2069     -2224.4132     -241.62851      52373.603      37.414288      37.414288      37.414288      1.1895859      938.57815     -876.30696     -592.86826    
     57000   57000          530.48136     -503.05198      4776.1519      5160.5573      5722.595      -562.03767      2202.7196      3228.3076     -1917.4611      21.070243     -337.44782     -1539.7226     -2219.5036     -241.52377      52396.316      37.419696      37.419696      37.419696      1.1890702      710.53423     -1511.9799     -707.71024    
     58000   58000          528.08889     -728.78031      4551.9133      5113.3878      5696.7861     -583.39833      2218.737       3192.9942     -1880.1616      21.471024     -390.25454     -1538.4234     -2207.761      -239.55383      52827.191      37.521988      37.521988      37.521988      1.1793718     -610.26716     -570.77155     -1005.3022    
     59000   59000          528.88007      2256.4311      6800.2973      5112.7336      5705.321      -592.58741      2220.8741      3154.546      -1849.6559      21.157992     -386.00033     -1538.5989     -2214.9104     -246.77346      51281.673      37.152445      37.152445      37.152445      1.2149155      4052.3893      1404.975       1311.9291    
     60000   60000          527.63339      2180.3746      6762.4238      5082.2017      5691.8724     -609.67073      2179.6798      3172.9203     -1888.1108      21.549917     -329.58234     -1550.9688     -2215.1589     -239.49748      52839.621      37.524931      37.524931      37.524931      1.1790943      539.61115      4360.1478      1641.3648    
     61000   61000          525.12497      524.55765      5384.8786      4992.4834      5664.8127     -672.32933      2169.9266      3161.4664     -1882.9012      21.150068     -375.59211     -1547.4614     -2218.9177     -246.72099      51292.579      37.155078      37.155078      37.155078      1.2146572      654.98695     -295.17322      1213.8592    
     62000   62000          524.98871     -1215.8501      4175.0522      5084.4235      5663.3428     -578.91924      2282.135       3170.0096     -1863.2161      20.906784     -425.67807     -1544.9623     -2218.1141     -246.7603       51284.407      37.153105      37.153105      37.153105      1.2148507     -1329.643      -460.30685     -1857.6003    
     63000   63000          532.51882     -565.16284      4813.105       5238.3564      5744.5743     -506.21785      2282.8777      3274.5185     -1904.0026      22.412864     -428.51532     -1534.0039     -2219.5051     -245.28125      51593.654      37.227633      37.227633      37.227633      1.207569      -587.50772     -1040.4382     -67.542592    
     64000   64000          530.7614      -1115.7171      4207.1506      5040.25        5725.616      -685.366        2194.4551      3193.7708     -1896.8909      21.754471     -454.76457     -1534.3692     -2209.3217     -247.1689       51199.629      37.132621      37.132621      37.132621      1.2168623     -1759.3589      255.88396     -1843.6764    
     65000   65000          539.20621     -98.917782      5119.1995      5192.1596      5816.7148     -624.55515      2278.5395      3186.4267     -1919.1366      22.838019     -443.85785     -1535.5963     -2213.7686     -250.222        50574.912      36.980977      36.980977      36.980977      1.2318934      1066.3506     -1962.9235      599.81951    
     66000   66000          535.02521     -418.01245      4885.6209      5197.9924      5771.612      -573.61966      2305.3696      3214.8745     -1909.5199      21.671776     -460.09931     -1529.2552     -2216.661      -246.97575      51239.67       37.142298      37.142298      37.142298      1.2159114     -1241.4107     -105.24036      92.613695    
     67000   67000          523.82291     -777.8087       4537.9492      5133.0255      5650.7667     -517.74111      2302.1505      3209.8784     -1908.3735      20.154604     -363.32611     -1555.5354     -2222.6897     -241.23296      52459.481      37.434726      37.434726      37.434726      1.1876385     -1961.5609      1128.6458     -1500.511     
     68000   68000          522.5612       1068.4823      5935.6         5136.8058      5637.1559     -500.3501       2249.5319      3227.582      -1897.8139      20.751954     -341.91053     -1543.8235     -2214.6681     -246.87035      51261.546      37.147583      37.147583      37.147583      1.2153925      1438.7559      1692.9863      73.704852    
     69000   69000          509.82226     -498.00971      4572.3253      4949.0387      5499.7339     -550.69521      2169.5029      3308.4817     -1900.9555      21.700746     -372.34345     -1557.2935     -2219.7882     -243.98511      51867.739      37.293439      37.293439      37.293439      1.2011879     -1399.0897     -1554.6274      1459.6879    
     70000   70000          541.57882     -281.07501      5043.3524      5256.0019      5842.3095     -586.30759      2309.768       3121.7615     -1897.7783      19.23351      -376.79901     -1550.2626     -2212.2306     -243.94638      51875.972      37.295413      37.295413      37.295413      1.2009972      1898.2902     -2818.3387      76.823535    
     71000   71000          519.35272     -548.40397      4586.3837      5000.4903      5602.5443     -602.05398      2191.2823      3212.6071     -1908.356       21.825273     -352.83048     -1550.7086     -2215.8736     -244.41338      51776.854      37.271644      37.271644      37.271644      1.2032963     -687.07655      621.09614     -1579.2315    
     72000   72000          529.83352      134.36074      5248.5766      5147.865       5715.6064     -567.74139      2221.28        3210.1664     -1922.3219      19.980103     -336.37654     -1542.292      -2218.1775     -246.22356      51396.202      37.180082      37.180082      37.180082      1.2122082      1195.9247     -316.92917     -475.9133     
     73000   73000          539.3831      -38.238056      5201.2749      5230.0208      5818.623      -588.60221      2277.8995      3196.7926     -1921.3244      20.335183     -395.3012      -1545.4333     -2221.5706     -245.50221      51547.217      37.216461      37.216461      37.216461      1.2086569      303.23268     -384.92305     -33.023798    
     74000   74000          532.13812     -559.26543      4663.3921      5085.044       5740.4674     -655.42342      2282.2454      3180.9808     -1911.2596      19.92847      -455.20883     -1549.8687     -2222.241      -244.79384      51696.382      37.252325      37.252325      37.252325      1.2051694     -148.03424     -2329.4921      799.73003    
     75000   75000          545.06892     -76.488189      5270.9332      5329.6342      5879.9591     -550.3249       2329.1928      3155.4177     -1932.81        21.931773     -349.07066     -1547.7438     -2227.2427     -240.48345      52622.981      37.473577      37.473577      37.473577      1.1839485     -394.07261     -407.72768      572.33572    
     76000   76000          532.7853       1537.0856      6238.6486      5088.0101      5747.4489     -659.43879      2161.9713      3155.6103     -1906.7815      20.346572     -319.40469     -1548.3475     -2222.8333     -246.54471      51329.253      37.163931      37.163931      37.163931      1.2137893      1132.3678      743.19307      2735.696     
     77000   77000          532.15375     -899.8471       4449.1566      5122.6514      5740.636      -617.98461      2314.5412      3213.6386     -1941.431       22.657583     -465.87869     -1540.9119     -2220.6005     -246.58748      51320.349      37.161782      37.161782      37.161782      1.2139999     -594.4592      -531.38166     -1573.7004    
     78000   78000          539.97519     -2125.9321      3515.4907      5126.1709      5825.0102     -698.8393       2211.5622      3165.5009     -1901.6601      18.758309     -403.20316     -1555.0573     -2234.7401     -243.59962      51949.818      37.313101      37.313101      37.313101      1.19929       -513.64234     -4106.3165     -1757.8376    
     79000   79000          539.78159     -1668.81        4055.6289      5321.9449      5822.9217     -500.97679      2301.0091      3186.5708     -1888.142       20.579527     -349.17328     -1548.7009     -2223.12       -243.22114      52030.657      37.332445      37.332445      37.332445      1.1974267     -561.11364     -2226.2036     -2219.1129    
     80000   80000          531.27831      45.424009      5226.0357      5191.5741      5731.1922     -539.61807      2262.3137      3211.5669     -1899.6685      19.842871     -351.847       -1554.2398     -2227.5861     -243.2688       52020.464      37.330007      37.330007      37.330007      1.1976613     -1574.51       -1176.7312      2887.5132    
     81000   81000          535.16027     -424.71816      4838.3113      5155.6432      5773.069      -617.42581      2309.0125      3161.7172     -1917.5456      19.029139     -406.89441     -1552.909      -2229.8356     -247.01515      51231.497      37.140323      37.140323      37.140323      1.2161054      1906.1566     -2300.0863     -880.22477    
     82000   82000          513.77209     -713.25667      4376.8578      4921.9056      5542.3429     -620.43723      2208.3941      3200.3979     -1915.5175      19.98812      -365.96566     -1547.5473     -2220.187      -241.51701      52397.783      37.420045      37.420045      37.420045      1.1890369     -126.20572     -2414.6896      401.12526    
     83000   83000          537.97896     -11.837098      5192.9864      5201.9414      5803.4757     -601.53436      2261.5338      3184.836      -1906.4626      21.034155     -388.53108     -1546.67       -2227.2747     -243.95913      51873.261      37.294763      37.294763      37.294763      1.20106        1053.7725     -1014.2616     -75.022134    
     84000   84000          537.31625      855.75162      5776.4773      5132.8859      5796.3268     -663.44084      2178.6524      3186.8282     -1898.0088      21.232359     -385.90586     -1546.3981     -2219.8411     -245.39971      51568.747      37.221642      37.221642      37.221642      1.2081522     -192.86812     -131.59214      2891.7151    
     85000   85000          537.28544      107.68591      5304.5922      5222.8612      5795.9944     -573.13321      2139.187       3282.9485     -1890.0891      21.86848      -363.72439     -1540.6918     -2222.6318     -243.1692       52041.77       37.335103      37.335103      37.335103      1.197171       667.43989      489.55854     -833.9407     
     86000   86000          531.70273     -90.986371      5020.7859      5089.4412      5735.7706     -646.32937      2179.3487      3169.3326     -1876.3821      18.981797     -377.68293     -1544.924      -2215.0034     -244.58993      51739.479      37.262674      37.262674      37.262674      1.2041655     -407.25662      1865.2923     -1730.9948    
     87000   87000          538.09714      829.00051      5799.5204      5177.389       5804.7507     -627.36172      2239.8444      3093.9758     -1877.4582      20.789704     -344.5184      -1545.7292     -2214.2657     -245.92868      51457.828      37.194936      37.194936      37.194936      1.2107565      990.27668      1725.9749     -229.25       
     88000   88000          533.61143      426.0116       5510.3915      5182.7705      5756.3609     -573.59033      2184.6194      3236.9299     -1947.4618      21.422336     -308.81506     -1545.6795     -2214.6057     -239.9862       52732.014      37.49944       37.49944       37.49944       1.1815005      431.48688      1080.7589     -234.21101    
     89000   89000          540.39337      1871.9182      6557.7827      5143.9049      5829.5214     -685.61646      2161.2163      3178.1495     -1899.9392      20.341968     -373.27765     -1547.5649     -2224.5423     -244.34953      51790.383      37.27489       37.27489       37.27489       1.202982       1709.5684      2129.4902      1776.6961    
     90000   90000          532.65788      388.69839      5454.1441      5152.337       5746.0743     -593.73734      2175.0212      3165.8026     -1898.8863      19.5861       -288.71403     -1545.3825     -2221.1643     -237.69484      53240.347      37.619553      37.619553      37.619553      1.1702196      1218.732       80.619975     -133.2568     
     91000   91000          520.32199      399.38415      5281.2994      4978.1425      5613.0003     -634.85783      2186.7117      3150.5292     -1870.6086      20.939199     -350.69825     -1549.1789     -2222.5521     -243.14194      52047.605      37.336498      37.336498      37.336498      1.1970368     -335.17593      979.34575      553.98263    
     92000   92000          530.15111     -1339.6569      4124.5474      5162.8531      5719.0325     -556.17938      2343.6046      3079.1628     -1882.3123      18.886118     -340.67528     -1553.9203     -2220.9251     -238.12494      53144.185      37.59689       37.59689       37.59689       1.1723371      192.86166     -2796.6752     -1415.1572    
     93000   93000          526.49331      56.852018      5135.713       5092.3136      5679.5737     -587.2601       2236.3489      3228.4466     -1898.0063      22.028428     -397.69373     -1552.9516     -2225.4323     -241.76818      52343.347      37.407082      37.407082      37.407082      1.1902735     -224.6166       1214.6548     -819.48213    
     94000   94000          520.37083      334.92769      5049.7693      4799.2025      5613.5271     -814.32462      2152.1043      3105.634      -1884.2094      18.817324     -416.51916     -1560.0977     -2230.054      -246.6971       51297.545      37.156277      37.156277      37.156277      1.2145396      1179.5024      54.651885     -229.37124    
     95000   95000          534.97688      399.88428      5430.5018      5123.1971      5771.0907     -647.89358      2175.746       3133.3176     -1875.8077      18.682461     -341.84866     -1539.392      -2218.5913     -240.16053      52693.738      37.490365      37.490365      37.490365      1.1823587      2292.3321     -267.02443     -825.65487    
     96000   96000          531.88049     -466.80815      4860.0073      5215.1231      5737.6882     -522.56514      2248.5832      3241.4844     -1921.245       22.469895     -354.45332     -1541.7031     -2217.7012     -242.6079       52162.175      37.363874      37.363874      37.363874      1.1944076     -131.12906     -259.36555     -1009.9298    
     97000   97000          530.17378      275.60288      5215.7749      5006.4767      5719.2769     -712.80026      2201.9273      3102.0687     -1906.9615      20.282673     -353.8815      -1552.7962     -2223.4398     -243.02716      52072.187      37.342375      37.342375      37.342375      1.1964717     -442.88758     -792.09633      2061.7925    
     98000   98000          531.37083     -2387.501       3333.2812      5164.2085      5732.1902     -567.98166      2383.7135      3143.2958     -1932.9285      19.988085     -401.05121     -1557.6372     -2223.3622     -240.6628       52583.763      37.464265      37.464265      37.464265      1.1848315     -920.73085     -2550.6516     -3691.1204    
     99000   99000          529.83842     -82.151729      5036.6897      5097.8093      5715.6593     -617.85001      2281.6393      3170.3193     -1918.4353      20.407132     -383.22877     -1561.0092     -2227.5425     -248.06934      51013.785      37.087639      37.087639      37.087639      1.2212953      1104.1889      755.86475     -2106.5088    
    100000   100000         515.25917     -1093.9394      4024.7124      4860.6852      5558.3848     -697.69965      2246.9566      3108.1202     -1889.9875      20.442117     -412.7791      -1549.5384     -2220.9136     -241.51139      52399.002      37.420335      37.420335      37.420335      1.1890092     -2421.6184      1220.8326     -2081.0323    
    101000   101000         538.31429     -478.11129      4863.3027      5219.1812      5807.0932     -587.91203      2314.4606      3184.5901     -1883.747       20.036448     -448.14489     -1549.7465     -2225.3609     -247.94983      51038.372      37.093596      37.093596      37.093596      1.220707      -126.41653     -689.41926     -618.49807    
    102000   102000         527.53728      1714.9274      6233.3507      4943.8135      5690.8356     -747.02211      2189.1401      3130.1791     -1921.9564      21.653076     -393.66831     -1552.2083     -2220.1614     -245.44173      51559.92       37.219518      37.219518      37.219518      1.2083591      2192.0371      619.1918       2333.5534    
    103000   103000         531.21691      521.35517      5557.1273      5161.4649      5730.5298     -569.06493      2275.9037      3149.6087     -1903.6571      20.700597     -331.48372     -1556.6909     -2223.4462     -243.18987      52037.347      37.334045      37.334045      37.334045      1.1972728      431.27607     -1486.1748      2618.9642    
    104000   104000         523.57518     -241.51347      4819.5276      5003.4264      5648.0943     -644.6679       2263.5543      3079.0283     -1907.8991      19.936633     -340.86589     -1549.4846     -2208.9375     -242.3813       52210.941      37.375514      37.375514      37.375514      1.193292      -912.02548     -65.75831       253.24337    
    105000   105000         531.73797      558.43037      5533.4407      5108.2041      5736.1508     -627.94669      2217.4459      3162.7801     -1916.8499      19.984231     -338.73676     -1558.8407     -2213.7295     -242.36781      52213.847      37.376207      37.376207      37.376207      1.1932256      561.82586      636.9294       476.53586    
    106000   106000         529.46314      309.47694      5295.1095      5057.3919      5711.6109     -654.219        2201.7712      3110.8492     -1862.8895      21.384712     -352.6388      -1555.8652     -2216.8307     -240.27217      52669.252      37.484557      37.484557      37.484557      1.1829083     -464.28094     -585.36428      1978.076     
    107000   107000         523.10275     -170.145        5158.0673      5288.4345      5642.9979     -354.56338      2315.2143      3272.3173     -1882.9584      21.355788     -334.9071      -1531.8611     -2213.7242     -240.87246      52537.994      37.453393      37.453393      37.453393      1.1858637      495.21987      960.96937     -1966.6242    
    108000   108000         537.19186     -921.30439      4435.4876      5140.2945      5794.9849     -654.69036      2207.6834      3126.1818     -1889.15        20.941378     -367.95423     -1537.7869     -2214.6057     -241.25121      52455.511      37.433782      37.433782      37.433782      1.1877284      462.85434     -2233.0943     -993.67317    
    109000   109000         518.29751     -219.22718      4834.8822      5002.8499      5591.1611     -588.31125      2168.1032      3194.0998     -1868.8734      22.026646     -353.47514     -1538.4479     -2211.7445     -240.88244      52535.816      37.452875      37.452875      37.452875      1.1859128     -404.54447     -91.497794     -161.63926    
    110000   110000         526.72555     -137.03018      5028.2376      5131.6991      5682.079      -550.3799       2244.8951      3171.3907     -1886.3808      20.808584     -345.64929     -1538.3964     -2217.0478     -244.44092      51771.021      37.270245      37.270245      37.270245      1.2034319     -950.54731     -50.490057      589.94681    
    111000   111000         541.8296      -109.50197      5274.8281      5360.6788      5845.0147     -484.3359       2298.9447      3154.0758     -1877.6874      20.016865     -337.45729     -1525.471      -2216.7576     -235.40435      53758.377      37.741172      37.741172      37.741172      1.1589431     -1974.0158      1419.7948      225.71512    
    112000   112000         521.49797     -490.02223      4638.5252      5011.762       5625.6862     -613.92425      2192.3348      3168.6631     -1879.8962      19.753578     -375.0571      -1525.8991     -2213.8233     -242.30807      52226.719      37.379279      37.379279      37.379279      1.1929315     -1380.7389      2168.7519     -2258.0797    
    113000   113000         528.4595       773.34311      5706.7109      5118.722       5700.7841     -582.06218      2241.2766      3147.1997     -1880.9892      22.186602     -345.81411     -1548.8215     -2217.1004     -242.739        52134.003      37.357146      37.357146      37.357146      1.195053       1272.3282      756.16482      291.53632    
    114000   114000         532.37512     -387.33884      4887.2227      5182.6954      5743.0241     -560.32871      2248.8751      3173.8842     -1878.8209      20.427045     -359.54734     -1545.6557     -2219.491      -241.94145      52305.86       37.39815       37.39815       37.39815       1.1911265     -889.25455     -777.29218      504.5302     
    115000   115000         525.46519      879.2743       5882.9996      5214.0773      5668.4829     -454.40554      2292.2055      3235.2637     -1880.5068      21.637723     -366.80258     -1543.4093     -2212.7938     -242.59689      52164.542      37.364439      37.364439      37.364439      1.1943534     -356.9942       1205.9864      1788.8307    
    116000   116000         524.01157      11.720008      5143.7315      5134.6871      5652.8018     -518.11472      2347.1939      3080.2661     -1868.4241      19.667853     -327.67297     -1549.0247     -2220.1208     -239.15838      52914.541      37.542657      37.542657      37.542657      1.1774249      433.20589      338.8857      -736.93156    
    117000   117000         523.09071     -632.60123      4457.8785      4933.4451      5642.868      -709.42299      2235.4464      3094.3898     -1915.7786      19.716765     -388.8513      -1539.0583     -2215.2878     -245.50213      51547.234      37.216465      37.216465      37.216465      1.2086565      137.17983     -1335.2847     -699.69877    
    118000   118000         533.35045     -1434.0824      4205.5965      5316.3444      5753.5455     -437.20107      2314.4108      3171.5626     -1863.8102      20.696026     -312.61551     -1547.3176     -2220.1271     -238.28411      53108.685      37.588516      37.588516      37.588516      1.1731207     -1296.6734     -2614.2989     -391.27485    
    119000   119000         533.60197     -585.59946      4720.2555      5166.6223      5756.2588     -589.63651      2251.5918      3182.7382     -1888.0796      20.707935     -390.59023     -1543.4252     -2222.5794     -242.12818      52265.523      37.388534      37.388534      37.388534      1.1920458     -362.44466     -1939.3119      544.95813    
    120000   120000         529.27749      1067.154       6063.3016      5243.2557      5709.6082     -466.35249      2297.8874      3195.2363     -1905.0515      19.802564     -314.15127     -1542.6698     -2217.4062     -240.17372      52690.843      37.489678      37.489678      37.489678      1.1824236      2693.7315     -86.025316      593.75582    
    121000   121000         519.68478      926.22184      5689.5192      4992.3069      5606.1264     -613.81946      2209.9807      3183.223      -1879.8057      19.919791     -389.2325      -1545.8527     -2212.052      -245.18081      51614.789      37.232716      37.232716      37.232716      1.2070745      1743.2226     -754.41764      1789.8606    
    122000   122000         526.77515      797.35251      5717.1833      5109.8261      5682.6141     -572.78798      2175.4989      3188.6441     -1872.6856      19.912959     -317.31324     -1549.7114     -2217.1338     -242.29401      52229.75       37.380002      37.380002      37.380002      1.1928623      2271.5468     -140.63699      261.14775    
    123000   123000         531.29252     -462.66757      4770.6286      5118.7794      5731.3454     -612.56597      2227.0875      3172.8256     -1864.7909      21.460358     -408.70579     -1539.8628     -2220.58       -245.26644      51596.769      37.228383      37.228383      37.228383      1.2074961      1009.781      -672.77136     -1725.0123    
    124000   124000         534.61449      616.71186      5701.5129      5241.3305      5767.1814     -525.85087      2247.3347      3275.797      -1874.0462      20.688349     -437.7174      -1537.161      -2220.7464     -247.33684      51164.864      37.124215      37.124215      37.124215      1.2176891      1957.707       2327.2292     -2434.8006    
    125000   125000         533.75968      1036.3321      6054.9893      5276.188       5757.9601     -481.77211      2255.4471      3267.4937     -1890.5497      20.365171     -363.75942     -1547.7972     -2222.9717     -245.58895      51529.011      37.212079      37.212079      37.212079      1.2090839      2215.4602     -184.84986      1078.3858    
    126000   126000         532.84277     -73.719573      4987.9551      5043.1069      5748.0689     -704.96201      2172.9562      3175.3932     -1915.7101      22.663769     -373.62502     -1557.2731     -2229.367      -246.69485      51298.014      37.15639       37.15639       37.15639       1.2145285      134.42444      564.28605     -919.86921    
    127000   127000         530.50093     -1838.749       3705.8355      5106.7001      5722.8062     -616.10605      2300.4861      3164.3968     -1879.9317      20.701625     -449.36633     -1543.9382     -2228.4543     -242.24945      52239.359      37.382294      37.382294      37.382294      1.1926429     -524.99477     -2948.7152     -2042.537     
    128000   128000         526.77995     -126.31028      4978.1097      5074.2879      5682.6658     -608.37795      2265.5645      3140.2579     -1889.2594      20.952105     -377.99834     -1549.0058     -2218.8889     -242.38093      52211.02       37.375533      37.375533      37.375533      1.1932902     -2384.7285      658.5885       1347.2091    
    129000   129000         537.34707      465.98666      5571.4052      5222.9974      5796.6592     -573.66184      2255.374       3146.798      -1895.0605      20.56355      -319.91549     -1555.9591     -2225.4623     -246.84376      51267.068      37.148917      37.148917      37.148917      1.2152616      1181.0873      680.54612     -463.67343    
    130000   130000         533.50117      300.22583      5419.8693      5189.258       5755.1713     -565.91332      2267.1755      3119.7048     -1891.5542      19.618875     -317.98532     -1545.5445     -2217.3285     -240.27249      52669.183      37.484541      37.484541      37.484541      1.1829099      1986.2642     -830.48169     -255.10503    
    131000   131000         520.91374      1638.0604      6289.6037      5056.265       5619.3838     -563.1188       2282.4397      3112.3339     -1861.5129      19.995975     -341.92324     -1558.3024     -2216.1498     -245.123        51626.961      37.235643      37.235643      37.235643      1.20679        1585.9741      1645.9983      1682.2088    
    132000   132000         524.19772     -567.35091      4782.1557      5219.6426      5654.8099     -435.1673       2303.1185      3173.2315     -1861.8709      17.434696     -300.99465     -1548.5385     -2217.5481     -239.34436      52873.423      37.532931      37.532931      37.532931      1.1783405      1965.7868     -1741.7221     -1926.1174    
    133000   133000         534.46862     -81.234349      4970.1422      5031.484       5765.6078     -734.12374      2247.1115      3076.4994     -1933.7849      19.248044     -369.34479     -1552.8566     -2220.9964     -244.41036      51777.494      37.271798      37.271798      37.271798      1.2032815     -732.24998     -41.772707      530.31964    
    134000   134000         529.48131      507.14173      5473.5306      5082.9441      5711.8069     -628.86285      2218.2056      3182.9514     -1925.0355      20.311067     -367.31882     -1542.7982     -2215.1784     -239.63411      52809.493      37.517797      37.517797      37.517797      1.179767       746.33809      263.30631      511.78079    
    135000   135000         530.86053      1150.9886      5993.6654      5122.6557      5726.6853     -604.02963      2194.9442      3234.0267     -1895.0913      21.527826     -387.77348     -1548.9962     -2222.6675     -243.8847       51889.092      37.298556      37.298556      37.298556      1.2006936      1489.6122      736.76647      1226.5872    
    136000   136000         543.35846     -95.033319      4939.1863      5009.4099      5861.5074     -852.09745      2189.383       3010.6825     -1876.5872      19.924139     -422.41548     -1546.0912     -2226.9932     -249.76355      50667.744      37.00359       37.00359       37.00359       1.2296363     -1357.3501     -963.80746      2036.0576    
    137000   137000         537.16526      1363.0708      6321.6434      5285.2577      5794.6979     -509.44018      2254.2486      3165.2531     -1869.7787      20.005413     -300.90113     -1552.1616     -2226.1059     -242.73565      52134.723      37.357318      37.357318      37.357318      1.1950365      982.89511      1731.0519      1375.2655    
    138000   138000         515.14846      39.009689      4947.8113      4918.4548      5557.1905     -638.73571      2190.0591      3192.0268     -1896.4339      22.987956     -373.6923      -1546.929      -2226.7545     -245.24804      51600.64       37.229314      37.229314      37.229314      1.2074055      229.21006      10.575883     -122.75687    
    139000   139000         534.92788      1844.8414      6579.4055      5168.1734      5770.5621     -602.38863      2229.9319      3110.1634     -1863.2039      19.908131     -322.34916     -1547.669      -2229.17       -241.26655      52452.177      37.432989      37.432989      37.432989      1.1878039      2069.6466      1.924436       3462.9532    
    140000   140000         529.73464     -392.63497      4827.1512      5126.0176      5714.5397     -588.52215      2262.0282      3125.7975     -1926.6024      19.79882      -304.37443     -1539.7683     -2225.4015     -242.4647       52192.983      37.371228      37.371228      37.371228      1.1937026     -2611.5325      1306.2719      127.35574    
    141000   141000         533.12691      290.4064       5495.7551      5274.871       5751.134      -476.26302      2262.357       3184.7622     -1877.8519      19.881245     -302.98484     -1540.1222     -2222.3045     -242.6489       52153.361      37.361769      37.361769      37.361769      1.1946094      197.80507      519.34767      154.06646    
    142000   142000         526.46878      391.87503      5324.5017      5029.771       5679.3091     -649.53809      2172.0716      3208.2178     -1891.166       21.684267     -382.46797     -1550.013      -2227.8647     -245.39107      51570.564      37.222079      37.222079      37.222079      1.2081097      1878.9529     -570.20573     -133.12206    
    143000   143000         539.74194      709.58166      5920.2597      5371.979       5822.494      -450.51496      2258.3187      3255.0117     -1907.2856      21.104715     -317.44585     -1542.4357     -2217.783      -238.85588      52981.555      37.5585        37.5585        37.5585        1.1759356      1016.0717     -1074.6717      2187.345     
    144000   144000         543.9913       926.26436      5989.3124      5282.9791      5868.3342     -585.35515      2265.6248      3130.2829     -1908.5678      21.660111     -304.26926     -1561.1314     -2228.9545     -242.02588      52287.614      37.393801      37.393801      37.393801      1.1915422      818.94606      346.5451       1613.3019    
    145000   145000         538.84023      1586.1448      6460.866       5258.9681      5812.7667     -553.79866      2252.3249      3176.0802     -1881.9901      21.980526     -350.17251     -1549.7032     -2222.3184     -243.56326      51957.573      37.314958      37.314958      37.314958      1.199111       878.41609      1076.8046      2803.2138    
    146000   146000         527.84235     -802.80141      4563.0602      5171.7939      5694.1266     -522.33265      2241.8361      3228.8899     -1906.936       21.117481     -344.09825     -1542.8219     -2220.3199     -243.39816      51992.817      37.323393      37.323393      37.323393      1.1982982     -262.94008     -123.86896     -2021.5952    
    147000   147000         525.04054      1270.5641      5927.6967      4964.8946      5663.9019     -699.00733      2152.5782      3170.5212     -1886.2958      19.847106     -377.51302     -1552.4886     -2225.6563     -243.55445      51959.452      37.315407      37.315407      37.315407      1.1990676      3424.5867      765.47276     -378.36732    
    148000   148000         533.14102      718.17106      5716.466       5171.9596      5751.2863     -579.32666      2315.0802      3141.6648     -1868.3765      20.725608     -407.99826     -1551.2892     -2229.1334     -243.42291      51987.529      37.322127      37.322127      37.322127      1.1984201     -134.07306      1989.7254      298.86082    
    149000   149000         520.50432      858.74422      5662.2272      5019.0864      5614.9672     -595.88081      2270.306       3161.8888     -1854.3809      20.46209      -412.32329     -1556.4304     -2225.4032     -246.43039      51353.064      37.169677      37.169677      37.169677      1.2132265      1039.4321      219.94982      1316.8507    
    150000   150000         526.38898      1679.179       6343.2821      5077.2181      5678.4482     -601.23011      2211.2337      3170.3053     -1902.3891      20.356418     -325.79162     -1551.9951     -2222.9497     -244.7811       51699.073      37.252971      37.252971      37.252971      1.2051067      1270.0086      1554.4873      2213.0411    
    151000   151000         527.72678     -213.41433      5011.2263      5174.0809      5692.8798     -518.79889      2290.8193      3260.1697     -1914.6668      21.185535     -404.54632     -1553.6328     -2218.1275     -241.85765      52323.984      37.402469      37.402469      37.402469      1.190714       623.1379       546.51048     -1809.8914    
    152000   152000         525.08626     -689.45365      4435.3122      4959.4211      5664.3951     -704.97397      2188.5918      3123.8227     -1880.4306      20.008944     -382.25712     -1552.8022     -2221.9075     -242.78397      52124.347      37.35484       37.35484       37.35484       1.1952744     -2191.4201     -71.570281      194.62944    
    153000   153000         523.11623     -987.67115      4273.0281      5006.3718      5643.1434     -636.77157      2276.9676      3120.3895     -1835.3113      20.993971     -433.16375     -1557.6036     -2229.0439     -248.56577      50911.901      37.062932      37.062932      37.062932      1.2237394     -1522.0123     -2158.399       717.39786    
    154000   154000         525.19345      1036.9253      5866.9991      5087.4036      5665.5515     -578.14789      2281.0346      3189.7758     -1913.3596      20.650412     -385.47513     -1545.469      -2225.305      -245.47919      51552.051      37.217625      37.217625      37.217625      1.2085435      1683.0251      1623.8666     -196.11565    
    155000   155000         534.88476      541.68766      5698.9521      5286.1594      5770.0969     -483.93753      2235.5508      3273.944      -1890.8475      21.13723      -349.56926     -1545.4475     -2228.7053     -242.18849      52252.506      37.38543       37.38543       37.38543       1.1923428     -55.826825      1350.9169      329.9729     
    156000   156000         517.75317      488.7872       5318.1049      4953.0196      5585.2891     -632.26952      2169.6143      3212.2187     -1899.9871      19.796985     -354.64868     -1554.2774     -2224.9863     -247.09384      51215.18       37.13638       37.13638       37.13638       1.2164928      1810.6571      175.75579     -520.05124    
    157000   157000         532.41186     -668.34128      4628.0688      5128.394       5743.4204     -615.02643      2287.9995      3167.8963     -1885.0973      20.28673      -435.03398     -1545.0356     -2226.0421     -246.53721      51330.815      37.164308      37.164308      37.164308      1.2137524     -838.66813     -392.09636     -774.25936    
    158000   158000         548.41311     -1294.3026      4290.6429      5263.1909      5916.0347     -652.84378      2230.2135      3177.7214     -1881.7298      20.158927     -428.80378     -1548.1246     -2222.2794     -245.61862      51522.787      37.210581      37.210581      37.210581      1.20923       -948.37624     -2187.3495     -747.18214    
    159000   159000         534.03106     -183.8963       4908.5384      5047.2173      5760.8876     -713.67028      2197.6566      3180.2016     -1915.6111      21.753985     -417.23901     -1551.8402     -2228.5921     -244.7366       51708.472      37.255229      37.255229      37.255229      1.2048876      708.7713      -641.61856     -618.84163    
    160000   160000         530.71082      621.82479      5586.6206      5115.2855      5725.0704     -609.78482      2214.7627      3210.1642     -1867.0801      22.500359     -416.09078     -1549.1928     -2224.8483     -243.48647      51973.958      37.31888       37.31888       37.31888       1.198733       64.615253      2573.1416     -772.28249    
    161000   161000         529.57623     -768.44         4647.7384      5229.6749      5712.8309     -483.15599      2245.6872      3250.3483     -1896.1118      21.249078     -328.14919     -1552.7468     -2223.4327     -243.70863      51926.579      37.307536      37.307536      37.307536      1.1998267     -912.71542     -1080.0449     -312.55973    
    162000   162000         536.958       -1171.6362      4405.9679      5313.6133      5792.4621     -478.84883      2331.6944      3202.6741     -1906.2763      20.743228     -362.7818      -1544.1582     -2220.7443     -238.23913      53118.713      37.590882      37.590882      37.590882      1.1728992     -1308.8663     -2198.3316     -7.7108055    
    163000   163000         534.92765     -1213.083       4292.3135      5219.5047      5770.5596     -551.05487      2293.6439      3221.2778     -1916.3504      22.032941     -391.44083     -1553.1059     -2227.1124     -241.46697      52408.642      37.42263       37.42263       37.42263       1.1887905     -44.379023     -2520.1952     -1074.6748    
    164000   164000         524.47347      1076.571       5868.3064      5051.7106      5657.7846     -606.07392      2222.0614      3226.6849     -1913.2805      20.756817     -390.50492     -1547.1067     -2224.6849     -243.31679      52010.203      37.327553      37.327553      37.327553      1.1978976      236.69276      1564.8351      1428.1852    
    165000   165000         551.13961      1323.1639      6203.9605      5221.1941      5945.447      -724.25287      2149.7746      3231.9514     -1900.6529      21.420986     -452.72007     -1550.4963     -2223.5305     -248.48483      50928.485      37.066956      37.066956      37.066956      1.2233409      1136.8904      1936.3314      896.26992    
    166000   166000         526.06708     -1152.0308      4158.1835      5030.526       5674.9758     -644.44979      2209.0028      3222.9967     -1895.7158      19.859267     -449.87729     -1534.1925     -2216.5229     -243.73258      51921.477      37.306314      37.306314      37.306314      1.1999446     -658.91896     -1924.8092     -872.36434    
    167000   167000         530.143        565.68772      5542.5941      5112.1325      5718.945      -606.81248      2217.8822      3147.9157     -1886.2858      21.378259     -339.4807      -1546.4128     -2221.8094     -242.53746      52177.325      37.367491      37.367491      37.367491      1.1940608      2032.1022      568.69143     -903.73046    
    168000   168000         531.80106     -906.25371      4601.682       5295.6773      5736.8313     -441.15405      2312.1875      3271.0166     -1907.7937      21.848004     -375.09843     -1540.5845     -2222.7296     -241.00706      52508.651      37.446419      37.446419      37.446419      1.1865263     -1065.486      -1362.2018     -291.07338    
    169000   169000         518.95967     -92.786133      4929.1461      4999.5633      5598.3042     -598.74088      2241.0141      3242.6299     -1890.6297      22.052458     -442.699       -1543.9683     -2227.1403     -243.18715      52037.93       37.334185      37.334185      37.334185      1.1972594     -1789.2355      2003.5702     -492.69306    
    170000   170000         527.51086      395.95102      5459.2367      5156.9826      5690.5506     -533.56809      2286.5067      3217.2312     -1899.5228      21.776384     -377.74253     -1560.4036     -2221.4135     -241.77182      52342.559      37.406894      37.406894      37.406894      1.1902914     -1569.1575      1908.3922      848.61831    
    171000   171000         542.36732      76.14767       5361.6816      5304.2869      5850.8155     -546.52863      2307.8508      3202.2602     -1921.0711      22.966305     -385.05166     -1549.2855     -2224.1977     -244.86167      51682.061      37.248885      37.248885      37.248885      1.2055034      337.2423      -1269.1493      1160.35      
    172000   172000         536.00808      1271.832       6129.4589      5169.0749      5782.2148     -613.13984      2303.9218      3153.3458     -1917.8827      22.215649     -393.15408     -1557.8677     -2223.7186     -244.41135      51777.283      37.271747      37.271747      37.271747      1.2032864     -104.30938      84.606375      3835.1991    
[...]
    455000   455000         522.47709      2595.421       6993.1858      5058.105       5636.2485     -578.14353      2138.8486      3318.846      -1908.8811      22.654647     -356.54769     -1564.6667     -2228.3973     -247.53991      51122.89       37.11406       37.11406       37.11406       1.2186889      3777.4062      1960.8561      2048.0006    
    456000   456000         536.35614      1462.414       6253.7323      5140.4845      5785.9695     -645.48499      2108.3305      3255.1559     -1916.0861      19.96177      -324.20942     -1559.138      -2229.4997     -242.44598      52197.011      37.37219       37.37219       37.37219       1.1936104      1841.4798      902.11453      1643.6476    
    457000   457000         539.29528      1045.2755      5930.0313      5137.3356      5817.6757     -680.34012      2244.5912      3094.0284     -1882.5286      19.195299     -389.95383     -1547.2473     -2218.4253     -243.36649      51999.583      37.325012      37.325012      37.325012      1.1981423      1536.1083      594.88056      1004.8376    
    458000   458000         529.3059       274.14848      5276.1958      5066.6829      5709.9147     -643.23179      2168.5286      3176.9121     -1877.478       20.910351     -357.38027     -1554.5075     -2220.2171     -241.49693      52402.139      37.421082      37.421082      37.421082      1.1889381     -366.40069      1341.7244     -152.87827    
    459000   459000         526.08369      590.47983      5578.4256      5133.8807      5675.1549     -541.27417      2231.5273      3214.7299     -1897.2889      22.391605     -334.96123     -1558.1703     -2219.5026     -245.14668      51621.975      37.234444      37.234444      37.234444      1.2069065     -1365.9337      531.42104      2605.9521    
    460000   460000         521.77766      271.2472       5319.4262      5116.3881      5628.7034     -512.3153       2321.7294      3191.6019     -1903.8061      20.734622     -370.51639     -1549.3184     -2222.7403     -246.56098      51325.866      37.163114      37.163114      37.163114      1.2138694     -324.93496      12.512203      1126.1644    
    461000   461000         521.20778     -763.05943      4478.9029      5051.8469      5622.5558     -570.70889      2265.4807      3219.794      -1880.9562      20.69322      -440.51503     -1538.802      -2216.4036     -245.80049      51484.664      37.201401      37.201401      37.201401      1.2101254     -839.7322       483.84653     -1933.2926    
    462000   462000         525.39151      236.76075      5232.9289      5056.9072      5667.688      -610.78079      2203.6712      3299.6298     -1928.5448      22.502531     -435.40189     -1548.9776     -2223.6601     -248.24466      50977.756      37.078905      37.078905      37.078905      1.2221585      789.92478     -821.81412      742.1716     
    463000   463000         535.37953     -2056.0605      3527.3239      5073.1482      5775.4343     -702.28605      2223.015       3159.0687     -1896.2389      21.988081     -447.08895     -1538.8888     -2224.1412     -245.47784      51552.335      37.217693      37.217693      37.217693      1.2085369     -2051.9467     -1936.4967     -2179.7381    
    464000   464000         536.90629     -860.17584      4592.1688      5246.6382      5791.9043     -545.26611      2207.1453      3269.4929     -1923.1874      22.655508     -375.69773     -1534.1927     -2211.482      -242.56848      52170.652      37.365898      37.365898      37.365898      1.1942135      196.53439     -2130.0245     -647.03744    
    465000   465000         524.49531     -404.44334      4742.7551      5051.3199      5658.0202     -606.70038      2284.6977      3235.1814     -1952.3967      22.506093     -435.48256     -1540.9275     -2220.2788     -241.9067       52313.374      37.399941      37.399941      37.399941      1.1909554      965.01049     -201.61497     -1976.7255    
    466000   466000         531.52989      428.14499      5484.8121      5164.9931      5733.9061     -568.91296      2320.4169      3181.9387     -1883.6968      20.567057     -429.9687      -1553.1617     -2225.0084     -247.07178      51219.754      37.137485      37.137485      37.137485      1.2163842      851.57623      1509.7317     -1076.8729    
    467000   467000         531.09322     -258.89205      4933.2154      5128.2952      5729.1955     -600.90026      2243.1509      3210.7413     -1901.0088      21.407664     -393.81497     -1557.0255     -2224.3508     -244.93054      51667.528      37.245393      37.245393      37.245393      1.2058424      915.68632     -2224.6805      532.31806    
    468000   468000         525.32374      488.5275       5432.495       5064.3297      5666.9569     -602.62724      2192.3357      3303.5047     -1916.6752      23.030022     -424.9367      -1552.8811     -2227.0047     -244.89654      51674.702      37.247117      37.247117      37.247117      1.205675       2288.4754     -2353.0262      1530.1333    
    469000   469000         535.96723      940.5148       5917.4558      5213.8916      5781.7741     -567.8825       2207.1041      3250.0147     -1920.4995      22.860267     -356.00026     -1545.8699     -2225.4918     -246.71662      51293.487      37.155297      37.155297      37.155297      1.2146357      3005.6699     -578.86007      394.7346     
    470000   470000         531.38487      545.07049      5724.0953      5304.7267      5732.3416     -427.61498      2235.7488      3309.3134     -1915.6061      20.291221     -316.96735     -1536.3641     -2224.0308     -239.87956      52755.457      37.504996      37.504996      37.504996      1.1809754      889.07866      2055.2648     -1309.132     
    471000   471000         522.18767      1321.79        6067.7043      5077.1557      5633.1264     -555.97069      2180.1455      3235.0481     -1878.8537      21.712947     -332.90053     -1555.3973     -2225.7256     -246.27661      51385.131      37.177412      37.177412      37.177412      1.2124694      2223.9041      714.17071      1027.2952    
    472000   472000         545.68322      69.565721      5275.9479      5222.8251      5886.5859     -663.76077      2246.6879      3150.1187     -1895.2231      20.739138     -412.59918     -1545.522      -2227.9622     -241.68576      52361.198      37.411334      37.411334      37.411334      1.1898677      479.75918     -341.94727      70.88525     
    473000   473000         543.48496     -1683.2051      4004.368       5278.6664      5862.8721     -584.20568      2323.6737      3125.6851     -1869.9572      20.36456      -413.89542     -1544.2865     -2225.79       -243.78244      51910.858      37.303771      37.303771      37.303771      1.2001901     -3742.4137      913.32272     -2220.5245    
    474000   474000         524.99713     -1645.8157      3893.9886      5143.8084      5663.4337     -519.62528      2249.4997      3289.1984     -1894.2443      21.212758     -415.77426     -1540.3816     -2229.136      -243.03584      52070.328      37.341931      37.341931      37.341931      1.1965144     -508.97738     -2026.9174     -2401.5524    
    475000   475000         534.13611      288.42744      5622.6064      5406.2893      5762.0209     -355.73154      2346.9047      3301.0653     -1882.5717      22.172164     -377.58014     -1540.9395     -2224.7824     -246.08344      51425.467      37.187137      37.187137      37.187137      1.2115184      597.76483      367.52691     -100.00941    
    476000   476000         522.64638     -62.764811      5061.4343      5109.6934      5638.0748     -528.38135      2237.7427      3190.0472     -1875.5038      22.610863     -342.03389     -1542.6975     -2218.547      -240.0342       52721.469      37.49694       37.49694       37.49694       1.1817368     -1702.514      -63.003818      1577.2234    
    477000   477000         520.20219      241.99156      5359.6131      5176.5418      5611.708      -435.16615      2305.3188      3204.0951     -1867.5068      20.724526     -327.78822     -1550.0195     -2219.9899     -243.95888      51873.315      37.294776      37.294776      37.294776      1.2010587      480.47265      198.5328       46.969237    
    478000   478000         532.49745     -539.57993      4765.5448      5178.5065      5744.3437     -565.83718      2257.4076      3133.0327     -1876.366       20.097837     -324.76651     -1550.3578     -2224.885      -241.14735      52478.104      37.439156      37.439156      37.439156      1.187217       374.02717     -971.52833     -1021.2386    
    479000   479000         519.39843     -156.05889      4822.9642      4941.6846      5603.0373     -661.35272      2244.5579      3158.45       -1919.1803      21.218799     -393.6378      -1551.6753     -2221.0859     -242.60489      52162.822      37.364028      37.364028      37.364028      1.1943928     -1161.9613     -51.889017      745.67358    
    480000   480000         545.50515      712.80372      5821.3101      5277.5967      5884.6649     -607.06826      2203.95        3138.5578     -1861.4936      20.374868     -327.45476     -1554.9574     -2226.0451     -241.956        52302.716      37.3974        37.3974        37.3974        1.1911981      1290.9105      926.69703     -79.196371    
    481000   481000         531.52647      503.03233      5448.1064      5062.5068      5733.8692     -671.36236      2180.0411      3159.7693     -1895.8785      21.818557     -362.7677      -1550.5501     -2223.795      -240.76643      52561.131      37.45889       37.45889       37.45889       1.1853416      3349.7822     -1398.4849     -442.20028    
    482000   482000         530.93593     -22.666036      5122.0626      5138.9991      5727.4987     -588.49966      2256.341       3203.8915     -1892.9781      21.895387     -404.77783     -1550.829      -2222.0426     -246.99636      51235.394      37.141265      37.141265      37.141265      1.2160129      322.00994     -1199.1948      809.18672    
    483000   483000         526.34352      997.09069      5903.7582      5164.8181      5677.9579     -513.13972      2328.8722      3201.2379     -1887.033       20.729103     -392.88009     -1558.8002     -2225.2656     -249.03592      50815.786      37.039594      37.039594      37.039594      1.226054      -470.75209      1183.129       2278.8951    
    484000   484000         531.40814      1200.437       6068.3809      5155.3403      5732.5927     -577.25243      2256.6667      3209.0729     -1923.4858      21.706321     -371.3344      -1551.4675     -2218.4106     -242.65307      52152.466      37.361556      37.361556      37.361556      1.19463        2670.0022      235.3122       695.99655    
    485000   485000         543.25171      145.21368      5372.6263      5262.9612      5860.3558     -597.39456      2172.6111      3237.4687     -1897.5878      22.467135     -356.63339     -1556.3332     -2219.387      -244.38566      51782.725      37.273053      37.273053      37.273053      1.2031599      274.16817      146.7708       14.702079    
    486000   486000         525.33043     -478.89988      4768.3612      5131.6464      5667.0291     -535.38267      2274.1029      3157.2381     -1871.3551      20.615321     -349.20495     -1547.5548     -2219.2241     -243.29519      52014.82       37.328657      37.328657      37.328657      1.1977913     -1317.0531     -1461.2989      1341.6523    
    487000   487000         528.5854      -546.28046      4543.6161      4961.1312      5702.1422     -741.01098      2234.2537      3079.4904     -1885.5765      21.637151     -425.43935     -1540.0319     -2225.3445     -241.47932      52405.961      37.421992      37.421992      37.421992      1.1888514     -61.829693     -2324.9619      747.95024    
    488000   488000         527.91758     -229.54595      4986.8528      5159.1354      5694.9381     -535.80269      2259.7785      3220.4643     -1892.9708      20.673233     -367.536       -1550.1354     -2226.0765     -245.90349      51463.1        37.196206      37.196206      37.196206      1.2106324      816.9782      -2578.5402      1072.9241    
    489000   489000         521.92805      536.48774      5357.1324      4950.9754      5630.3258     -679.35042      2120.3509      3144.2947     -1843.9832      19.972392     -345.88021     -1552.7261     -2221.3789     -243.78241      51910.865      37.303773      37.303773      37.303773      1.2001899      1358.8762     -178.73976      429.32683    
    490000   490000         529.3397       284.86807      5388.5769      5173.5438      5710.2793     -536.73553      2324.9897      3174.9351     -1902.6827      21.143023     -359.77363     -1559.2505     -2236.0966     -244.49776      51758.985      37.267356      37.267356      37.267356      1.2037117      544.31203      6.9330414      303.35913    
    491000   491000         527.25708      1002.2776      5866.1136      5109.3979      5687.813      -578.41501      2193.8178      3248.3059     -1935.746       22.522139     -337.46055     -1546.6117     -2223.2426     -244.45098      51768.889      37.269733      37.269733      37.269733      1.2034815      2009.5187      153.24695      844.06704    
    492000   492000         515.29287      1168.6766      5870.1756      4989.7452      5558.7484     -569.00322      2313.1684      3165.4517     -1883.5871      20.680975     -416.45352     -1546.5344     -2221.7293     -244.98296      51656.474      37.242737      37.242737      37.242737      1.2061005      1230.477       1749.1814      526.37152    
    493000   493000         535.40439     -65.300389      5126.1764      5175.3551      5775.7025     -600.34737      2192.8798      3239.8036     -1867.2632      22.209293     -386.79424     -1570.3871     -2230.7955     -245.06136      51639.947      37.238764      37.238764      37.238764      1.2064865      1363.5133     -809.98322     -749.43122    
    494000   494000         521.08054      736.904        5702.2083      5144.0422      5621.1832     -477.141        2335.932       3178.0981     -1905.8229      20.740163     -332.94741     -1551.2357     -2221.9053     -243.65987      51936.971      37.310025      37.310025      37.310025      1.1995867      1396.3934     -786.14784      1600.4665    
    495000   495000         533.69355      836.31705      5645.0137      5009.785       5757.2467     -747.46173      2133.5636      3107.8311     -1862.5206      19.661149     -364.10072     -1557.1185     -2224.7778     -242.9838       52081.479      37.344596      37.344596      37.344596      1.1962582      861.58432      2045.2687     -397.90191    
    496000   496000         529.60915     -779.61129      4570.4181      5170.3509      5713.1861     -542.83519      2236.0398      3174.3368     -1858.2877      21.06922      -343.94574     -1550.0071     -2222.0404     -239.83472      52765.32       37.507334      37.507334      37.507334      1.1807547     -271.3642       529.85195     -2597.3216    
    497000   497000         527.49197     -556.95835      4710.4354      5132.9627      5690.3468     -557.3841       2244.8012      3231.6202     -1868.3529      20.419105     -414.26877     -1545.7589     -2225.8441     -243.27891      52018.302      37.32949       37.32949       37.32949       1.1977111     -788.08562      497.37159     -1380.161     
    498000   498000         530.70607      134.13577      5305.6582      5203.5996      5725.0191     -521.41948      2226.6549      3251.321      -1891.2527      21.168085     -371.44543     -1541.6747     -2216.1907     -242.56679      52171.016      37.365985      37.365985      37.365985      1.1942052      2463.8662     -1371.7239     -689.73493    
    499000   499000         523.87313      716.12113      5534.7906      4995.3328      5651.3084     -655.97555      2218.6526      3145.6862     -1898.0962      19.765228     -373.77659     -1545.5606     -2222.6462     -244.9997       51652.943      37.241888      37.241888      37.241888      1.2061829     -482.27376      1626.3173      1004.3198    
    500000   500000         540.26818      822.89237      6041.1011      5419.4318      5828.1708     -408.73902      2337.6201      3294.7009     -1904.7528      22.093343     -374.71551     -1552.7851     -2230.9        -244.29811      51801.284      37.277506      37.277506      37.277506      1.2027288      711.187        2281.3366     -523.8465     
Loop time of 945.743 on 1 procs for 500000 steps with 3620 atoms

Performance: 45.678 ns/day, 0.525 hours/ns, 528.685 timesteps/s, 1.914 Matom-step/s
100.0% CPU use with 1 MPI tasks x 1 OpenMP threads

MPI task timing breakdown:
Section |  min time  |  avg time  |  max time  |%varavg| %total
---------------------------------------------------------------
Pair    | 61.028     | 61.028     | 61.028     |   0.0 |  6.45
Bond    | 116.11     | 116.11     | 116.11     |   0.0 | 12.28
Kspace  | 495.35     | 495.35     | 495.35     |   0.0 | 52.38
Neigh   | 64.219     | 64.219     | 64.219     |   0.0 |  6.79
Comm    | 17.484     | 17.484     | 17.484     |   0.0 |  1.85
Output  | 2.8892     | 2.8892     | 2.8892     |   0.0 |  0.31
Modify  | 168.07     | 168.07     | 168.07     |   0.0 | 17.77
Other   |            | 20.6       |            |       |  2.18

Nlocal:           3620 ave        3620 max        3620 min
Histogram: 1 0 0 0 0 0 0 0 0 0
Nghost:          11638 ave       11638 max       11638 min
Histogram: 1 0 0 0 0 0 0 0 0 0
Neighs:              0 ave           0 max           0 min
Histogram: 1 0 0 0 0 0 0 0 0 0
FullNghs:  1.60355e+06 ave 1.60355e+06 max 1.60355e+06 min
Histogram: 1 0 0 0 0 0 0 0 0 0

Total # of neighbors = 1603554
Ave neighs/atom = 442.97072
Ave special neighs/atom = 5.9723757
Neighbor list builds = 19606
Dangerous builds = 0

# --- Cleanup ---
unfix npt_fix

undump dump_npt

# --- Write Output ---
write_dump all custom npt_production_last.dump id type mol x y z xu yu zu vx vy vz modify sort id
write_data /home/alexzhao/PolyJarvis/data/PVC2/lammps/equil/npt_production/npt_production_out.data
System init for write_data ...
PPPM Kokkos initialization ...
  using 12-bit tables for long-range coulomb
  G vector (1/distance) = 0.2954253
  grid = 25 25 25
  stencil order = 5
  estimated absolute RMS force accuracy = 0.00035274192
  estimated relative force accuracy = 1.0622718e-06
  using double precision cuFFT
  3d grid and FFT values/proc = 32768 15625
Generated 6 of 6 mixed pair_coeff terms from sixthpower/sixthpower mixing rule

print "STAGE COMPLETE: NPT T=530.0->530.0K P=1.0->1.0atm steps=500000"
STAGE COMPLETE: NPT T=530.0->530.0K P=1.0->1.0atm steps=500000
quit
  2.18

Nlocal:           3620 ave        3620 max        3620 min
Histogram: 1 0 0 0 0 0 0 0 0 0
Nghost:          11638 ave       11638 max       11638 min
Histogram: 1 0 0 0 0 0 0 0 0 0
Neighs:              0 ave           0 max           0 min
Histogram: 1 0 0 0 0 0 0 0 0 0
FullNghs:  1.60355e+06 ave 1.60355e+06 max 1.60355e+06 min
Histogram: 1 0 0 0 0 0 0 0 0 0

Total # of neighbors = 1603554
Ave neighs/atom = 442.97072
Ave special neighs/atom = 5.9723757
Neighbor list builds = 19606
Dangerous builds = 0
System init for write_data ...
PPPM Kokkos initialization ...
  using 12-bit tables for long-range coulomb
  G vector (1/distance) = 0.2954253
  grid = 25 25 25
  stencil order = 5
  estimated absolute RMS force accuracy = 0.00035274192
  estimated relative force accuracy = 1.0622718e-06
  using double precision cuFFT
  3d grid and FFT values/proc = 32768 15625
Generated 6 of 6 mixed pair_coeff terms from sixthpower/sixthpower mixing rule
STAGE COMPLETE: NPT T=530.0->530.0K P=1.0->1.0atm steps=500000
