units real
atom_style full
boundary p p p

# --- Force Field Styles ---
pair_style lj/class2/coul/long 9.5 9.5
kspace_style pppm 1e-6
dielectric 1.000000
bond_style class2
angle_style class2
dihedral_style class2
improper_style class2
special_bonds lj/coul 0 0 1
pair_modify mix sixthpower tail yes
neighbor 2.0 bin
neigh_modify delay 0 every 1 check yes
neigh_modify one 4000
# KOKKOS: package loaded via -pk kokkos on the command line

read_data /home/alexzhao/PolyJarvis/data/PS4/lammps/equil/npt_prod300/npt_prod300_out.data
Reading data file ...
  orthogonal box = (4.7668088 4.7668088 4.7668088) to (45.967876 45.967876 45.967876)
  1 by 1 by 1 MPI processor grid
  reading atoms ...
  6420 atoms
  reading velocities ...
  6420 velocities
  scanning bonds ...
  4 = max bonds/atom
  scanning angles ...
  14 = max angles/atom
  scanning dihedrals ...
  34 = max dihedrals/atom
  scanning impropers ...
  11 = max impropers/atom
  orthogonal box = (4.7668088 4.7668088 4.7668088) to (45.967876 45.967876 45.967876)
  1 by 1 by 1 MPI processor grid
  reading bonds ...
  6810 bonds
  reading angles ...
  12000 angles
  reading dihedrals ...
  19110 dihedrals
  reading impropers ...
  5600 impropers
Finding 1-2 1-3 1-4 neighbors ...
  special bond factors lj:    0        0        1       
  special bond factors coul:  0        0        1       
     4 = max # of 1-2 neighbors
     8 = max # of 1-3 neighbors
    12 = max # of special neighbors
  special bonds CPU = 0.004 seconds
  read_data CPU = 0.412 seconds


# --- Thermo Output ---
thermo_style custom step time temp press enthalpy etotal ke pe ebond eangle edihed eimp evdwl ecoul elong etail vol lx ly lz density pxx pyy pzz
thermo_modify flush yes
thermo 100

# --- Trajectory ---
dump dump_npt all custom 1000 /home/alexzhao/PolyJarvis/data/PS4/lammps/mechanical/bm_series/bm_P500/bm_P500.dump id type mol x y z ix iy iz vx vy vz

# --- Restart Checkpointing ---
restart 10000 npt_1.rst npt_2.rst

# --- Initial Velocities (optional) ---
# Velocities read from data file

# --- SHAKE Constraints ---
fix shake_fix all shake 1e-4 1000 0 m 1.008
Finding SHAKE clusters ...
    2390 = # of size 2 clusters
     400 = # of size 3 clusters
      10 = # of size 4 clusters
       0 = # of frozen angles
  find clusters CPU = 0.002 seconds

# --- NPT Thermostat + Barostat (Nose-Hoover) ---
# T_damp = 100.0 fs  (heat bath coupling)
# P_damp = 1000.0 fs  (pressure bath coupling, ~10x T_damp typical)
# Ramp: T=300.0->300.0K  P=500.0->500.0atm
timestep 1.0
fix npt_fix all npt temp 300.0 300.0 100.0 iso 500.0 500.0 1000.0

run 500000
PPPM Kokkos initialization ...
  using 12-bit tables for long-range coulomb
  G vector (1/distance) = 0.3027111
  grid = 30 30 30
  stencil order = 5
  estimated absolute RMS force accuracy = 0.0002705403
  estimated relative force accuracy = 8.1472407e-07
  using double precision cuFFT
  3d grid and FFT values/proc = 50653 27000
Generated 6 of 6 mixed pair_coeff terms from sixthpower/sixthpower mixing rule
Neighbor list info ...
  update: every = 1 steps, delay = 0 steps, check = yes
  max neighbors/atom: 4000, page size: 100000
  master list distance cutoff = 11.5
  ghost atom cutoff = 11.5
  binsize = 11.5, bins = 4 4 4
  1 neighbor lists, perpetual/occasional/extra = 1 0 0
  (1) pair lj/class2/coul/long/kk, perpetual
      attributes: full, newton off, kokkos_device
      pair build: full/bin/kk/device
      stencil: full/bin/3d
      bin: kk/device
Per MPI rank memory allocation (min/avg/max) = 43.51 | 43.51 | 43.51 Mbytes
   Step          Time           Temp          Press         Enthalpy        TotEng         KinEng         PotEng         E_bond        E_angle        E_dihed        E_impro         E_vdwl         E_coul         E_long         E_tail         Volume           Lx             Ly             Lz          Density          Pxx            Pyy            Pzz      
         0   0              361.03158      3281.9719      11748.473      8400.8528      5752.8277      2648.0251      1879.9339      2663.369      -2066.9104      204.15893      114.89792      3823.5359     -3970.9601     -411.24265      69939.964      41.201067      41.201067      41.201067      0.98961293     795.13482      4217.0607      4833.7201    
       100   100            301.92858      245.61049      7700.3618      7450.1697      4811.0558      2639.1139      1820.1776      2642.4422     -2008.9651      196.43346      125.85654      3835.0759     -3971.9067     -411.78725      69847.467      41.182896      41.182896      41.182896      0.99092345    -626.59647      1307.0275      56.400462    
       200   200            301.41675      441.91994      7795.0823      7346.7998      4802.9001      2543.8997      1830.1843      2568.6466     -2026.7395      194.45301      115.85868      3832.811      -3971.3145     -413.51498      69555.634      41.12546       41.12546       41.12546       0.99508105     402.31767      621.42039      302.02175    
       300   300            301.24948      1165.1136      8512.6173      7338.2693      4800.2348      2538.0345      1824.9888      2621.7233     -2045.1692      195.76321      79.500472      3833.4105     -3972.1826     -416.17011      69111.875      41.037815      41.037815      41.037815      1.0014703      36.643098      1949.889       1508.8086    
       400   400            298.73683      316.91295      7667.9145      7350.4396      4760.1972      2590.2424      1826.8231      2633.7141     -2017.0327      191.78163      91.814169      3837.9286     -3974.7866     -418.72616      68689.991      40.954141      40.954141      40.954141      1.0076212      377.46899     -372.41508      945.68493    
       500   500            301.54277      1298.6271      8683.7126      7388.5089      4804.9082      2583.6007      1807.3304      2664.5257     -2037.1562      199.75659      87.15951       3838.7713     -3976.7865     -420.5773       68387.658      40.893967      40.893967      40.893967      1.0120758      339.78774      1162.6917      2393.4017    
       600   600            305.31926      1296.4398      8720.6734      7428.9676      4865.0844      2563.8832      1776.7281      2602.2849     -1992.1006      198.24799      114.36312      3838.9969     -3974.6372     -421.00593      68318.032      40.880084      40.880084      40.880084      1.0131072      363.64046      1981.0074      1544.6716    
       700   700            302.16764      59.872491      7495.7732      7435.8765      4814.8651      2621.0113      1875.7993      2621.5649     -2003.8289      198.97905      58.131592      3841.6049     -3971.2395     -419.29864      68596.208      40.935494      40.935494      40.935494      1.0089988     -432.9921       1551.2444     -938.63486    
       800   800            300.62369      439.76311      7808.299       7366.5775      4790.2632      2576.3143      1785.037       2582.645      -1966.8436      198.47864      105.51086      3839.5504     -3968.064      -417.60887      68873.768      40.990632      40.990632      40.990632      1.0049326      2085.1336     -318.57005     -447.27425    
       900   900            293.85246      733.85927      8028.5996      7288.0427      4682.3676      2605.675       1788.7031      2646.1857     -2011.573       202.04989      100.70969      3842.6156     -3963.0159     -415.67489      69194.212      41.054105      41.054105      41.054105      1.0002786      481.87404      1293.1455      426.5583     
      1000   1000           298.97944      977.78467      8298.7174      7308.2233      4764.063       2544.1603      1832.8518      2612.1545     -2059.1237      201.1358       77.790949      3843.5612     -3964.2102     -414.08623      69459.679      41.10654       41.10654       41.10654       0.9964557     -9.6975779      1777.7443      1165.3073    
      1100   1100           301.76503      45.211079      7499.0106      7453.2719      4808.4499      2644.8221      1825.9687      2628.3462     -1987.6523      205.11761      96.743605      3840.8666     -3964.5683     -414.62994      69368.595      41.088564      41.088564      41.088564      0.99776409    -883.7401       378.39979      640.97355    
      1200   1200           300.51989     -381.59856      7079.6687      7464.3935      4788.6092      2675.7842      1780.4069      2677.018      -1942.4692      196.41972      90.685682      3841.8815     -3968.1585     -416.06009      69130.151      41.041432      41.041432      41.041432      1.0012056     -352.49401     -739.95062     -52.351043    
      1300   1300           302.45922     -421.84936      6993.1784      7417.3663      4819.5113      2597.855       1760.9697      2628.8753     -1972.3422      200.80337      108.11013      3840.5825     -3969.1438     -417.15601      68948.536      41.00546       41.00546       41.00546       1.0038428     -1863.6386      1454.3137     -856.22321    
      1400   1400           299.70377      586.53453      7950.4615      7361.6201      4775.6048      2586.0154      1807.8038      2620.6946     -2016.3386      208.18111      93.01348       3841.6436     -3968.9827     -417.82531      68838.091      40.983553      40.983553      40.983553      1.0054534     -118.92575      648.07438      1230.455     
      1500   1500           294.78775      1778.1238      9041.445       7259.5202      4697.271       2562.2493      1774.7275      2594.2024     -2013.6247      201.95888      128.23052      3845.1083     -3968.3537     -418.57385      68714.987      40.959108      40.959108      40.959108      1.0072547      1304.6395      1546.9407      2482.7914    
      1600   1600           295.82822     -572.05253      6603.2499      7177.2548      4713.8502      2463.4046      1850.5036      2540.3319     -2029.4547      192.70662      38.811532      3841.4443     -3970.9387     -418.04185      68802.434      40.976475      40.976475      40.976475      1.0059745      221.7618      -481.72466     -1456.1947    
      1700   1700           294.29347      900.84619      8086.3535      7182.294       4689.3949      2492.8992      1794.5136      2557.5425     -2032.8981      209.72229      90.516716      3842.8087     -3969.3066     -417.97766      68813          40.978573      40.978573      40.978573      1.00582        1846.2484      1086.248      -229.95775    
      1800   1800           295.11924      265.04105      7615.7966      7349.7096      4702.5529      2647.1566      1872.725       2610.2318     -2010.0421      202.27009      93.207802      3847.3587     -3968.5947     -417.81977      68839.003      40.983734      40.983734      40.983734      1.0054401     -613.7408       215.14671      1193.7172    
      1900   1900           299.7378      -1296.4381      6128.0694      7429.8735      4776.1471      2653.7264      1784.1977      2617.3434     -1887.6575      201.07518      71.236828      3838.7345     -3971.2037     -417.73955      68852.222      40.986357      40.986357      40.986357      1.005247      -2261.7266     -1084.4587     -543.12882    
      2000   2000           300.83723      1069.7003      8528.7358      7455.4373      4793.6659      2661.7714      1809.0639      2665.6358     -2023.6387      202.28133      140.31753      3840.7136     -3972.6021     -418.06233      68799.063      40.975806      40.975806      40.975806      1.0060238     -322.19193      1957.3985      1573.8943    
      2100   2100           303.71914      1436.8151      8866.6223      7424.992       4839.5874      2585.4046      1868.6961      2593.2397     -2019.2882      206.12878      69.537842      3841.4054     -3974.315      -418.06752      68798.209      40.975637      40.975637      40.975637      1.0060363      1332.5718      1875.5193      1102.354     
      2200   2200           299.92997      764.20649      8082.9592      7316.9711      4779.2093      2537.7619      1800.6843      2576.1783     -1984.6166      208.24275      75.21134       3835.0566     -3972.9949     -418.49299      68728.263      40.961746      40.961746      40.961746      1.0070601      1594.2812     -540.13772      1238.476     
      2300   2300           299.87291      399.39431      7651.0688      7251.1102      4778.3         2472.8102      1831.6819      2509.77       -2012.5661      198.54297      68.013309      3846.7816     -3969.4135     -418.8768       68665.289      40.949231      40.949231      40.949231      1.0079837      1598.6851     -18.958375     -381.54378    
      2400   2400           297.41823      667.67198      7960.9912      7292.7993      4739.1861      2553.6132      1836.758       2567.3646     -2034.2458      204.59143      107.98646      3841.4333     -3970.2747     -419.14219      68621.811      40.940586      40.940586      40.940586      1.0086224     -14.308928      906.49069      1110.8342    
      2500   2500           300.75822     -372.4942       6984.1314      7357.3378      4792.4069      2564.9308      1764.4211      2606.0858     -1964.2236      202.28127      84.551958      3842.602      -3970.7877     -418.66816      68699.508      40.956032      40.956032      40.956032      1.0074816      180.74385      58.036457     -1356.2629    
      2600   2600           298.65962      1785.4966      9188.2945      7393.3522      4758.967       2634.3852      1865.6222      2624.1076     -2041.8988      204.49945      105.32035      3848.787      -3972.0527     -417.26117      68931.16       41.002015      41.002015      41.002015      1.0040959      702.48312      2649.1485      2004.8582    
      2700   2700           299.1969       222.85014      7651.0962      7426.5799      4767.5281      2659.0518      1848.9629      2629.7636     -1987.2827      203.07432      90.154337      3844.5077     -3970.1284     -416.3556       69081.085      41.031719      41.031719      41.031719      1.0019167      961.87677      287.7947      -581.12105    
      2800   2800           301.64104     -486.23794      6915.0656      7405.4261      4806.4741      2598.952       1825.7304      2612.3761     -1979.1474      194.38523      71.599348      3841.5147     -3967.5064     -415.94198      69149.781      41.045316      41.045316      41.045316      1.0009214     -584.20874     -849.62778     -24.877287    
      2900   2900           298.11731     -8.5216096      7261.9273      7270.5119      4750.3255      2520.1863      1825.0502      2549.8024     -1986.8816      202.35451      60.700279      3836.6906     -3967.53       -416.39367      69074.768      41.030469      41.030469      41.030469      1.0020083      235.24124     -227.7256      -33.080468    
      3000   3000           293.30735      336.62947      7590.7075      7252.2185      4673.6817      2578.5368      1852.1186      2565.5322     -2015.182       199.28468      103.42622      3840.1141     -3966.7571     -417.16419      68947.184      41.005192      41.005192      41.005192      1.0038625      260.13217     -727.38518      1477.1414    
      3100   3100           297.78002      540.36579      7882.3851      7339.4063      4744.951       2594.4553      1771.3827      2650.0643     -2024.2829      207.55928      118.08109      3841.433      -3969.7823     -417.44995      68899.988      40.995833      40.995833      40.995833      1.0045502      180.5867       1095.9205      344.59013    
      3200   3200           297.82177      1457.5778      8848.3877      7384.5029      4745.6162      2638.8867      1858.4787      2688.7916     -2081.3645      207.95219      93.034913      3843.8583     -3971.8644     -417.66137      68865.111      40.988915      40.988915      40.988915      1.0050589      1000.2552      1511.3585      1861.1197    
      3300   3300           299.72602      1098.5215      8497.8863      7396.2533      4775.9594      2620.2939      1831.0756      2600.063      -2009.4187      205.09345      127.08933      3838.0279     -3971.6367     -418.28384      68762.629      40.968572      40.968572      40.968572      1.0065568      831.57723      1063.1562      1400.831     
      3400   3400           302.19166      243.71608      7624.5856      7379.7952      4815.2478      2564.5474      1780.4362      2609.132      -1991.4355      200.34137      91.879834      3843.8798     -3969.6864     -417.62772      68870.659      40.990015      40.990015      40.990015      1.0049779      94.558255      1039.0568     -402.46683    
      3500   3500           298.73052      430.26124      7723.1194      7289.9611      4760.0966      2529.8645      1894.1007      2569.109      -2072.0986      189.60623      84.804759      3835.4736     -3971.1313     -416.66311      69030.1        41.021623      41.021623      41.021623      1.0026567      993.94263      1213.0323     -916.19125    
      3600   3600           291.90555      340.43671      7549.6806      7206.6045      4651.3447      2555.2598      1828.1265      2593.3477     -2034.2997      201.20762      86.8039        3848.3406     -3968.2668     -416.24144      69100.031      41.03547       41.03547       41.03547       1.001642      -667.48157      39.941599      1648.8501    
      3700   3700           300.04883     -645.51769      6637.5513      7288.7998      4781.1031      2507.6967      1801.218       2565.166      -1985.3619      198.61665      55.673262      3840.7714     -3968.3867     -415.77737      69177.157      41.050732      41.050732      41.050732      1.0005253     -2158.1882      419.03672     -197.40163    
      3800   3800           301.49585      2023.4718      9421.6329      7380.5225      4804.1605      2576.362       1878.0129      2566.302      -2068.7087      201.50309      117.90073      3848.0593     -3966.7073     -415.84369      69166.125      41.048549      41.048549      41.048549      1.0006848      1325.168       2510.4525      2234.7948    
      3900   3900           298.07125      342.51634      7755.4232      7410.3351      4749.5915      2660.7436      1842.415       2624.746      -1986.4307      203.95344      103.86045      3842.9261     -3970.7267     -416.34245      69083.266      41.032151      41.032151      41.032151      1.0018851      1549.6355      185.10127     -707.18772    
      4000   4000           299.55719      309.29518      7703.1193      7391.7161      4773.2692      2618.4469      1820.0293      2603.8672     -1982.2579      211.38972      99.472244      3838.8713     -3972.925      -416.62908      69035.739      41.02274       41.02274       41.02274       1.0025748      1956.656      -1596.7588      567.98832    
      4100   4100           295.41782      945.24085      8266.4984      7314.9868      4707.3107      2607.6761      1830.6259      2619.2112     -2022.6634      206.41654      111.53212      3835.8499     -3973.2962     -416.7042       69023.294      41.020274      41.020274      41.020274      1.0027556      2521.5482      922.9857      -608.8113     
      4200   4200           291.98322      657.33017      7889.9366      7227.9062      4652.5823      2575.3239      1822.2723      2594.972      -2009.4919      209.73647      78.177123      3849.8567     -3970.1988     -416.49048      69058.714      41.02729       41.02729       41.02729       1.0022413     -96.457512      1572.1292      496.31878    
      4300   4300           299.0067       1268.8488      8573.2682      7296.7246      4764.4974      2532.2272      1809.8287      2632.9759     -2060.5806      195.40437      82.202001      3838.5834     -3966.1866     -416.94009      68984.242      41.012537      41.012537      41.012537      1.0033232     -1278.9486      2174.2287      2911.2663    
      4400   4400           300.52161      203.9693       7628.353       7423.6134      4788.6366      2634.9767      1901.9694      2568.9439     -2008.3895      200.86917      100.85305      3837.443      -3966.7124     -417.8904       68827.368      40.981425      40.981425      40.981425      1.00561       -1606.4725      1164.0945      1054.2859    
      4500   4500           303.10969      402.14495      7849.7085      7446.6784      4829.8762      2616.8022      1831.1408      2613.1908     -1956.5725      204.16663      67.283726      3826.2704     -3968.6776     -418.5473       68719.346      40.959974      40.959974      40.959974      1.0071908     -94.334479      1150.6618      150.10751    
      4600   4600           302.55983      857.99736      8229.4605      7370.0888      4821.1145      2548.9743      1804.53        2590.0996     -2016.5787      201.10682      104.55557      3835.1046     -3969.8435     -418.79773      68678.253      40.951808      40.951808      40.951808      1.0077934      913.11813      723.837        937.03695    
      4700   4700           300.1019       757.49738      8055.2558      7296.1993      4781.9488      2514.2505      1827.8015      2557.1714     -2018.891       201.05336      88.699958      3828.6973     -3970.2819     -418.60699      68709.546      40.958027      40.958027      40.958027      1.0073345      1666.3734     -2.3849037      608.50364    
      4800   4800           297.02753      1767.3014      9032.3767      7259.5832      4732.9605      2526.6228      1862.0252      2587.6187     -2079.6591      205.08604      77.97027       3842.5293     -3968.9477     -418.1691       68781.497      40.972319      40.972319      40.972319      1.0062807      1426.5707      2204.8905      1670.443     
      4900   4900           300.19921     -62.793715      7328.0077      7391.0631      4783.4994      2607.5637      1846.0194      2583.7682     -1943.1535      208.66647      45.909108      3837.7489     -3971.3949     -417.7278       68854.159      40.986742      40.986742      40.986742      1.0052188     -1657.541       190.89909      1278.2608    
      5000   5000           303.74804      541.20594      8022.3232      7478.5317      4840.0479      2638.4838      1834.831       2607.2187     -1967.8349      209.0519       85.761666      3838.8646     -3969.4092     -417.4742       68895.986      40.995039      40.995039      40.995039      1.0046085      36.982887      511.4935       1075.1415    
      5100   5100           299.42112      126.97078      7570.3554      7442.7895      4771.1009      2671.6886      1831.0511      2591.8888     -1935.7073      201.4851       116.45866      3834.9386     -3968.4262     -417.51147      68889.836      40.993819      40.993819      40.993819      1.0046982      262.24042     -162.26563      280.93754    
      5200   5200           299.56893      2016.247       9380.0243      7352.1353      4773.4563      2578.679       1814.128       2582.5098     -2037.4123      206.22563      135.57338      3843.5421     -3965.8876     -417.06045      68964.335      41.008591      41.008591      41.008591      1.0036129      1220.2593      3368.173       1460.3088    
      5300   5300           297.95714     -687.02351      6610.8986      7303.8549      4747.7732      2556.0817      1817.1258      2575.4091     -1975.484       209.0305       39.787348      3853.2987     -3963.0857     -415.87727      69160.539      41.047444      41.047444      41.047444      1.0007657     -554.99002      26.394094     -1532.4746    
      5400   5400           296.43626     -229.73556      7105.1766      7336.7188      4723.539       2613.1798      1806.5037      2522.2623     -1914.671       211.15646      106.14316      3846.2458     -3964.4605     -416.19564      69107.636      41.036976      41.036976      41.036976      1.0015318      577.46221     -295.49178     -971.17711    
      5500   5500           302.47333      551.10305      8049.4739      7493.7229      4819.7361      2673.9867      1865.4325      2655.0558     -1990.9783      199.8194       66.778593      3845.5555     -3967.6767     -415.9604       69146.719      41.04471       41.04471       41.04471       1.0009657      1096.4685      161.4323       395.40834    
      5600   5600           303.68084     -26.474779      7476.8111      7503.5202      4838.9771      2664.5432      1826.064       2593.9065     -1938.1885      204.40406      101.34755      3845.6013     -3968.5917     -415.78756      69175.461      41.050396      41.050396      41.050396      1.0005498     -474.427       -571.0137       966.01636    
      5700   5700           296.9583      -284.31631      7135.3778      7421.7381      4731.8573      2689.8808      1868.4796      2643.1955     -1956.6934      209.16375      52.057289      3843.4476     -3969.7695     -416.47459      69061.348      41.027811      41.027811      41.027811      1.002203      -1229.7277     -232.21505      608.99386    
      5800   5800           299.2904       547.03996      7924.6538      7375.7641      4769.018       2606.7461      1840.7109      2548.4056     -1990.9741      203.56405      131.29085      3843.8346     -3970.0857     -418.05499      68800.271      40.976046      40.976046      40.976046      1.0060061      238.36871      1669.4113     -266.66008    
      5900   5900           298.34107     -146.64666      7208.0233      7355.0667      4753.8909      2601.1757      1896.1427      2614.0014     -2021.007       208.0103       22.544884      3849.8399     -3968.3564     -418.337        68753.89       40.966836      40.966836      40.966836      1.0066848     -1594.4937      750.93081      403.62288    
      6000   6000           295.51483     -907.70484      6441.3525      7349.1242      4708.8565      2640.2677      1812.3204      2577.3035     -1904.157       205.12412      78.46544       3838.9313     -3967.7201     -419.4377       68573.466      40.93097       40.93097       40.93097       1.0093335     -956.1684      -644.93863     -1122.0075    
      6100   6100           302.79178     -1051.8226      6305.4463      7357.6743      4824.8105      2532.8638      1825.4565      2551.3575     -1949.1685      199.54782      22.865536      3849.7023     -3966.8973     -419.30695      68594.848      40.935224      40.935224      40.935224      1.0090188     -1098.4786     -1452.1676     -604.82156    
      6200   6200           301.16847      1470.579       8839.8367      7367.2971      4798.944       2568.3532      1863.3072      2586.8286     -2042.4508      203.12277      80.242729      3847.9103     -3970.6076     -418.91011      68659.829      40.948146      40.948146      40.948146      1.0080639      1861.7974      1916.9106      633.02895    
      6300   6300           299.91323      1745.4492      9109.1275      7356.7454      4778.9425      2577.8029      1864.4952      2580.924      -2059.3139      206.24052      108.89652      3847.058      -3970.4973     -417.80906      68840.767      40.984084      40.984084      40.984084      1.0054143      151.967        2003.4533      3080.9273    
      6400   6400           296.8198       198.67472      7562.7364      7362.7449      4729.6504      2633.0944      1798.3943      2612.4443     -1962.1223      203.22765      115.75448      3838.6341     -3973.2381     -416.70661      69022.895      41.020195      41.020195      41.020195      1.0027614      84.750076      92.922162      418.35191    
      6500   6500           302.44731      740.12254      8168.008       7421.8679      4819.3215      2602.5463      1807.9337      2641.5846     -2009.6991      201.19539      98.43119       3835.0095     -3971.9089     -416.08561      69125.91       41.040592      41.040592      41.040592      1.001267       1221.988       432.74405      565.63553    
      6600   6600           299.93264      1030.3997      8535.1531      7494.9658      4779.2517      2715.714       1893.5441      2627.5566     -2027.7434      200.23661      160.44963      3833.6953     -3972.0248     -415.5216       69219.739      41.059153      41.059153      41.059153      0.99990976     7.2781054      1239.0749      1844.8462    
      6700   6700           306.17289     -528.20339      6964.6037      7499.2305      4878.6865      2620.5441      1800.7571      2670.6464     -1990.1233      195.51775      79.402711      3835.0798     -3970.7364     -414.42878      69402.266      41.095211      41.095211      41.095211      0.99728002    -1154.7328     -733.80588      303.92847    
      6800   6800           298.33343      9.8616265      7387.3928      7377.4042      4753.7692      2623.635       1794.963       2666.1073     -2020.5798      204.06601      113.59685      3835.4623     -3969.9806     -414.13724      69451.123      41.104852      41.104852      41.104852      0.99657846     842.39381      810.24621     -1623.0551    
      6900   6900           299.27294      1262.7795      8598.9968      7320.9148      4768.7397      2552.1751      1862.1671      2592.6133     -2102.6036      201.37345      129.88417      3836.9567     -3968.2159     -414.44629      69399.334      41.094632      41.094632      41.094632      0.99732216     95.243034      1966.8197      1726.2757    
      7000   7000           301.24061      730.14437      8085.6935      7347.3622      4800.0934      2547.2688      1826.74        2600.07       -2061.5504      195.18323      111.94194      3840.5683     -3965.6843     -414.81734      69337.258      41.082376      41.082376      41.082376      0.99821503     993.24076      373.82724      823.36511    
      7100   7100           300.95366     -22.245171      7403.9903      7426.4087      4795.521       2630.8877      1806.5114      2650.4876     -2001.6273      197.12217      91.784476      3851.1017     -3964.4923     -416.22724      69102.389      41.035937      41.035937      41.035937      1.0016078      429.32519     -323.03486     -173.02584    
      7200   7200           300.11635      974.77095      8417.7078      7440.4666      4782.179       2658.2876      1842.8107      2633.38       -2016.7187      200.79719      117.66104      3846.5196     -3966.1622     -418.40829      68742.176      40.964509      40.964509      40.964509      1.0068563      263.91553      1445.6218      1214.7756    
      7300   7300           304.05221      655.19499      8088.5667      7433.2898      4844.8947      2588.3951      1817.0972      2611.3774     -1995.8583      199.14543      78.72568       3845.1007     -3967.1931     -419.41619      68576.982      40.931669      40.931669      40.931669      1.0092817     -125.5057       688.83804      1402.2526    
      7400   7400           305.3903       33.210734      7443.7621      7410.586       4866.2164      2544.3696      1825.7212      2584.047      -1980.8349      198.0095       50.399893      3837.4257     -3970.3989     -419.90661      68496.889      40.915728      40.915728      40.915728      1.0104619      1160.5736      1269.9885     -2330.9299    
      7500   7500           299.13383     -14.121327      7351.6977      7365.8008      4766.5232      2599.2776      1822.348       2605.195      -2002.9694      199.71184      101.92096      3842.1288     -3969.0576     -420.01137      68479.805      40.912326      40.912326      40.912326      1.0107139     -122.28829     -213.51375      293.43807    
      7600   7600           298.79493      830.05323      8171.8383      7340.1927      4761.123       2579.0697      1813.0238      2623.9933     -2008.7074      195.88343      87.427301      3839.7169     -3972.2676     -418.66541      68699.96       40.956122      40.956122      40.956122      1.007475       1149.8268      1574.33       -233.99712    
      7700   7700           296.80391     -793.75534      6585.0039      7383.0188      4729.3972      2653.6216      1784.4161      2632.7293     -1928.2376      202.7032       85.169434      3847.6106     -3970.7694     -417.22956      68936.383      41.00305       41.00305       41.00305       1.0040198     -234.14834     -1471.1685     -675.94922    
      7800   7800           308.91881      1257.2604      8795.2201      7526.704       4922.4411      2604.2629      1851.4931      2626.833      -2035.1656      205.79172      86.725695      3841.3503     -3972.7654     -415.74658      69182.281      41.051745      41.051745      41.051745      1.0004512      1227.065       3001.105      -456.38873    
      7900   7900           302.83661      513.88915      8018.1693      7498.7202      4825.5248      2673.1954      1825.5178      2620.9282     -1951.3202      213.87896      84.515162      3849.36       -3969.6844     -414.97879      69310.281      41.077048      41.077048      41.077048      0.99860355    -1335.3304      977.34067      1899.6572    
      8000   8000           298.72256      936.95788      8364.6316      7417.4897      4759.9698      2657.52        1780.7345      2653.0819     -1976.8323      207.81699      119.49819      3840.2159     -3966.9952     -414.95835      69313.696      41.077722      41.077722      41.077722      0.99855436     2015.093      -36.472696      832.25334    
      8100   8100           297.19598     -953.99295      6379.7723      7344.5146      4735.6447      2608.8699      1754.3166      2636.6479     -1952.1697      201.86165      99.166021      3839.3317     -3970.2843     -414.79478      69341.029      41.083121      41.083121      41.083121      0.99816075    -387.88254     -707.0904      -1767.0059    
      8200   8200           297.13965     -254.21814      7092.043       7348.9962      4734.747       2614.2492      1795.9957      2608.005      -1963.1734      207.95611      90.930466      3844.0387     -3969.5034     -415.00369      69306.123      41.076226      41.076226      41.076226      0.99866346     841.60828     -660.92971     -943.33299    
      8300   8300           302.21197      473.83408      7864.7104      7386.5772      4815.5716      2571.0056      1836.6897      2561.2555     -1998.4171      201.32213      94.01222       3844.6817     -3968.5386     -415.69698      69190.535      41.053378      41.053378      41.053378      1.0003318      90.319912      634.21521      696.9671     
      8400   8400           302.91837      440.62264      7857.1171      7413.4135      4826.8276      2586.5859      1774.455       2592.8513     -1971.6532      203.61484      110.57614      3844.8787     -3968.1368     -416.55591      69047.866      41.025141      41.025141      41.025141      1.0023987     -36.691033      685.77909      672.77986    
      8500   8500           298.0852      -55.342073      7381.2953      7436.9798      4749.8139      2687.1659      1850.2307      2650.1735     -1970.6824      210.68954      68.139028      3846.6998     -3968.0842     -416.88957      68992.603      41.014194      41.014194      41.014194      1.0032017     -610.66619      241.98829      202.65169    
      8600   8600           297.43818     -149.12196      7285.2594      7435.0966      4739.504       2695.5926      1812.8123      2664.8368     -1970.4139      207.44948      102.43127      3844.5603     -3966.0835     -417.46613      68897.317      40.995303      40.995303      40.995303      1.0045891     -120.80705      553.83086     -880.38967    
      8700   8700           299.88984      28.957025      7379.1705      7350.1038      4778.5698      2571.5341      1816.0954      2579.5243     -1983.7598      202.58899      81.152424      3844.9541     -3969.0213     -417.88616      68828.067      40.981564      40.981564      40.981564      1.0055998     -475.96902      333.40795      229.43214    
      8800   8800           296.53609      1203.1252      8496.9519      7288.5307      4725.1297      2563.401       1857.879       2563.511      -2050.5484      202.72396      112.1959       3844.8628     -3967.2233     -417.63024      68870.244      40.989933      40.989933      40.989933      1.004984       1062.2132      467.04449      2080.118     
      8900   8900           296.71876      980.32371      8304.9559      7318.6208      4728.0404      2590.5803      1819.5054      2633.8412     -2045.8653      206.60862      105.18575      3841.6375     -3970.3327     -416.91206      68988.881      41.013456      41.013456      41.013456      1.0032558      1116.1166      1165.5493      659.30516    
      9000   9000           300.71056      302.63936      7750.7779      7446.0944      4791.6474      2654.447       1800.1039      2637.7068     -1954.6528      203.5584       88.105921      3848.3237     -3968.6988     -416.65433      69031.556      41.021911      41.021911      41.021911      1.0026356     -699.79571      359.30322      1248.4106    
      9100   9100           303.11564      303.79755      7803.5778      7497.6502      4829.9709      2667.6793      1858.5717      2599.5854     -1997.699       202.32911      124.84446      3849.0221     -3968.9746     -416.54798      69049.18       41.025402      41.025402      41.025402      1.0023797      210.91538     -34.74253       735.21979    
      9200   9200           298.86606     -305.46452      7160.5427      7468.0255      4762.2564      2705.7691      1831.3508      2621.5        -1927.709       201.41989      99.814595      3847.5407     -3968.1479     -416.71519      69021.474      41.019914      41.019914      41.019914      1.002782      -154.2572       233.97642     -996.1128     
      9300   9300           298.90924      939.41037      8355.5885      7411.023       4762.9444      2648.0786      1741.7741      2648.3011     -1933.8778      204.08419      115.53647      3840.0798     -3967.8192     -417.1793       68944.688      41.004697      41.004697      41.004697      1.0038989      378.88587      2021.9984      417.34685    
      9400   9400           298.81531      1286.9346      8673.6644      7379.8864      4761.4477      2618.4387      1896.0537      2628.4736     -2063.1643      197.99911      93.20857       3834.6543     -3968.7862     -417.24982      68933.035      41.002386      41.002386      41.002386      1.0040686      1261.6212      1018.8044      1580.3781    
      9500   9500           300.90254      833.75698      8199.6793      7362.8291      4794.7066      2568.1225      1856.1749      2557.7967     -2020.5779      203.98961      104.61082      3837.358      -3971.2296     -417.91813      68822.801      40.980518      40.980518      40.980518      1.0056768     -756.741        1622.3267      1635.6852    
      9600   9600           304.06901     -993.39815      6378.5875      7374.5267      4845.1624      2529.3643      1742.1658      2599.5434     -1925.9725      197.00328      36.309754      3848.4734     -3968.1587     -418.39836      68743.808      40.964834      40.964834      40.964834      1.0068324     -1166.3917     -400.57067     -1413.2321    
      9700   9700           301.39732      209.96266      7693.7473      7483.6651      4802.5906      2681.0745      1838.5515      2621.0037     -1931.8533      212.70629      64.565961      3846.8476     -3970.7472     -419.23002      68607.435      40.937727      40.937727      40.937727      1.0088337      870.21131     -651.05986      410.73653    
      9800   9800           308.38509     -62.850647      7481.6853      7544.5839      4913.9367      2630.6473      1822.698       2614.4007     -1967.2712      204.99973      85.618944      3840.2119     -3970.0108     -419.14865      68620.754      40.940376      40.940376      40.940376      1.0086379     -578.76563      1025.4666     -635.25288    
      9900   9900           304.11631      832.855        8272.2355      7438.173       4845.9161      2592.2569      1811.7668      2601.2305     -2021.5401      194.17529      135.69561      3842.8992     -3971.9703     -418.86132      68667.827      40.949736      40.949736      40.949736      1.0079465      36.486387      956.0972       1505.9814    
     10000   10000          298.55479      1744.127       9106.1005      7355.9746      4757.2965      2598.6781      1895.9049      2554.96       -2000.5357      210.83733      58.025674      3847.6448     -3968.1588     -418.03079      68804.254      40.976837      40.976837      40.976837      1.0059479      2214.4812      1524.4944      1493.4055    
     10100   10100          300.82457      373.52571      7716.9307      7342.0932      4793.4642      2548.629       1747.1444      2587.3556     -1990.0395      199.74534      126.35172      3845.0131     -3966.9418     -418.00062      68809.22       40.977823      40.977823      40.977823      1.0058753      1313.6628      327.67318     -520.75888    
     10200   10200          300.18017     -798.06157      6589.6055      7391.3562      4783.1959      2608.1602      1802.7478      2673.0856     -2006.2271      197.92027      58.288784      3850.5284     -3968.1836     -417.53847      68885.381      40.992936      40.992936      40.992936      1.0047632     -1400.8263      1022.6227     -2015.9811    
     10300   10300          306.37396      748.33273      8265.2788      7513.5703      4881.8904      2631.6799      1842.6393      2551.8251     -1974.0808      203.52645      130.96341      3847.2626     -3970.456      -417.58485      68877.73       40.991418      40.991418      40.991418      1.0048748      670.84554      480.03816      1094.1145    
     10400   10400          303.09997     -44.212557      7488.4383      7532.9136      4829.7213      2703.1923      1797.0222      2653.0502     -1907.3502      204.13472      82.620825      3845.161      -3971.4465     -416.99097      68975.826      41.010869      41.010869      41.010869      1.0034457      18.953108      648.00217     -799.59295    
     10500   10500          302.03938      1513.5394      8983.8007      7458.8499      4812.8214      2646.0285      1818.2998      2629.4958     -1994.9055      207.37736      107.12189      3849.0667     -3970.4275     -416.32963      69085.394      41.032572      41.032572      41.032572      1.0018542      1689.7222      1324.8996      1525.9963    
     10600   10600          301.377        1062.5548      8477.6623      7407.4824      4802.2668      2605.2157      1877.908       2616.783      -2059.4957      198.70634      90.208572      3848.6789     -3967.5733     -416.4799       69060.468      41.027637      41.027637      41.027637      1.0022158      778.98987      932.59584      1476.0788    
     10700   10700          296.65318     -440.40956      6933.9407      7376.4174      4726.9954      2649.422       1730.7056      2646.6549     -1923.5969      206.03422      113.88639      3845.7831     -3970.0453     -417.509        68890.244      40.9939        40.9939        40.9939        1.0046922     -311.00652     -598.39269     -411.82948    
     10800   10800          300.93195      1642.6591      8967.9784      7318.9546      4795.1752      2523.7795      1841.5715      2565.8969     -2064.3372      207.94119      98.749396      3845.3617     -3971.4041     -417.84958      68834.093      40.982759      40.982759      40.982759      1.0055118      1627.889       1039.0754      2261.0129    
     10900   10900          298.01568      673.84727      7923.9819      7247.5683      4748.7062      2498.8622      1848.2807      2554.1428     -2070.5366      187.91396      109.74624      3840.8162     -3971.5011     -417.87713      68829.553      40.981859      40.981859      40.981859      1.0055781      481.83493      859.63361      680.07326    
     11000   11000          296.47525     -1000.408       6276.61        7281.5203      4724.1602      2557.3601      1776.0576      2641.5379     -1983.3761      195.2939       50.8547        3848.0993     -3971.1071     -417.58925      68877.005      40.991274      40.991274      40.991274      1.0048853     -963.08594     -721.29219     -1316.8459    
     11100   11100          304.54908      1279.1214      8699.4885      7416.4386      4852.812       2563.6266      1815.7388      2583.8428     -2058.4552      200.72844      154.25262      3837.7399     -3970.2208     -418.18422      68779.009      40.971825      40.971825      40.971825      1.0063171      1419.7677      1371.6821      1045.9144    
     11200   11200          299.38934      2442.5841      9904.9588      7456.1634      4770.5946      2685.5689      1903.2012      2670.1203     -2099.4719      202.97091      140.8078       3837.3948     -3969.4543     -418.40462      68742.779      40.964629      40.964629      40.964629      1.0068475      829.42118      3533.3489      2964.9821    
     11300   11300          301.443       -111.49277      7285.8529      7397.7374      4803.3185      2594.4189      1734.0777      2647.2583     -1960.5872      200.30784      106.1032       3836.6009     -3969.3418     -417.99985      68809.346      40.977848      40.977848      40.977848      1.0058734     -411.61304      1284.1397     -1207.0049    
     11400   11400          298.44678      77.901699      7376.2414      7297.8629      4755.5754      2542.2874      1825.0293      2510.0659     -1995.7607      199.2906       134.56163      3838.6249     -3969.5242     -416.91677      68988.102      41.013302      41.013302      41.013302      1.0032671     -294.35043      1569.8331     -1041.7776    
     11500   11500          292.16626      543.67834      7844.8545      7296.0088      4655.499       2640.5097      1922.7823      2607.5599     -2034.8788      194.99521      78.140533      3839.9608     -3968.0502     -415.5193       69220.122      41.059229      41.059229      41.059229      0.99990423     135.09423      869.84999      626.0908     
     11600   11600          298.91936     -384.65681      6956.7214      7345.7829      4763.1057      2582.6772      1818.605       2567.2125     -1995.0284      199.54523      113.60479      3845.0466     -3966.3087     -414.71962      69353.595      41.085603      41.085603      41.085603      0.99797988    -783.81391      478.00356     -848.16007    
     11700   11700          295.05489      498.74511      7879.856       7375.2755      4701.5277      2673.7479      1825.6792      2617.2827     -1996.0192      201.53983      150.49181      3842.5005     -3967.7269     -414.61756      69370.667      41.088973      41.088973      41.088973      0.99773429     750.88576      231.96983      513.37974    
     11800   11800          301.20409      355.0952       7769.4793      7410.2705      4799.5116      2610.7589      1894.1235      2597.9341     -2050.9786      205.18648      80.297848      3851.6188     -3967.4233     -414.66493      69362.743      41.087409      41.087409      41.087409      0.99784827     287.11489      205.07289      573.09783    
     11900   11900          301.36287     -332.17181      7100.3437      7435.3041      4802.0417      2633.2624      1799.533       2641.0831     -1969.7279      197.32472      94.005526      3841.292      -3970.248      -415.97644      69144.051      41.044182      41.044182      41.044182      1.0010043     -1833.0071      752.8958       83.595919    
     12000   12000          302.8643       1158.4764      8545.5763      7381.1737      4825.9661      2555.2076      1839.8454      2635.6683     -2072.5407      199.16093      88.676495      3836.4481     -3972.051      -417.3337       68919.18       40.999639      40.999639      40.999639      1.0042704      1129.3         355.71994      1990.4092    
     12100   12100          296.80956      1918.5461      9190.6588      7265.7425      4729.4873      2536.2552      1841.2912      2618.5747     -2092.0257      197.73242      106.36912      3835.6254     -3971.312      -418.08044      68796.083      40.975215      40.975215      40.975215      1.0060673      3109.5487      961.35113      1684.7386    
     12200   12200          299.41578     -304.93449      6970.4712      7276.424       4771.0159      2505.4081      1744.1537      2600.1028     -1983.8018      202.89583      84.321485      3828.9459     -3971.2097     -418.0724       68797.405      40.975477      40.975477      40.975477      1.006048      -606.47819      580.54466     -888.86994    
     12300   12300          297.89387      1642.1102      9009.4674      7362.5154      4746.765       2615.7504      1779.5415      2615.282      -2003.1104      202.56435      159.4392       3830.8169     -3968.7831     -418.2354       68770.592      40.970153      40.970153      40.970153      1.0064403      779.04328      2487.0182      1660.269     
     12400   12400          300.24459      933.30189      8348.2722      7409.9682      4784.2225      2625.7457      1817.6223      2673.772      -2009.4263      214.59977      62.555273      3835.8905     -3969.2678     -417.23244      68935.907      41.002956      41.002956      41.002956      1.0040267      134.25029      1211.3711      1454.2843    
     12500   12500          301.80841      555.96653      7969.5368      7410.537       4809.141       2601.3959      1822.5545      2627.0728     -1996.3737      202.05069      78.237706      3838.3541     -3970.5002     -417.19243      68942.518      41.004266      41.004266      41.004266      1.0039304      2003.504      -400.71832      65.113891    
     12600   12600          297.84484      681.79657      8039.3587      7354.4925      4745.9838      2608.5087      1818.4878      2661.2905     -2022.58        206.42425      78.765211      3840.8236     -3974.7026     -417.58852      68877.125      40.991298      40.991298      40.991298      1.0048836      333.06783      1150.7896      561.53225    
     12700   12700          293.22436      341.09909      7604.6588      7262.6122      4672.3592      2590.253       1855.6742      2594.1202     -1995.4915      202.16485      61.240109      3845.0936     -3972.5485     -418.30659      68758.89       40.967829      40.967829      40.967829      1.0066116     -459.60159      1336.4393      146.45956    
     12800   12800          295.56313     -455.32568      6745.25        7200.6116      4709.6261      2490.9855      1734.3409      2616.4135     -1993.6204      195.06634      60.041327      3849.4006     -3970.6569     -419.43552      68573.821      40.93104       40.93104       40.93104       1.0093282      138.04713     -1313.0218     -191.00233    
     12900   12900          298.38492      1572.676       8877.3604      7309.8246      4754.5898      2555.2348      1856.5111      2519.1361     -1994.9608      198.01153      98.782825      3847.665      -3969.911      -420.84409      68344.304      40.885324      40.885324      40.885324      1.0127178      1935.1046      2319.1163      463.80714    
     13000   13000          297.65562      564.4478       7993.3526      7430.154       4742.9688      2687.1852      1880.7082      2623.0593     -1997.6136      206.31223      93.611376      3849.7645     -3968.6568     -420.39898      68416.666      40.899748      40.899748      40.899748      1.0116467     -630.62942      1125.8628      1198.1101    
     13100   13100          301.43294      326.73234      7766.4289      7439.1116      4803.1581      2635.9535      1805.1212      2613.3557     -1960.1504      204.57208      81.452956      3858.0108     -3966.4088     -418.71897      68691.171      40.954375      40.954375      40.954375      1.0076039      775.10404     -779.4039       984.49688    
     13200   13200          297.31494     -773.31311      6584.7227      7363.8189      4737.5403      2626.2786      1801.5865      2640.272      -1954.341       207.1256       52.13721       3846.0264     -3966.5282     -416.35495      69081.193      41.031741      41.031741      41.031741      1.0019151     -579.88502     -384.47038     -1355.5839    
     13300   13300          293.70162     -1277.3345      5999.4031      7290.8946      4679.9641      2610.9306      1838.3386      2594.5419     -1961.5398      200.62033      61.615917      3844.1987     -3966.8451     -414.87047      69328.378      41.080622      41.080622      41.080622      0.99834288    -2127.2793     -813.06025     -891.66382    
     13400   13400          298.61307      598.59847      7921.2319      7315.8855      4758.2251      2557.6604      1787.3324      2642.787      -2059.3764      198.62261      124.42883      3832.2353     -3968.3694     -414.79267      69341.381      41.08319       41.08319       41.08319       0.99815568    -337.90258      1551.8854      581.8126     
     13500   13500          297.78865      837.84736      8323.9899      7477.9583      4745.0885      2732.8698      1929.7653      2627.7971     -2009.4579      201.08299      119.87218      3834.9472     -3971.137      -415.4108       69238.201      41.062803      41.062803      41.062803      0.99964314    -290.20669      2052.0589      751.68993    
     13600   13600          302.12316      1987.8499      9476.7586      7476.9258      4814.1564      2662.7694      1821.9477      2614.592      -2002.5714      211.60753      146.64231      3840.1546     -3969.6032     -416.95515      68981.751      41.012043      41.012043      41.012043      1.0033595      1247.2745      856.31754      3859.9576    
     13700   13700          302.67363      378.4295       7772.0737      7391.9928      4822.9278      2569.0649      1810.683       2575.796      -1984.5841      205.43145      91.03519       3841.4591     -3970.7557     -417.64597      68867.649      40.989418      40.989418      40.989418      1.0050219      1588.1091      321.50598     -774.32654    
     13800   13800          297.90456      245.94078      7566.5136      7319.6836      4746.9355      2572.7481      1769.1703      2610.128      -2000.558       202.93792      123.04934      3839.0519     -3971.0313     -417.95751      68816.317      40.979231      40.979231      40.979231      1.0057715      420.8618       2439.6878     -2122.7272    
     13900   13900          296.45108      89.202477      7402.6926      7313.051       4723.7751      2589.2758      1815.2713      2608.1811     -1990.608       199.74601      86.589972      3840.8874     -3970.792      -417.41346      68906.012      40.997028      40.997028      40.997028      1.0044623      997.84589     -1672.5174      942.2789     
     14000   14000          297.79346      623.74112      7999.8309      7371.9125      4745.1651      2626.7474      1905.5382      2586.8723     -2016.0784      206.21797      71.418461      3842.5229     -3969.744      -416.67803      69027.629      41.021133      41.021133      41.021133      1.0026926      791.5641       1223.8486     -144.18937    
     14100   14100          306.46639      1408.5876      8958.0435      7537.4777      4883.3632      2654.1145      1851.7886      2629.5524     -2003.66        203.60856      100.89723      3841.1549     -3969.2271     -415.93163      69151.5        41.045656      41.045656      41.045656      1.0008965      805.19309      1850.8117      1569.7579    
     14200   14200          303.05175      549.04078      8058.5106      7504.062       4828.953       2675.109       1866.1719      2613.8448     -1975.6446      206.62498      86.451469      3845.7565     -3968.096      -415.37727      69243.79       41.063908      41.063908      41.063908      0.99956246     937.61723     -445.97119      1155.4763    
     14300   14300          301.13277      961.57755      8394.0934      7423.8719      4798.3751      2625.4968      1856.7677      2628.3496     -2060.8008      203.41533      117.88514      3848.7407     -3968.8608     -415.73144      69184.8        41.052243      41.052243      41.052243      1.0004147     -68.415427      1563.0797      1390.0684    
     14400   14400          295.75335      872.0268       8246.7966      7369.9298      4712.6572      2657.2726      1789.7594      2614.1509     -1975.5887      201.66004      152.13191      3844.3464     -3969.1874     -417.15327      68948.989      41.005549      41.005549      41.005549      1.0038362      521.04627      1755.2074      339.82673    
     14500   14500          300.30605      279.55749      7637.2792      7356.4381      4785.2019      2571.2362      1825.4115      2583.3363     -2005.2235      203.5182       87.772494      3847.2433     -3970.8221     -417.55134      68883.258      40.992515      40.992515      40.992515      1.0047941     -981.80027      1055.4462      765.02648    
     14600   14600          298.43437      893.17788      8275.8615      7380.4174      4755.3777      2625.0397      1887.5392      2557.8743     -2006.9765      208.565        103.2237       3846.4782     -3971.6642     -418.40703      68742.384      40.964551      40.964551      40.964551      1.0068533      1104.8556      1504.7156      69.96244     
     14700   14700          302.50071     -707.366        6795.5015      7503.2707      4820.1725      2683.0982      1857.4025      2636.4351     -1919.6549      208.61058      28.855336      3842.7771     -3971.3276     -419.22968      68607.49       40.937738      40.937738      40.937738      1.0088329     -449.72112     -230.54331     -1441.8336    
     14800   14800          304.38763      1476.9803      8985.2388      7513.7193      4850.2393      2663.48        1831.1149      2626.0379     -2002.4753      200.15736      136.46267      3844.4115     -3972.2291     -421.02524      68314.899      40.879459      40.879459      40.879459      1.0131537      1696.9039      1638.3752      1095.6618    
     14900   14900          304.9237       59.092009      7459.4405      7400.5831      4858.7813      2541.8018      1861.1543      2581.9803     -2014.9153      197.84231      40.786297      3846.6713     -3971.7173     -421.14112      68296.101      40.875709      40.875709      40.875709      1.0134326      120.49617     -56.218353      112.99821    
     15000   15000          302.78078      607.66072      7936.2846      7330.4153      4824.6351      2505.7801      1807.6722      2532.4271     -1976.8484      198.76735      69.998114      3844.4421     -3970.6783     -420.7089       68366.266      40.889703      40.889703      40.889703      1.0123925      122.38275      474.78852      1225.8109    
     15100   15100          297.80879      542.82765      7876.5775      7333.6525      4745.4094      2588.2431      1841.1993      2608.6659     -2019.0048      196.21914      91.261291      3841.3461     -3971.4438     -419.39341      68580.707      40.93241       40.93241       40.93241       1.0092269     -462.44158      1403.3525      687.57202    
     15200   15200          299.4169      -407.96938      6993.2287      7403.1554      4771.0338      2632.1216      1874.0794      2579.4777     -1977.5345      208.38136      73.653975      3843.5932     -3969.5296     -417.46573      68897.384      40.995317      40.995317      40.995317      1.0045881     -1474.3104     -343.76484      594.16713    
     15300   15300          299.92517      276.07748      7754.8528      7476.8676      4779.1327      2697.7349      1861.7007      2605.1043     -1952.5603      204.77614      99.688586      3845.5408     -3966.5153     -416.58993      69042.227      41.024025      41.024025      41.024025      1.0024806      1725.725      -763.65563     -133.83695    
     15400   15400          300.91116      2179.1902      9639.7559      7443.5603      4794.8438      2648.7165      1843.0949      2590.0863     -2028.1882      204.79445      155.34705      3848.6518     -3965.0697     -416.22061      69103.489      41.036155      41.036155      41.036155      1.0015919      2124.8387      1432.334       2980.398     
     15500   15500          297.79402     -2108.2643      5197.0586      7326.54        4745.1741      2581.3659      1875.5571      2562.6556     -1964.312       208.08091      23.296498      3841.8324     -3965.7447     -415.28919      69258.476      41.066811      41.066811      41.066811      0.9993505     -1188.4161     -3007.4748     -2128.9019    
     15600   15600          297.02553      2414.6214      9738.8935      7303.8531      4732.9286      2570.9245      1812.8696      2592.8178     -2061.8875      201.44202      157.64235      3835.44       -3967.3998     -415.95114      69148.258      41.045015      41.045015      41.045015      1.0009434      1748.5057      2889.249       2606.1095    
     15700   15700          298.13713     -766.8888       6591.9244      7366.1799      4750.6414      2615.5385      1825.3905      2608.0773     -1959.7655      213.05381      54.746373      3840.6748     -3966.6388     -415.47756      69227.076      41.060604      41.060604      41.060604      0.99980379    -2142.5418      509.86547     -667.99008    
     15800   15800          304.53565      398.3166       7870.9412      7469.3616      4852.598       2616.7636      1842.5043      2611.9673     -1993.263       204.95725      74.362935      3841.3321     -3965.0972     -416.06021      69130.13       41.041428      41.041428      41.041428      1.0012059      160.11669      1940.3407     -905.50758    
     15900   15900          305.74674      646.55177      8107.2344      7457.0588      4871.8959      2585.1628      1814.5524      2639.615      -2028.6844      202.72247      88.683119      3837.1527     -3968.8785     -417.13059      68952.738      41.006292      41.006292      41.006292      1.0037816      800.71819      769.01465      369.92247    
     16000   16000          296.96866      2363.834       9742.3598      7370.2639      4732.0224      2638.2415      1864.9098      2601.8858     -2029.956       200.2306       135.05376      3835.7371     -3969.6196     -418.00759      68808.072      40.977595      40.977595      40.977595      1.0058921      1307.5412      3176.8598      2607.101     
     16100   16100          302.07932      969.0056       8278.0265      7306.3393      4813.4578      2492.8815      1824.2135      2552.3331     -2040.1076      205.05867      82.647636      3838.1777     -3969.4415     -418.31096      68758.171      40.967686      40.967686      40.967686      1.0066221      760.46467      1202.286       944.26617    
     16200   16200          300.41201     -542.35082      6761.3475      7305.5241      4786.8902      2518.6339      1814.4644      2572.1586     -1998.1619      197.25512      63.182697      3837.9117     -3968.1766     -418.06119      68799.25       40.975843      40.975843      40.975843      1.006021      -1113.0391      839.78586     -1353.7992    
     16300   16300          301.74936     -139.48381      7193.3997      7333.4466      4808.2         2525.2466      1789.699       2507.8268     -1966.9753      193.24369      128.24097      3841.1599     -3967.9484     -417.78204      68845.22       40.984968      40.984968      40.984968      1.0053493     -1338.6552     -2.7450258      922.94874    
     16400   16400          299.44877     -864.22115      6519.2372      7390.2237      4771.5416      2618.6821      1836.983       2571.7061     -1926.1051      201.40842      49.412059      3852.5857     -3967.3082     -416.21036      69105.192      41.036492      41.036492      41.036492      1.0015672     -938.96838     -274.01649     -1379.6786    
     16500   16500          304.35202      1762.9788      9214.5316      7436.7838      4849.672       2587.1118      1839.3505      2565.0113     -2015.0406      208.11322      114.2864       3842.5588     -3967.1678     -415.98378      69142.832      41.043941      41.043941      41.043941      1.001022       1822.3952      2495.2375      971.30381    
     16600   16600          301.95821      898.95563      8345.5307      7438.561       4811.528       2627.033       1857.492       2610.1306     -2038.2199      198.33499      116.49271      3851.6406     -3968.8379     -415.76215      69179.69       41.051233      41.051233      41.051233      1.0004886      1033.8109      2221.6474     -558.59141    
     16700   16700          299.83645     -1786.3343      5597.6648      7402.9494      4777.719       2625.2304      1806.5885      2566.4439     -1890.7693      214.49985      45.488959      3852.7862     -3969.8078     -415.0654       69295.819      41.07419       41.07419       41.07419       0.99881197    -2308.0089     -1420.7443     -1630.2498    
     16800   16800          296.82091      575.11115      7888.7301      7307.7593      4729.6681      2578.0912      1843.0947      2544.3677     -2005.9863      197.41412      119.56054      3848.7055     -3969.065      -415.23788      69267.034      41.068502      41.068502      41.068502      0.99922704    -613.60713      971.34058      1367.6       
     16900   16900          293.90732     -973.79739      6285.5297      7268.9449      4683.2418      2585.7031      1802.0192      2549.5249     -1930.1303      206.33891      84.128832      3844.1623     -3970.3408     -415.36616      69245.642      41.064274      41.064274      41.064274      0.99953572    -845.28513     -1417.7761     -658.331      
     17000   17000          300.88534      518.10049      7911.0841      7388.962       4794.4325      2594.5295      1824.3424      2553.1609     -1982.8618      200.13115      125.05512      3843.7952     -3969.0934     -416.23761      69100.668      41.035596      41.035596      41.035596      1.0016328     -130.81348      925.2425       759.87244    
     17100   17100          305.2932       893.01687      8353.1464      7455.73        4864.6691      2591.0609      1863.2302      2563.6805     -2015.1299      207.45939      96.794492      3843.5437     -3968.5174     -417.41218      68906.222      40.997069      40.997069      40.997069      1.0044593      658.63494      279.44387      1740.9718    
     17200   17200          302.18303      2041.815       9471.3447      7427.178       4815.1104      2612.0676      1843.7457      2543.9952     -2010.619       207.07291      151.31987      3845.8397     -3969.2868     -418.98602      68647.39       40.945673      40.945673      40.945673      1.0082465      2553.2945      2010.8216      1561.3289    
     17300   17300          305.89        -895.43367      6482.5588      7380.2153      4874.1789      2506.0365      1762.0131      2594.9154     -1985.349       192.12267      77.984432      3837.324      -3972.9741     -418.42987      68738.631      40.963805      40.963805      40.963805      1.0069082     -1545.2946      313.11614     -1454.1225    
     17400   17400          294.507        800.90964      8098.424       7294.6784      4692.7973      2601.8811      1809.0792      2552.0708     -1956.9746      209.64911      128.24828      3831.9785     -3972.1702     -417.98849      68811.217      40.978219      40.978219      40.978219      1.0058461      254.07934      1580.108       568.54156    
     17500   17500          291.6627       392.09557      7603.1348      7208.5103      4647.475       2561.0353      1838.0407      2568.6339     -1959.47        214.94778      44.778741      3826.185      -3972.0809     -416.7804       69010.674      41.017774      41.017774      41.017774      1.0029389      555.58402     -818.37248      1439.0752    
     17600   17600          295.78652     -110.93473      7094.9264      7206.5728      4713.1857      2493.3871      1744.9617      2567.8811     -1989.1806      200.89054      91.658897      3842.8187     -3965.6433     -416.79473      69008.302      41.017304      41.017304      41.017304      1.0029734     -1240.3613      42.499639      865.05747    
     17700   17700          297.86101      1378.302       8753.5083      7368.8508      4746.2415      2622.6093      1826.9336      2576.6238     -1983.5222      217.19107      115.55931      3838.4963     -3968.6726     -417.54325      68884.591      40.992779      40.992779      40.992779      1.0047747      1803.3214      1442.249       889.33565    
     17800   17800          299.86697      1459.6344      8904.6278      7440.2777      4778.2053      2662.0724      1872.2009      2646.8326     -2053.4388      208.69407      114.1339       3842.8467     -3969.197      -418.11778      68789.939      40.973995      40.973995      40.973995      1.0061572      1586.7883      1773.9902      1018.1247    
     17900   17900          303.69119      885.39671      8332.3056      7444.1938      4839.142       2605.0518      1757.8924      2624.8455     -1943.4413      213.79846      86.534023      3837.924      -3972.5013     -418.18625      68778.676      40.971758      40.971758      40.971758      1.006322       2817.5685      1373.8382     -1535.2165    
     18000   18000          299.87153      322.06266      7676.5818      7353.7127      4778.278       2575.4348      1788.9877      2614.5903     -1983.4198      214.87383      75.411818      3837.6164     -3972.6254     -418.42098      68740.092      40.964096      40.964096      40.964096      1.0068868      956.52988      1.1343249      8.523787     
     18100   18100          304.18015      347.16684      7631.3679      7283.0364      4846.9333      2436.1031      1777.2383      2541.1921     -2001.2688      196.1107       67.390247      3829.0811     -3973.6406     -418.06601      68798.457      40.975686      40.975686      40.975686      1.0060326      81.146264      203.81883      756.53541    
     18200   18200          294.66906      351.59455      7656.3699      7302.9994      4695.3797      2607.6197      1791.3105      2642.7675     -1973.2595      204.24567      65.36163       3844.0956     -3966.9017     -417.36048      68914.758      40.998762      40.998762      40.998762      1.0043349     -1310.3077      1638.1645      726.92691    
     18300   18300          303.89122      1396.2066      8878.3363      7475.42        4842.3294      2633.0906      1846.347       2631.0421     -2022.7003      198.46322      105.74029      3842.741      -3968.5427     -417.4624       68897.933      40.995426      40.995426      40.995426      1.0045801      812.99919      2555.4238      820.19677    
     18400   18400          304.93209      1190.7562      8680.5683      7482.655       4858.915       2623.74        1903.6017      2557.479      -2042.1089      203.57613      115.42185      3852.8281     -3967.0579     -416.96241      68980.55       41.011805      41.011805      41.011805      1.0033769      550.42188      2406.0599      615.78671    
     18500   18500          300.44137      22.244327      7419.9952      7397.5825      4787.358       2610.2244      1854.7125      2619.7914     -2007.7462      202.19252      58.466763      3849.9039     -3967.0964     -416.31757      69087.395      41.032969      41.032969      41.032969      1.0018252      112.77916     -841.05296      795.00678    
     18600   18600          293.99857      1133.2989      8464.4787      7324.5029      4684.6958      2639.8072      1885.7947      2545.3449     -2013.7947      201.59756      131.83844      3854.0655     -3965.0393     -417.01176      68972.387      41.010187      41.010187      41.010187      1.0034957      1087.6424      646.199        1666.0554    
     18700   18700          300.80344     -839.57445      6481.5062      7326.5861      4793.1274      2533.4587      1719.6491      2603.2548     -1963.2717      194.11614      89.89707       3856.0855     -3966.2722     -416.73587      69018.049      41.019235      41.019235      41.019235      1.0028318     -1020.2844     -367.05271     -1131.3863    
     18800   18800          302.59242     -59.887352      7391.0369      7451.4063      4821.6338      2629.7725      1887.3948      2546.2106     -1990.471       208.63357      87.233385      3857.2495     -3966.4783     -416.11916      69120.336      41.039489      41.039489      41.039489      1.0013477     -1333.9864      930.37067      223.95369    
     18900   18900          299.89811      1030.42        8550.28        7512.3034      4778.7015      2733.602       1916.9458      2628.5627     -1987.016       214.39755      81.982656      3848.9094     -3970.1801     -416.4148       69071.264      41.029775      41.029775      41.029775      1.0020592      1185.7329      1142.4786      763.0484     
     19000   19000          306.92547     -67.616719      7388.0097      7455.9214      4890.6784      2565.2431      1798.5959      2607.4409     -1978.9658      198.82789      61.204634      3848.2321     -3970.0925     -417.64607      68867.633      40.989415      40.989415      40.989415      1.0050221      92.460323     -777.18678      481.8763     
     19100   19100          298.02829      24.272497      7413.3729      7389.0551      4748.907       2640.1481      1791.5083      2623.3701     -1951.3282      202.745        103.28927      3840.087      -3969.5234     -418.68859      68696.155      40.955366      40.955366      40.955366      1.0075308      477.66037     -142.10451     -262.73837    
     19200   19200          300.327        1834.8654      9182.5898      7346.2812      4785.5357      2560.7455      1866.7375      2556.5376     -2042.1185      195.55784      113.75857      3842.8513     -3972.5787     -419.13893      68622.345      40.940693      40.940693      40.940693      1.0086145      2001.0979      2697.8882      805.61022    
     19300   19300          299.08379     -115.12587      7209.4391      7324.8873      4765.7258      2559.1615      1794.8372      2630.1947     -2011.7811      199.41074      73.408529      3844.5685     -3971.4771     -418.29742      68760.397      40.968128      40.968128      40.968128      1.0065895     -876.11232     -37.71613       568.45084    
     19400   19400          294.85809      1265.3725      8549.1237      7278.1867      4698.3918      2579.7949      1845.7136      2565.8655     -2028.9054      204.30587      117.85816      3847.8171     -3972.86       -417.63203      68869.948      40.989874      40.989874      40.989874      1.0049883      885.92152      2271.839       638.35689    
     19500   19500          296.23714      1043.3124      8338.1109      7286.0432      4720.366       2565.6772      1851.1759      2609.6634     -2072.3049      190.34178      111.9501       3845.5575     -3970.7066     -415.97777      69143.831      41.044139      41.044139      41.044139      1.0010075      635.08616      1280.3061      1214.5449    
     19600   19600          300.08759     -4.1161378      7390.7348      7394.898       4781.7208      2613.1772      1847.0568      2558.6873     -1965.7226      202.92253      90.310835      3847.7495     -3967.8272     -414.72904      69352.019      41.085291      41.085291      41.085291      0.99800256    -151.95774     -321.83761      461.44694    
     19700   19700          299.08058      460.17277      7916.2447      7450.3555      4765.6747      2684.6808      1860.7275      2623.0117     -1997.9538      202.129        124.81617      3839.5228     -3967.5725     -414.32174      69420.196      41.09875       41.09875       41.09875       0.99702243    -329.4487       1214.951       495.01596    
     19800   19800          304.31063      857.46682      8311.7903      7445.2355      4849.0125      2596.223       1827.9485      2646.723      -2057.5677      200.46439      112.57725      3835.9265     -3969.849      -415.06942      69295.146      41.074057      41.074057      41.074057      0.99882166     1690.2976      714.76892      167.33399    
     19900   19900          299.69976      336.73058      7655.5322      7316.4864      4775.541       2540.9454      1768.4938      2561.4771     -1981.7331      201.75987      114.23433      3845.1181     -3968.4047     -416.60422      69039.859      41.023556      41.023556      41.023556      1.002515      -402.78096      1356.8797      56.093008    
     20000   20000          298.3388       1791.5762      9072.4146      7272.9815      4753.8549      2519.1267      1847.0008      2565.8692     -2110.5502      191.61886      151.35801      3845.1807     -3971.3507     -417.63707      68869.118      40.98971       40.98971       40.98971       1.0050004      231.6871       3283.3986      1859.6428    
     20100   20100          297.33664      517.01271      7850.2123      7331.6637      4737.8859      2593.7778      1786.0326      2623.7961     -2003.722       199.23477      121.60017      3837.9031     -3971.0669     -418.22617      68772.111      40.970455      40.970455      40.970455      1.006418      -148.79169      1276.0387      423.79115    
     20200   20200          302.58755      208.88549      7600.4823      7390.797       4821.5561      2569.2409      1810.7544      2608.4536     -1993.3859      200.01915      72.262751      3841.6452     -3970.5083     -417.86861      68830.957      40.982137      40.982137      40.982137      1.0055576      880.0471       30.363863     -283.75448    
     20300   20300          297.98183      1263.9504      8670.6537      7398.9082      4748.1667      2650.7415      1869.5272      2605.3226     -2021.0041      192.92524      132.62768      3840.7374     -3969.3945     -416.89749      68991.292      41.013934      41.013934      41.013934      1.0032207      1556.8588      1003.6835      1231.309     
     20400   20400          298.20721      70.043111      7450.2486      7379.5054      4751.7581      2627.7473      1833.2889      2638.7915     -2006.1936      205.99451      88.278273      3839.6185     -3972.0308     -415.31761      69253.737      41.065874      41.065874      41.065874      0.9994189     -258.12446     -568.3863       1036.6401    
     20500   20500          298.51152     -527.81452      6741.7796      7276.0934      4756.607       2519.4864      1768.2111      2608.7852     -2016.2432      193.88874      89.475728      3844.8811     -3969.5123     -414.36629      69412.732      41.097277      41.097277      41.097277      0.99712964    -1912.4339      636.19814     -307.20779    
     20600   20600          292.76615      1404.3984      8576.8119      7156.0765      4665.0578      2491.0187      1814.7253      2548.6324     -2030.1627      200.03968      83.030459      3844.6912     -3969.9378     -414.64513      69366.054      41.088063      41.088063      41.088063      0.99780064     1877.7018      1306.4313      1029.0621    
     20700   20700          298.27617      234.86041      7474.4243      7237.3952      4752.8569      2484.5383      1792.7789      2524.8023     -2017.2926      201.4403       113.43181      3837.5419     -3968.1644     -415.63071      69201.567      41.05556       41.05556       41.05556       1.0001723     -610.57499      1468.607      -153.4508     
     20800   20800          301.3424       250.84712      7602.2303      7349.4894      4801.7154      2547.7741      1799.7025      2593.7808     -2026.0364      198.83763      106.85853      3844.279      -3969.6479     -416.32556      69086.069      41.032706      41.032706      41.032706      1.0018444     -825.33391      641.1678       936.70748    
     20900   20900          299.63772      601.84205      8017.0653      7411.5719      4774.5524      2637.0195      1914.669       2605.2711     -2057.3022      194.17134      105.38445      3844.4521     -3969.6263     -416.9391       68984.408      41.01257       41.01257       41.01257       1.0033208     -479.13796      903.81037      1380.8537    
     21000   21000          303.82531      532.66376      7960.6897      7426.1194      4841.2791      2584.8403      1792.6405      2609.7666     -2015.8108      198.40936      122.79086      3844.6961     -3967.6524     -417.97257      68813.837      40.978739      40.978739      40.978739      1.0058078      442.67478      737.79953      417.51697    
     21100   21100          298.32965      700.7408       8072.0904      7368.9402      4753.709       2615.2312      1877.8592      2641.5308     -2049.59        200.66363      79.04458       3836.9615     -3971.2384     -418.03127      68804.174      40.976821      40.976821      40.976821      1.005949       1545.6227      1213.6502     -657.05053    
     21200   21200          293.96638      880.88105      8134.0622      7251.5631      4684.1829      2567.3802      1835.9719      2605.94       -2044.2012      197.64867      103.07316      3841.499      -3972.5513     -418.69948      68694.368      40.955011      40.955011      40.955011      1.007557       1383.8915      802.59653      456.1551     
[...]
    495200   495200         297.25629      278.67036      7680.5794      7400.3931      4736.6057      2663.7874      1855.3231      2604.9802     -1976.5631      214.26666      93.00829       3844.3082     -3971.536      -417.19899      68941.434      41.004052      41.004052      41.004052      1.0039462     -827.91214     -871.25639      2535.1796    
    495300   495300         301.85436      571.61291      8006.2725      7431.3388      4809.8732      2621.4656      1849.7787      2575.2421     -1983.5459      217.29377      92.826785      3841.0651     -3971.1951     -417.04571      68966.773      41.009075      41.009075      41.009075      1.0035774     -497.62866      1864.6564      347.811      
    495400   495400         296.7578      -87.360098      7268.1408      7356.0556      4728.6625      2627.3931      1823.8574      2594.2068     -1969.6886      211.51671      106.25774      3833.5248     -3972.2818     -416.82188      69003.808      41.016414      41.016414      41.016414      1.0030388     -491.93567     -206.5074       436.36277    
    495500   495500         292.35558      48.707929      7283.5382      7234.6141      4658.5157      2576.0985      1802.6928      2566.2914     -1935.1202      199.28271      70.725186      3842.0605     -3969.834      -417.61526      68872.714      40.990423      40.990423      40.990423      1.004948       397.29289     -340.94459      89.775488    
    495600   495600         296.23187      494.23419      7787.0475      7291.6474      4720.282       2571.3653      1808.8711      2607.0734     -1999.18        206.62288      82.153639      3837.8733     -3972.049      -418.48134      68730.176      40.962126      40.962126      40.962126      1.0070321      1451.8384     -287.86174      318.72591    
    495700   495700         297.08177      320.88923      7711.9909      7390.7039      4733.8247      2656.8791      1906.0723      2626.6986     -2020.6134      200.84501      74.717233      3840.4177     -3971.2584     -418.94924      68653.416      40.946871      40.946871      40.946871      1.008158       198.47805      1105.6016     -341.41198    
    495800   495800         300.88277     -621.11848      6787.4589      7407.9583      4794.3915      2613.5669      1782.3913      2619.716      -1917.7924      205.68678      63.722973      3835.2549     -3975.4126     -419.88709      68500.073      40.916362      40.916362      40.916362      1.0104149     -1503.0948      156.34162     -516.60227    
    495900   495900         303.30676      2559.9066      9941.2461      7387.3392      4833.0163      2554.3229      1829.4915      2596.1001     -2078.6785      209.17453      141.1905       3833.1057     -3976.0609     -420.454        68407.712      40.897964      40.897964      40.897964      1.0117791      1453.0385      3888.073       2338.6082    
    496000   496000         294.04295      883.86236      8140.0958      7258.2221      4685.403       2572.8191      1777.9175      2617.9572     -1984.8874      211.11603      91.861799      3833.7838     -3974.9299     -420.41451      68414.138      40.899245      40.899245      40.899245      1.0116841      161.93891      1475.2787      1014.3695    
    496100   496100         295.34845      1201.6032      8406.6685      7206.7278      4706.2054      2500.5225      1759.3312      2591.2912     -1988.7189      198.84845      76.61407       3836.3117     -3973.1552     -420.04976      68473.546      40.91108       40.91108       40.91108       1.0108063      1569.7245      1603.9331      431.15198    
    496200   496200         295.43974      583.16198      7852.7972      7268.852       4707.6599      2561.1921      1788.7928      2611.2091     -2023.752       204.97047      112.78971      3839.1304     -3971.9484     -418.90602      68660.5        40.948279      40.948279      40.948279      1.008054       498.78871      644.56992      606.1273     
    496300   496300         302.29218     -222.24004      7121.4924      7344.9049      4816.8496      2528.0553      1734.4307      2576.3062     -1935.4591      211.32549      70.39698       3842.8284     -3971.7732     -417.26717      68930.168      41.001818      41.001818      41.001818      1.0041103      168.7623       892.94819     -1728.4306    
    496400   496400         300.95758     -677.98441      6721.4695      7405.7761      4795.5835      2610.1926      1833.4362      2573.5935     -1950.0783      211.88379      69.343691      3842.2807     -3970.2669     -415.59318      69207.816      41.056795      41.056795      41.056795      1.000082      -1223.5781     -532.03937     -278.33579    
    496500   496500         301.25525      796.1244       8239.3292      7434.4357      4800.3267      2634.109       1818.9759      2608.7704     -1990.9556      201.82526      119.45472      3843.4428     -3967.4045     -414.89857      69323.681      41.079695      41.079695      41.079695      0.99841053     852.21491      1942.4056     -406.24732    
    496600   496600         302.2236      -358.69286      7042.9282      7405.7978      4815.7568      2590.041       1782.1687      2563.2822     -1927.682       206.69064      90.698489      3842.2569     -3967.3738     -414.64042      69366.843      41.088218      41.088218      41.088218      0.9977893     -120.56401     -1610.9484      655.43389    
    496700   496700         294.37066      1349.1968      8633.2351      7268.5822      4690.6248      2577.9574      1796.5235      2549.8398     -2003.8886      208.86448      153.63339      3839.7852     -3966.8004     -414.71766      69353.922      41.085667      41.085667      41.085667      0.99797518     1892.2566      774.53357      1380.8001    
    496800   496800         295.06994     -201.13306      7068.5978      7272.0622      4701.7675      2570.2948      1778.1297      2552.8234     -1927.1529      210.74004      77.134617      3844.9097     -3966.2898     -414.66216      69363.206      41.0875        41.0875        41.0875        0.99784161    -1666.7358     -7.1987676      1070.5354    
    496900   496900         300.6823       231.93415      7613.022       7378.9659      4791.1972      2587.7687      1825.7891      2594.0899     -1985.3199      204.14905      69.511172      3849.7816     -3970.2323     -415.66562      69195.755      41.05441       41.05441       41.05441       1.0002563      175.48902      402.80937      117.50406    
    497000   497000         297.62907      1732.3472      9170.1668      7431.2172      4742.5458      2688.6714      1872.0795      2629.7691     -2017.1346      200.08588      129.71694      3847.8955     -3973.7407     -417.87597      68829.745      40.981897      40.981897      40.981897      1.0055753      803.2731       2231.7222      2162.0465    
    497100   497100         297.35782      756.0849       8174.2248      7418.7865      4738.2235      2680.563       1862.619       2612.4137     -1980.7964      203.41314      107.64665      3847.2938     -3972.0269     -419.82764      68509.774      40.918293      40.918293      40.918293      1.0102718      101.53856      954.17105      1212.5451    
    497200   497200         301.84922      646.28736      7989.0571      7343.681       4809.7914      2533.8897      1801.6741      2553.5113     -2009.3177      198.07003      118.38807      3844.0572     -3972.4933     -420.0609       68471.73       40.910718      40.910718      40.910718      1.0108331      115.09153      262.49413      1561.2764    
    497300   497300         299.59857     -347.88813      6945.8069      7294.4243      4773.9286      2520.4958      1767.585       2562.4375     -1976.0245      201.83525      86.950515      3846.9283     -3969.2162     -418.59105      68712.164      40.958547      40.958547      40.958547      1.0072961     -249.58906     -671.03158     -123.04376    
    497400   497400         293.501        1684.1802      8928.8281      7235.8803      4676.7672      2559.1131      1783.1503      2601.5532     -2034.0839      202.733        118.82308      3855.1687     -3968.2313     -417.29621      68925.373      41.000867      41.000867      41.000867      1.0041802      1964.4389      1201.2874      1886.8143    
    497500   497500         298.84235      1771.7376      9051.9275      7265.1391      4761.8786      2503.2605      1833.6309      2576.7701     -2064.7891      194.77905      78.631168      3851.866      -3967.6277     -415.93525      69150.899      41.045537      41.045537      41.045537      1.0009052      1528.3218      2279.4623      1507.4288    
    497600   497600         301.09147      399.65772      7799.3244      7395.3548      4797.7169      2597.6379      1851.6477      2627.0501     -2034.0315      194.3596       80.915391      3846.3455     -3968.6489     -414.99131      69308.19       41.076634      41.076634      41.076634      0.99863368    -390.81005      505.9223       1083.8609    
    497700   497700         304.63267     -482.78117      6980.2535      7467.4882      4854.144       2613.3442      1768.9726      2610.61       -1963.2213      203.82277      112.54741      3850.4441     -3969.8314     -415.63447      69200.94       41.055436      41.055436      41.055436      1.0001814     -799.30033     -477.30168     -171.7415     
    497800   497800         303.88922      221.78885      7678.6522      7455.0913      4842.2975      2612.7939      1810.4923      2594.8572     -1991.5642      206.82353      115.53742      3845.671      -3969.0233     -416.14376      69116.251      41.038681      41.038681      41.038681      1.0014069     -260.35314      435.14067      490.57902    
    497900   497900         297.58234      288.22407      7641.4248      7351.3523      4741.8011      2609.5511      1823.0836      2605.7313     -2015.9587      190.86929      128.30821      3847.3508     -3969.8334     -416.79553      69008.17       41.017278      41.017278      41.017278      1.0029753      441.74275      1364.303      -941.37355    
    498000   498000         296.63448      1470.8112      8778.2418      7301.3685      4726.6975      2574.671       1834.2946      2579.6502     -2055.4572      199.0554       143.06548      3848.4411     -3974.3786     -417.7468       68851.027      40.98612       40.98612       40.98612       1.0052645      1854.1083      1904.2312      654.09402    
    498100   498100         299.77406      1740.8969      9081.3684      7337.637       4776.7249      2560.9121      1906.6849      2592.7188     -2083.6441      199.71989      74.587214      3845.9767     -3975.1312     -418.78674      68680.056      40.952166      40.952166      40.952166      1.007767       1263.8203      2056.9842      1901.8862    
    498200   498200         297.24993      851.1131       8216.03        7365.7288      4736.5043      2629.2246      1788.3889      2641.4872     -2024.6475      193.10441      159.06197      3847.0402     -3975.2108     -419.86915      68503          40.916945      40.916945      40.916945      1.0103717      954.94654      683.08098      915.31176    
    498300   498300         302.44062     -5.840911       7371.6952      7377.5354      4819.2149      2558.3205      1809.188       2576.41       -1974.5415      202.29836      83.721835      3837.9919     -3976.7481     -419.51832      68560.287      40.928347      40.928347      40.928347      1.0095275     -418.32107      714.64083     -313.84249    
    498400   498400         299.3506      -414.12104      6944.6876      7359.8286      4769.9772      2589.8514      1781.74        2629.7601     -1989.1807      199.27585      103.98401      3839.9444     -3975.6722     -418.43798      68737.298      40.96354       40.96354       40.96354       1.0069278     -1246.5071     -353.25082      357.39482    
    498500   498500         301.51029      512.6331       7895.2488      7379.604       4804.3907      2575.2133      1790.1569      2641.1009     -2005.0935      200.8927       77.740029      3841.5505     -3971.1341     -417.01866      68971.246      41.009961      41.009961      41.009961      1.0035123     -468.12387      2122.7702     -116.74702    
    498600   498600         300.62258      551.8045       8034.8567      7478.8511      4790.2456      2688.6055      1841.6217      2607.923      -1996.232       212.46338      156.23835      3838.5334     -3971.9423     -416.29917      69090.448      41.033573      41.033573      41.033573      1.0017809      1425.052       53.415669      176.94587    
    498700   498700         303.93396      23.172211      7537.7961      7514.4229      4843.0104      2671.4125      1840.8272      2691.6373     -2015.7635      202.89195      72.936278      3848.8544     -3969.9712     -415.86022      69163.375      41.048005      41.048005      41.048005      1.0007246     -1435.9544      1567.3076     -61.836576    
    498800   498800         299.8552       1234.0624      8633.8835      7392.1733      4778.0178      2614.1555      1732.4848      2603.0535     -1978.558       201.75105      169.94568      3853.4384     -3967.96       -416.88503      68993.354      41.014342      41.014342      41.014342      1.0031907      891.06238      668.03517      2143.0895    
    498900   498900         297.68327     -500.85803      6829.3363      7334.4682      4743.4093      2591.0589      1802.668       2629.5174     -1973.405       198.62527      56.427923      3847.6655     -3970.4402     -415.91951      69153.516      41.046055      41.046055      41.046055      1.0008673     -1128.4393     -930.30049      556.16567    
    499000   499000         297.2291       1442.954       8819.4759      7365.6687      4736.1723      2629.4964      1818.4072      2625.0316     -2024.9119      198.70306      132.53312      3850.7723     -3971.039      -416.33711      69084.152      41.032327      41.032327      41.032327      1.0018722      2479.8616      52.936424      1796.064     
    499100   499100         300.78771      1111.1064      8534.6856      7414.5451      4792.8768      2621.6683      1814.5911      2652.9157     -2046.958       201.34895      125.12519      3847.6607     -3973.0152     -416.08552      69125.924      41.040595      41.040595      41.040595      1.0012668      686.7169       1013.1619      1633.4405    
    499200   499200         301.81441      1339.0424      8844.2988      7493.2559      4809.2366      2684.0193      1853.7508      2679.5277     -2045.9222      206.08639      117.92074      3843.0296     -3970.3737     -415.74268      69182.929      41.051874      41.051874      41.051874      1.0004418      1467.3101      583.43414      1966.3828    
    499300   499300         303.25912     -26.905501      7547.0058      7574.1527      4832.2573      2741.8954      1781.1882      2700.7229     -1936.423       214.41535      114.324        3836.4072     -3968.7393     -415.73853      69183.62       41.05201       41.05201       41.05201       1.0004318     -1199.2916      1388.7711     -270.19594    
    499400   499400         300.76073     -138.4073       7352.8783      7492.6546      4792.4469      2700.2077      1804.4331      2662.8993     -1979.4907      202.21021      129.9585       3847.639      -3967.4416     -415.36008      69246.655      41.064474      41.064474      41.064474      0.9995211     -461.47978      258.08284     -211.82497    
    499500   499500         298.28953      1481.0289      8872.4706      7377.7123      4753.0697      2624.6426      1858.8786      2612.4658     -2043.8739      204.20734      118.45396      3842.3615     -3967.8507     -415.61575      69204.058      41.056052      41.056052      41.056052      1.0001363      2640.6015      1121.28        681.20516    
    499600   499600         299.02576      1388.6636      8767.6164      7367.011       4764.8011      2602.2099      1817.4236      2619.9465     -2028.0465      198.72793      104.61512      3856.3327     -3966.7894     -415.89209      69158.075      41.046957      41.046957      41.046957      1.0008013      934.65845      2116.9837      1114.3486    
    499700   499700         303.22967      710.23069      8107.4829      7391.6003      4831.7879      2559.8124      1788.4796      2585.9451     -2004.545       197.66438      103.69734      3855.4888     -3966.9178     -416.15686      69114.075      41.03825       41.03825       41.03825       1.0014385     -1184.2275      396.8639       2918.0557    
    499800   499800         298.64475     -500.31313      6945.3299      7449.4769      4758.73        2690.7469      1891.0934      2613.9837     -1984.961       201.81543      81.844058      3854.2651     -3967.2938     -416.27868      69093.85       41.034247      41.034247      41.034247      1.0017316     -1703.0611      516.04302     -313.9213     
    499900   499900         303.1681      -59.478549      7453.6365      7513.4974      4830.807       2682.6904      1822.3164      2608.8011     -1940.1684      212.42195      100.18734      3849.5571     -3970.4252     -416.78991      69009.1        41.017462      41.017462      41.017462      1.0029618      927.21397     -508.23238     -597.41724    
    500000   500000         303.79508      443.57585      7926.8591      7480.636       4840.7975      2639.8385      1802.682       2649.4801     -1982.6308      200.76218      95.229205      3843.9252     -3969.6094     -416.97999      68977.641      41.011229      41.011229      41.011229      1.0034192     -1168.3244      2054.3923      444.65971    
Loop time of 1190.66 on 1 procs for 500000 steps with 6420 atoms

Performance: 36.282 ns/day, 0.661 hours/ns, 419.936 timesteps/s, 2.696 Matom-step/s
99.8% CPU use with 1 MPI tasks x 1 OpenMP threads

MPI task timing breakdown:
Section |  min time  |  avg time  |  max time  |%varavg| %total
---------------------------------------------------------------
Pair    | 110.43     | 110.43     | 110.43     |   0.0 |  9.27
Bond    | 146.83     | 146.83     | 146.83     |   0.0 | 12.33
Kspace  | 507.98     | 507.98     | 507.98     |   0.0 | 42.66
Neigh   | 63.366     | 63.366     | 63.366     |   0.0 |  5.32
Comm    | 12.779     | 12.779     | 12.779     |   0.0 |  1.07
Output  | 6.1791     | 6.1791     | 6.1791     |   0.0 |  0.52
Modify  | 306.63     | 306.63     | 306.63     |   0.0 | 25.75
Other   |            | 36.46      |            |       |  3.06

Nlocal:           6420 ave        6420 max        6420 min
Histogram: 1 0 0 0 0 0 0 0 0 0
Nghost:          18013 ave       18013 max       18013 min
Histogram: 1 0 0 0 0 0 0 0 0 0
Neighs:              0 ave           0 max           0 min
Histogram: 1 0 0 0 0 0 0 0 0 0
FullNghs:  3.80258e+06 ave 3.80258e+06 max 3.80258e+06 min
Histogram: 1 0 0 0 0 0 0 0 0 0

Total # of neighbors = 3802584
Ave neighs/atom = 592.3028
Ave special neighs/atom = 5.8598131
Neighbor list builds = 11610
Dangerous builds = 0

# --- Cleanup ---
unfix npt_fix
unfix shake_fix
undump dump_npt

# --- Write Output ---
write_dump all custom /home/alexzhao/PolyJarvis/data/PS4/lammps/mechanical/bm_series/bm_P500/bm_P500_last.dump id type mol x y z xu yu zu vx vy vz modify sort id
write_data /home/alexzhao/PolyJarvis/data/PS4/lammps/mechanical/bm_series/bm_P500/bm_P500_out.data
System init for write_data ...
PPPM Kokkos initialization ...
  using 12-bit tables for long-range coulomb
  G vector (1/distance) = 0.30308769
  grid = 30 30 30
  stencil order = 5
  estimated absolute RMS force accuracy = 0.00026682029
  estimated relative force accuracy = 8.0352139e-07
  using double precision cuFFT
  3d grid and FFT values/proc = 50653 27000
Generated 6 of 6 mixed pair_coeff terms from sixthpower/sixthpower mixing rule

print "STAGE COMPLETE: NPT T=300.0->300.0K P=500.0->500.0atm steps=500000"
STAGE COMPLETE: NPT T=300.0->300.0K P=500.0->500.0atm steps=500000
quit
