LAMMPS data file via write_data, version 22 Jul 2025, timestep = 500000, units = real

3620 atoms
4 atom types
3610 bonds
6 bond types
7200 angles
11 angle types
10710 dihedrals
13 dihedral types
4800 impropers
11 improper types

5.661074066517614 42.724420963483965 xlo xhi
5.661074066517614 42.724420963483965 ylo yhi
5.661074066517614 42.724420963483965 zlo zhi

Masses

1 12.01115
2 12.01115
3 35.453
4 1.00797

Pair Coeffs # lj/class2/coul/long/kk

1 0.054 4.01
2 0.054 4.01
3 0.2247 3.92
4 0.02 2.995

Bond Coeffs # class2/kk

1 1.53 299.67 -501.77 679.81
2 1.53 299.67 -501.77 679.81
3 1.79 194.319 0 0
4 1.101 345 -691.89 844.6
5 1.79 194.319 0 0
6 1.101 345 -691.89 844.6

Angle Coeffs # class2/kk

1 112.67 39.516 -7.443 -9.5583
2 107 61.1745 0 0
3 110.77 41.453 -10.604 5.129
4 112.67 39.516 -7.443 -9.5583
5 107 61.1745 0 0
6 110.77 41.453 -10.604 5.129
7 112.67 39.516 -7.443 -9.5583
8 110.77 41.453 -10.604 5.129
9 107.997 51.0987 0 0
10 107.997 51.0987 0 0
11 107.66 39.641 -12.921 -2.4318

BondBond Coeffs

1 0 1.53 1.53
2 0 1.53 1.79
3 3.3872 1.53 1.101
4 0 1.53 1.53
5 0 1.53 1.79
6 3.3872 1.53 1.101
7 0 1.53 1.53
8 3.3872 1.53 1.101
9 0 1.79 1.101
10 0 1.79 1.101
11 5.3316 1.101 1.101

BondAngle Coeffs

1 8.016 8.016 1.53 1.53
2 0 0 1.53 1.79
3 20.754 11.421 1.53 1.101
4 8.016 8.016 1.53 1.53
5 0 0 1.53 1.79
6 20.754 11.421 1.53 1.101
7 8.016 8.016 1.53 1.53
8 20.754 11.421 1.53 1.101
9 0 0 1.79 1.101
10 0 0 1.79 1.101
11 18.103 18.103 1.101 1.101

Dihedral Coeffs # class2/kk

1 0 0 0.0514 0 -0.143 0
2 0 0 0 0 0.15 0
3 0 0 0.0316 0 -0.1681 0
4 0 0 0.0514 0 -0.143 0
5 0 0 0.0316 0 -0.1681 0
6 0 0 0 0 0.15 0
7 0 0 0.0316 0 -0.1681 0
8 0 0 0 0 0.15 0
9 0 0 0.0316 0 -0.1681 0
10 0 0 0 0 -0.1 0
11 0 0 0 0 -0.1 0
12 -0.1432 0 0.0617 0 -0.1083 0
13 -0.1432 0 0.0617 0 -0.1083 0

AngleAngleTorsion Coeffs

1 -22.045 112.67 112.67
2 0 112.67 107
3 -16.164 112.67 110.77
4 -22.045 112.67 112.67
5 -16.164 112.67 110.77
6 0 112.67 107
7 -16.164 112.67 110.77
8 0 112.67 107
9 -16.164 112.67 110.77
10 0 107 110.77
11 0 107 110.77
12 -12.564 110.77 110.77
13 -12.564 110.77 110.77

EndBondTorsion Coeffs

1 -0.0732 0 0 -0.0732 0 0 1.53 1.53
2 0 0 0 0 0 0 1.53 1.79
3 0.2486 0.2422 -0.0925 0.0814 0.0591 0.2219 1.53 1.101
4 -0.0732 0 0 -0.0732 0 0 1.53 1.53
5 0.2486 0.2422 -0.0925 0.0814 0.0591 0.2219 1.53 1.101
6 0 0 0 0 0 0 1.53 1.79
7 0.2486 0.2422 -0.0925 0.0814 0.0591 0.2219 1.53 1.101
8 0 0 0 0 0 0 1.53 1.79
9 0.2486 0.2422 -0.0925 0.0814 0.0591 0.2219 1.53 1.101
10 0 0 0 0 0 0 1.79 1.101
11 0 0 0 0 0 0 1.79 1.101
12 0.213 0.312 0.0777 0.213 0.312 0.0777 1.101 1.101
13 0.213 0.312 0.0777 0.213 0.312 0.0777 1.101 1.101

MiddleBondTorsion Coeffs

1 -17.787 -7.1877 0 1.53
2 0 0 0 1.53
3 -14.879 -3.6581 -0.3138 1.53
4 -17.787 -7.1877 0 1.53
5 -14.879 -3.6581 -0.3138 1.53
6 0 0 0 1.53
7 -14.879 -3.6581 -0.3138 1.53
8 0 0 0 1.53
9 -14.879 -3.6581 -0.3138 1.53
10 0 0 0 1.53
11 0 0 0 1.53
12 -14.261 -0.5322 -0.4864 1.53
13 -14.261 -0.5322 -0.4864 1.53

BondBond13 Coeffs

1 0 1.53 1.53
2 0 1.53 1.79
3 0 1.53 1.101
4 0 1.53 1.53
5 0 1.53 1.101
6 0 1.53 1.79
7 0 1.53 1.101
8 0 1.53 1.79
9 0 1.53 1.101
10 0 1.79 1.101
11 0 1.79 1.101
12 0 1.101 1.101
13 0 1.101 1.101

AngleTorsion Coeffs

1 0.3886 -0.3139 0.1389 0.3886 -0.3139 0.1389 112.67 112.67
2 0 0 0 0 0 0 112.67 107
3 -0.2454 0 -0.1136 0.3113 0.4516 -0.1988 112.67 110.77
4 0.3886 -0.3139 0.1389 0.3886 -0.3139 0.1389 112.67 112.67
5 -0.2454 0 -0.1136 0.3113 0.4516 -0.1988 112.67 110.77
6 0 0 0 0 0 0 112.67 107
7 -0.2454 0 -0.1136 0.3113 0.4516 -0.1988 112.67 110.77
8 0 0 0 0 0 0 112.67 107
9 -0.2454 0 -0.1136 0.3113 0.4516 -0.1988 112.67 110.77
10 0 0 0 0 0 0 107 110.77
11 0 0 0 0 0 0 107 110.77
12 -0.8085 0.5569 -0.2466 -0.8085 0.5569 -0.2466 110.77 110.77
13 -0.8085 0.5569 -0.2466 -0.8085 0.5569 -0.2466 110.77 110.77

Improper Coeffs # class2/kk

1 0 0
2 0 0
3 0 0
4 0 0
5 0 0
6 0 0
7 0 0
8 0 0
9 0 0
10 0 0
11 0 0

AngleAngle Coeffs

1 0 0 0 107 110.77 107.997
2 0.1184 -1.3199 -1.3199 110.77 112.67 110.77
3 0 0 0 110.77 107 107.997
4 0.2738 -0.4825 0.2738 110.77 110.77 107.66
5 -1.3199 -1.3199 0.1184 112.67 110.77 110.77
6 0.2738 -0.4825 0.2738 110.77 110.77 107.66
7 0 0 0 107.997 107.997 107.66
8 -0.3157 -0.3157 -0.3157 107.66 107.66 107.66
9 0 0 0 112.67 107 107
10 -1.3199 -1.3199 0.1184 112.67 110.77 110.77
11 0 0 0 107 110.77 107.997

Atoms # full/kk

3366 10 3 -0.184 8.547128870982911 7.908927166265939 6.6391575085817705 1 0 1
1227 4 4 0.053 8.894481726781324 10.386263063400339 8.459716853484798 1 0 1
1217 4 4 0.053 10.816338265479786 9.278464879958616 6.945449524885537 1 0 1
1225 4 1 -0.106 9.158069660392597 10.40435760470716 9.474433608003562 1 0 1
1223 4 4 0.053 10.349074954404493 8.642659924962004 9.620209987351776 1 0 1
1228 4 2 0.131 7.91211851664429 10.123379220589648 10.364812435737857 1 0 1
1222 4 2 0.131 10.570813931689575 9.753884477550061 9.70957455847423 1 0 1
1231 4 1 -0.106 6.665388386651458 11.014223232718795 9.94268030950227 1 0 1
1226 4 4 0.053 9.252550472200335 11.525800291574102 9.61375715494147 1 0 1
1230 4 3 -0.184 7.440334064986464 8.363094486118332 10.018522669119294 1 0 1
1229 4 4 0.053 8.211411105421492 10.321742437219378 11.399532917499332 1 0 1
1224 4 3 -0.184 11.041213365278693 10.229371033332285 11.325350742876543 1 0 1
1232 4 4 0.053 6.658586034705129 11.184832634247169 8.86465525351699 1 0 1
1233 4 4 0.053 5.692113884855381 10.535967991049551 10.358172532108862 1 0 1
3147 9 4 0.053 10.133564929909717 6.124090144566253 11.57802394486355 0 1 1
1221 4 4 0.053 11.786474564055286 11.283162623160482 8.45961035712728 1 0 1
1216 4 2 0.131 11.760728620207146 9.218657013825517 7.516607150375103 1 0 1
1218 4 3 -0.184 12.038285285350213 7.474026835649552 8.15488682249198 1 0 1
1219 4 1 -0.106 11.711834246260615 10.1464821455302 8.750253129436508 1 0 1
2489 7 4 0.053 17.42424959352029 10.619292708103462 42.45392466681374 0 0 0
1215 4 4 0.053 13.068894505788052 10.69003217403507 6.585102080332509 1 0 1
1213 4 1 -0.106 13.042878902591202 9.608341837627757 6.672405647337086 1 0 1
1220 4 4 0.053 12.688034101295756 9.945556179480594 9.230769294517312 1 0 1
2484 7 3 -0.184 16.59724026552498 11.708422572601831 7.70366321236935 0 0 1
2477 7 4 0.053 16.751019798525856 11.790255157741413 10.483483006762638 0 0 1
2476 7 2 0.131 17.214157377956724 10.820729625194675 10.80648702139808 0 0 1
1214 4 4 0.053 14.070301522315518 9.303007633659734 7.283029883330623 1 0 1
2487 7 4 0.053 17.2846615587655 8.774747815254482 7.4646855327179 0 0 1
2479 7 1 -0.106 17.595640767045637 9.890179125434829 9.579380920318489 0 0 1
2482 7 2 0.131 17.905499690459493 10.57085748286058 8.151109630244711 0 0 1
2480 7 4 0.053 16.71940724743581 9.210466970593822 9.451487076889332 0 0 1
2475 7 4 0.053 15.599005843611637 9.97302114182915 11.741510878669455 0 0 1
2481 7 4 0.053 18.397079285474923 9.261685498491634 9.800052507431838 0 0 1
3166 9 3 -0.184 16.275242990761672 6.5664948859673595 7.904439129114909 0 1 1
1311 4 4 0.053 22.399895544310976 8.738291539385942 6.095010426944413 0 0 1
2488 7 2 0.131 18.20822574778599 9.812292850524528 5.682332535696304 0 0 1
2485 7 1 -0.106 18.11166939874967 9.471902962700089 7.137712985311344 0 0 1
351 1 4 0.053 23.94135121236764 10.346269401439372 11.922977648736964 0 1 0
2483 7 4 0.053 18.85694426659917 11.187117784756255 8.159086225514217 0 0 1
2491 7 1 -0.106 19.505823588215147 10.186741806639692 42.18367509281419 0 0 0
2493 7 4 0.053 20.217341295124676 9.414904597305497 42.05423264549998 0 0 0
2486 7 4 0.053 19.028459268933407 8.88561112545408 7.4071107699299725 0 0 1
2492 7 4 0.053 20.143161054546226 10.871209399912306 5.702273228306221 0 0 1
1320 4 3 -0.184 23.433599469235666 6.550270850844099 10.904308449394916 0 0 1
1323 4 4 0.053 20.845924333774207 6.638932500391077 11.415593611414062 0 0 1
1317 4 4 0.053 22.098813445831695 8.749263479080993 10.045739608953774 0 0 1
1315 4 1 -0.106 22.059724140902247 8.103148855423655 9.196570607531111 0 0 1
1312 4 2 0.131 23.05239444474367 8.578122958557705 8.209740226283033 0 0 1
1313 4 4 0.053 24.105469357570232 8.262405429694244 8.444907840090947 0 0 1
1316 4 4 0.053 20.993496426699444 8.235802932719539 8.91516009434193 0 0 1
1309 4 1 -0.106 22.899642821249557 7.999752545863201 6.692429071219368 0 0 1
1314 4 3 -0.184 23.09795913336333 10.340659406112888 8.190107736642657 0 0 1
92 1 4 0.053 26.416987343501123 6.137932493885423 11.1146503020899 0 1 0
1306 4 2 0.131 24.166258210684628 7.408335233931893 5.988607169513396 0 0 1
1304 4 4 0.053 25.121552853307943 9.334784972887107 6.089804817029639 0 0 1
3618 10 3 -0.184 30.799064819158353 5.736819353069451 7.792376478547307 0 0 1
94 1 2 0.131 27.536695802375682 6.672325762002414 12.79374396433318 0 1 0
96 1 3 -0.184 26.842576573631945 8.288674447546462 12.524325353588479 0 1 0
1308 4 3 -0.184 25.225785368354018 6.368074571530841 7.155207010219095 0 0 1
3617 10 4 0.053 28.419323760215796 5.89699890008946 7.359938116151925 0 0 1
3608 10 4 0.053 27.843568441672225 10.145821018762472 8.445204802059322 0 0 1
3607 10 1 -0.106 28.760484882353143 10.107100607038834 9.070773686246557 0 0 1
3614 10 4 0.053 27.76395554146292 7.803579270570864 8.595870944403018 0 0 1
3613 10 1 -0.106 28.802136527268928 7.600302213597914 8.747035150806747 0 0 1
3615 10 4 0.053 28.82898563316015 7.243396886138332 9.858223257051185 0 0 1
3549 10 4 0.053 33.91288389834935 9.673969463637087 11.476083251681189 0 0 1
3547 10 1 -0.106 34.94507704729715 9.496420382890195 11.901998390491125 0 0 1
107 1 4 0.053 30.93120105560513 6.746974691658589 13.103959536381128 0 1 0
3620 10 4 0.053 29.455400796825014 7.138504068841998 6.58821856799196 0 0 1
3616 10 1 0.078 29.167265030676045 6.615322779350256 7.563676313430896 0 0 1
3611 10 4 0.053 30.25565187745982 9.111408977263515 7.85853056980613 0 0 1
3609 10 4 0.053 28.53991434171804 10.024322219072165 10.093604863752514 0 0 1
3610 10 2 0.131 29.633870791642007 8.921651252649925 8.75286949458427 0 0 1
3545 10 4 0.053 34.671199911235874 7.452782358987324 12.426940249631512 0 0 1
3536 10 4 0.053 35.79616217517797 42.62014074601627 8.459511170323724 0 -1 1
3535 10 1 -0.106 35.387600800575306 6.600612276664425 8.227887493213796 0 0 1
3612 10 3 -0.184 31.02924489683936 8.603355834994204 9.935798675242932 0 0 1
3540 10 3 -0.184 33.64355322280572 5.734502515591554 10.154871577479195 0 0 1
3532 10 2 0.131 34.46112072398956 6.674983705549583 6.948577513911841 0 0 1
3534 10 3 -0.184 34.44039686789826 8.434653496719436 6.316814795060932 0 0 1
3533 10 4 0.053 33.37780670941491 6.425343269030689 7.0821659547570555 0 0 1
3539 10 4 0.053 33.992885106024744 7.88558930405557 9.183472876881895 0 0 1
3538 10 2 0.131 34.69586334884024 7.075494301205674 9.50142907299251 0 0 1
3550 10 2 0.131 35.93503886044425 10.542133948504544 11.304327312558971 0 0 1
3551 10 4 0.053 36.96800815283175 10.110025609437763 11.484165499815317 0 0 1
3317 10 4 0.053 42.019272110641985 5.981826523911463 8.46022400401917 0 0 1
3334 10 2 0.131 39.70127289725432 11.858430410620494 42.56718310674934 0 0 0
3335 10 4 0.053 39.45512737364258 12.086543084546632 6.5566863795294 0 0 1
3328 10 2 0.131 38.78327234848482 9.317969707067979 5.974088458637984 0 0 1
3544 10 2 0.131 35.465096725923054 8.06089786039836 11.91765782891827 0 0 1
3543 10 4 0.053 36.3526292820893 6.4277513456065165 10.669594409176627 0 0 1
3537 10 4 0.053 36.1611413877437 7.333491766437406 7.811517190159096 0 0 1
3541 10 1 -0.106 35.80554029288541 7.349301190880212 10.507531883915364 0 0 1
3315 10 4 0.053 42.25624030766552 41.92776724655475 10.6601688324673 0 -1 1
3314 10 4 0.053 41.408835523694385 6.368459238698819 11.129107070646695 0 0 1
3542 10 4 0.053 36.47783436293447 7.999617267932281 10.018262007121965 0 0 1
3552 10 3 -0.184 35.58758956424032 10.435612553441707 9.530998102526182 0 0 1
3313 10 1 -0.106 41.347667965374086 42.514339844552886 10.49359285003781 0 -1 1
3329 10 4 0.053 37.74969755826927 9.686364550196036 6.180212949685237 0 0 1
3316 10 2 0.131 41.12822186009814 5.764388152401246 9.021980645067538 0 0 1
1242 4 3 -0.184 40.3829270016481 11.56885154043607 9.428178856181214 0 0 1
3323 10 4 0.053 40.48289255259372 7.122760491554023 6.804542428511237 0 0 1
3324 10 3 -0.184 42.02269527357156 8.551341671348643 7.390540668605039 0 0 1
3321 10 4 0.053 39.100023939835076 6.7400609356940615 8.994856586156944 0 0 1
3322 10 2 0.131 40.3160875636119 7.7686665551114835 7.649752043934774 0 0 1
3325 10 1 -0.106 39.248054063422465 8.882812142847667 7.4002862682192845 0 0 1
3327 10 4 0.053 38.425039314678855 8.663724897015264 8.016837007193166 0 0 1
3319 10 1 -0.106 40.16563151616808 6.953478944877941 8.934511366206504 0 0 1
3320 10 4 0.053 40.402612283124775 7.5890828446196865 9.829670350428934 0 0 1
3326 10 4 0.053 39.71090844474811 9.86469143024463 7.911690784172221 0 0 1
2405 7 4 0.053 11.72774511936861 15.755455880490155 9.858133220093569 0 0 1
3339 10 4 0.053 41.093955770379594 13.331599337258254 42.58641173493085 0 0 0
2396 7 4 0.053 9.396611766139781 15.305008450169645 5.943240069311307 0 0 1
1238 4 4 0.053 5.7630386625740115 14.284257474532883 10.36178743527571 1 0 1
1237 4 1 -0.106 42.54851674721574 13.245234594667545 10.053417408951006 0 0 1
2409 7 4 0.053 9.72807344030652 13.801081455390566 11.109015605821813 0 0 1
2407 7 1 -0.106 10.81129595395664 13.999965168687783 10.957836409025258 0 0 1
2397 7 4 0.053 8.567636113281878 14.19368552350914 6.9031317006240025 0 0 1
2406 7 3 -0.184 10.209882008621545 16.56331104001208 11.508787951728518 0 0 1
1234 4 2 0.131 6.6673726707156 12.402590215783873 10.547619333633698 1 0 1
2932 9 3 -0.184 6.844497190092849 17.451401847687222 9.913104871809537 1 1 1
2403 7 4 0.053 9.526159960938521 16.42464892860449 8.649289631262706 0 0 1
2401 7 1 -0.106 9.846797256037398 15.441855685845734 9.114788171539642 0 0 1
1235 4 4 0.053 7.633031841003071 12.750921425236537 10.373507303470006 1 0 1
2402 7 4 0.053 8.800273478010299 14.978922944496757 9.256186804443429 0 0 1
2395 7 1 -0.106 9.590286104467765 14.350918499284951 6.567445295204883 0 0 1
2400 7 3 -0.184 11.732205096795447 15.811701064416281 7.198633256501152 0 0 1
2398 7 2 0.131 10.458297817867088 14.808238121502724 7.829393952883143 0 0 1
2404 7 2 0.131 10.774506040838698 15.375858057029468 10.334360948295547 0 0 1
403 2 4 0.053 16.99343926563172 14.307481017957922 9.36747346849825 0 1 1
408 2 2 0.131 16.475367988024377 16.143216129239622 7.379145060507695 0 1 1
405 2 1 -0.106 17.186586132764432 16.26659151333224 8.678946606757428 0 1 1
415 2 4 0.053 14.257477802934051 16.625854114221895 5.748927537213703 0 1 1
413 2 4 0.053 15.099850502929456 17.926071354608474 7.579047222219488 0 1 1
407 2 4 0.053 17.697955137077855 17.184011789398284 8.88570874285178 0 1 1
402 2 2 0.131 17.910090736958427 15.003325780433666 9.179823267559778 0 1 1
2412 7 3 -0.184 13.272725299574624 14.547791494334712 11.94292653788465 0 0 1
406 2 4 0.053 16.338127519647713 16.309779230416336 9.434518164848198 0 1 1
414 2 2 0.131 15.042985337576992 17.36364840456944 42.604291145079564 0 1 0
2408 7 4 0.053 11.000141397871683 13.170655742088371 10.232240982745427 0 0 1
2393 7 4 0.053 10.865879937656132 12.582933339913252 6.210147579185408 0 0 1
2399 7 4 0.053 10.961764573158575 13.909610889180545 8.257729430862108 0 0 1
411 2 1 -0.106 15.845517850570799 17.486295988773687 6.82050668664701 0 1 1
409 2 4 0.053 17.011269262425586 15.688458586118475 6.54321688492535 0 1 1
410 2 3 -0.184 15.054159327597334 15.031158761158984 7.669887367568224 0 1 1
399 2 1 -0.106 18.954822474055057 14.318255211639674 8.16199319674658 0 1 1
393 2 1 -0.106 21.58883285934693 14.576533560077415 7.622721225025885 0 1 1
391 2 4 0.053 21.33936745367742 14.13510311167124 9.643186669670337 0 1 1
395 2 4 0.053 22.341199335575627 15.153093046592309 7.046572636473451 0 1 1
390 2 2 0.131 22.017504787533294 14.858562096536911 9.034973384354272 0 1 1
400 2 4 0.053 18.354081954730617 13.798546671011152 7.386335853687411 0 1 1
401 2 4 0.053 19.215727903714786 13.337360130437673 8.544908383744627 0 1 1
394 2 4 0.053 21.79776675438699 13.536168881837431 7.3028559801918655 0 1 1
387 2 1 -0.106 22.038444914318152 16.218411018151855 9.683655155349662 0 1 1
388 2 4 0.053 21.134344902106115 16.742522000895647 9.94942909965443 0 1 1
396 2 2 0.131 20.167464401613337 15.082418245251997 7.461750113139841 0 1 1
397 2 4 0.053 20.27240441522608 16.060829529998887 7.974796339095107 0 1 1
384 2 2 0.131 22.905788250787833 17.323176777523333 9.091004062650542 0 1 1
398 2 3 -0.184 19.687778018909924 15.209217496467712 5.7107718904687585 0 1 1
404 2 3 -0.184 18.699975721309897 15.382190801501228 10.709965277592453 0 1 1
392 2 3 -0.184 23.69802673473048 14.292561926237767 9.327448990702882 0 1 1
385 2 4 0.053 23.640043529424606 16.874021407968808 8.43871191403716 0 1 1
1110 4 3 -0.184 25.911352464956103 15.680477277075084 7.055567481302801 0 0 1
389 2 4 0.053 22.439455992625845 15.942337671855153 10.661677964722344 0 1 1
1115 4 4 0.053 23.675021937012293 14.181637521942848 42.08364783238532 0 0 0
1107 4 4 0.053 28.531316972200617 14.804873958640835 6.7479834067946 0 0 1
3596 10 4 0.053 27.90303269999773 15.06539770065882 9.40377767588112 0 0 1
3595 10 1 -0.106 28.58570670155715 14.949617729448732 10.238003897083546 0 0 1
3598 10 2 0.131 29.528565904558263 13.992541551087017 9.6046674450969 0 0 1
3602 10 4 0.053 27.76480700801719 12.759553774278917 8.808344421082827 0 0 1
3601 10 1 -0.106 28.685817063474005 12.711842223962433 9.385839553489538 0 0 1
1113 4 4 0.053 25.637715262921862 13.239814336722969 6.342722577333569 0 0 1
3603 10 4 0.053 28.235375510338816 12.594120642796234 10.353042059764723 0 0 1
3606 10 3 -0.184 29.796547561044473 11.812999893148111 7.237983168484799 0 0 1
3604 10 2 0.131 29.44210466390024 11.447349587751214 8.954426458717602 0 0 1
1103 4 4 0.053 30.084412334343625 16.32248240744468 5.899856837859502 0 0 1
1102 4 2 0.131 29.053343580859828 16.23860425459542 42.43593802047838 0 0 0
1105 4 1 -0.106 28.209632161402716 14.968267455766021 42.7189912850397 0 0 0
1106 4 4 0.053 28.635198384724013 14.15679212915342 42.13206519652266 0 0 0
1108 4 2 0.131 26.63965061030179 14.935899563451002 42.640792638375 0 0 0
1111 4 1 -0.106 25.93571279059708 13.630822423872823 42.38314166691324 0 0 0
1112 4 4 0.053 26.67772672396898 12.958389514180425 41.93831193758012 0 0 0
3599 10 4 0.053 29.819538935859637 14.375238628093769 8.662187462733078 0 0 1
3600 10 3 -0.184 30.80861348291877 13.587392001717241 10.85288839597806 0 0 1
1264 4 2 0.131 34.905441008385004 16.424328964073936 8.596470332434228 0 0 1
1265 4 4 0.053 33.91676416445091 16.626885116411152 8.818204691816453 0 0 1
1272 4 3 -0.184 32.76910773151751 15.45226853109971 6.550454300097992 0 0 1
1267 4 1 -0.106 35.11868011264826 16.387168898530163 7.048169208342347 0 0 1
1270 4 2 0.131 34.45447880499236 15.337530703735132 6.172312116071191 0 0 1
1271 4 4 0.053 34.8021633098264 14.302932459839958 6.431597886778037 0 0 1
1261 4 1 -0.106 35.915030139961075 17.49732142139126 8.983631464682036 0 0 1
1269 4 4 0.053 34.75538129788717 17.3583653449719 6.564119174550184 0 0 1
1268 4 4 0.053 36.18001132650712 16.342747635735897 6.78930162252071 0 0 1
1266 4 3 -0.184 35.43423123145372 14.783040799036025 8.961639052656974 0 0 1
1262 4 4 0.053 36.89547629350007 17.07531933614748 8.474708223528783 0 0 1
1259 4 4 0.053 35.96129979353441 16.945285707176215 11.11014801558306 0 0 1
3605 10 4 0.053 30.49830653463316 11.330071581847765 9.45021411242529 0 0 1
1249 4 1 -0.106 39.29614036289347 16.6068710440155 11.3921512389457 0 0 1
1258 4 2 0.131 36.1856803123901 17.87582988592309 10.482113971493034 0 0 1
1245 4 4 0.053 38.91956587303965 13.796283252606024 10.585412400964566 0 0 1
2107 6 4 0.053 40.390120095499306 18.082752492573395 6.954675067484882 -1 0 1
1243 4 1 -0.106 39.917031801860105 14.210481078354924 10.265633408361282 0 0 1
1252 4 2 0.131 38.76025032845348 17.44904684829402 10.16783797636856 0 0 1
1254 4 3 -0.184 40.25259909873459 18.420777718624684 9.838509810739506 0 0 1
2110 6 3 -0.184 38.04509484678509 18.893969826838088 6.673632965875597 -1 0 1
1253 4 4 0.053 38.597225881985324 16.662531556213224 9.315237159292598 0 0 1
1244 4 4 0.053 39.808731663602856 14.503225135220948 9.13076662091936 0 0 1
1240 4 2 0.131 40.96719119355931 12.98463656861289 10.408204941718854 0 0 1
1239 4 4 0.053 42.56968524714138 13.307031669232217 8.870115426760457 0 0 1
3336 10 3 -0.184 38.48093725252622 12.88649030210189 41.5636278621173 0 0 0
3423 10 4 0.053 8.312339566834353 23.108608892627377 10.036319096948548 1 -1 1
3424 10 2 0.131 6.654912076076156 24.090715364455694 11.166248460124553 1 -1 1
1862 6 2 0.131 12.378904508795358 22.271190962688312 11.289138248312016 0 0 0
1863 6 4 0.053 12.20900253168019 21.888451493835724 10.271545987197415 0 0 0
3426 10 3 -0.184 6.8609740421671725 22.63760779228262 12.270255854160812 1 -1 1
3425 10 4 0.053 5.949498391034068 23.807845755142377 10.430246934010295 1 -1 1
2929 9 4 0.053 9.012996149104053 20.25207986885639 10.726645580817557 1 1 1
2931 9 4 0.053 6.438600181612801 19.64647754659898 10.359917883966245 1 1 1
2926 9 3 -0.184 7.544995288787583 21.231196993791926 8.441143860948545 1 1 1
2924 9 2 0.131 8.613202883049276 19.693825174680548 8.696823935798859 1 1 1
2925 9 4 0.053 8.329866381876004 18.844857293165028 7.941678706440611 1 1 1
2927 9 1 -0.106 8.577557738136331 19.420963703624807 10.199861417787332 1 1 1
2921 9 1 -0.106 10.024877302847607 20.041843681638184 8.360187875866469 1 1 1
2922 9 4 0.053 10.50680057783562 19.162691363931174 7.9389755800684405 1 1 1
2923 9 4 0.053 10.626451469223083 20.26768606108421 9.218978343453006 1 1 1
2918 9 2 0.131 10.276006062260759 21.080186733502813 7.247561178024255 1 1 1
2919 9 4 0.053 10.111041709130692 22.136426625880123 7.552507501021148 1 1 1
2915 9 1 -0.106 11.776158388147316 21.10283399455799 6.6406738948411705 1 1 1
2930 9 2 0.131 7.225982415992936 19.010507512224287 10.754675659281538 1 1 1
2928 9 4 0.053 9.370883021335755 18.6424323669274 10.516971263788022 1 1 1
1864 6 3 -0.184 12.04903550497038 24.020550263958594 11.244604021227195 0 0 0
2917 9 4 0.053 12.638530702723175 20.999695056505352 7.470926909880582 1 1 1
2916 9 4 0.053 11.755145469324898 20.18953612687895 6.076013231176806 1 1 1
1852 6 3 -0.184 18.639875435036757 20.75624893460336 11.86104698748228 0 0 0
412 2 4 0.053 16.537494993120347 18.248424039142126 6.681048659962485 0 1 1
2914 9 3 -0.184 12.75248762036843 23.55409371469669 6.820448444351697 1 1 1
958 3 3 -0.184 18.456061800239603 20.481219932888877 42.399619919818164 0 0 0
1853 6 1 -0.106 16.43819036592828 21.88662293568994 10.786596971941707 0 0 0
1856 6 2 0.131 14.90336186190549 22.005047341440505 10.565530032773909 0 0 0
1858 6 3 -0.184 14.168075175296313 20.46851185284184 9.731958169097386 0 0 0
1857 6 4 0.053 14.755683537346286 22.7760190972384 9.783204217975461 0 0 0
1855 6 4 0.053 16.82171245062863 21.377933241256077 9.83946889088368 0 0 0
957 3 4 0.053 20.064645295338245 21.961862330278066 42.577188841186164 0 0 0
956 3 2 0.131 19.120972163248865 21.94132030025491 6.0067609996014415 0 0 1
383 2 4 0.053 22.603793707340063 19.013441030220417 10.621269045145002 0 1 1
953 3 1 -0.106 19.233601281712126 21.708078077781533 7.591815861736855 0 0 1
954 3 4 0.053 19.256640943049405 20.605595069238472 7.793521411032819 0 0 1
386 2 3 -0.184 21.953885637248785 18.42872744863635 8.022819853378044 0 1 1
952 3 3 -0.184 21.276219693023414 21.558831528235075 9.615871754932744 0 0 1
381 2 1 -0.106 23.469692835662354 18.33624874495277 10.15417630860403 0 1 1
726 3 4 0.053 24.696719894687615 20.849212639392718 5.85081233060671 0 0 1
1840 6 3 -0.184 18.931466322024352 25.79072469031817 13.079446634858249 0 0 0
3594 10 3 -0.184 30.267291284258405 17.13140431474457 9.559767535918278 0 0 1
379 2 4 0.053 24.484986761925082 19.798330228990032 8.8625693256001 0 1 1
1097 4 4 0.053 29.533516132328305 18.936251931405142 6.590069502513105 0 0 1
1101 4 4 0.053 27.730443038757457 17.791952223389263 6.218680355383398 0 0 1
380 2 3 -0.184 25.94829535119821 17.915497059268333 9.566480533968708 0 1 1
363 2 1 -0.159 28.860096116394914 22.736328939561282 9.49259731146082 0 1 1
365 2 4 0.053 28.99859658893304 21.889375912107635 10.213706676936273 0 1 1
371 2 4 0.053 25.886620725094918 21.752278559488147 8.48301998799047 0 1 1
366 2 2 0.131 27.392059023981385 23.160397918431322 9.251016546906962 0 1 1
373 2 4 0.053 27.282820887743583 20.535776174685367 10.38598281097103 0 1 1
369 2 1 -0.106 26.189432480955293 22.186875568185 9.389773761125799 0 1 1
375 2 1 -0.106 25.26186970749327 20.101508727128273 10.969854504948808 0 1 1
372 2 2 0.131 26.352683477402078 21.144905796582997 10.522568592689787 0 1 1
364 2 4 0.053 29.42434281489553 22.474474388586863 8.533259433250514 0 1 1
370 2 4 0.053 25.437910445186265 22.96925532161158 9.525380227525758 0 1 1
378 2 2 0.131 24.722164461711966 19.145459066654006 9.809151447181296 0 1 1
1096 4 2 0.131 29.273598431882984 18.799324838951332 42.618493159767496 0 0 0
1098 4 3 -0.184 28.246919005543898 20.19627846630057 42.14549344470658 0 0 0
1099 4 1 -0.106 28.359533556726447 17.623590351428405 42.43188641790991 0 0 0
1100 4 4 0.053 27.6586515104163 17.71085910527517 41.54661374755316 0 0 0
1602 5 2 0.131 36.298930565981635 23.505031726201725 42.71973587666118 0 0 -1
2986 9 3 -0.184 33.82705748333801 22.538861767807195 10.490232122233461 0 1 1
1092 4 3 -0.184 32.22807533343538 19.956725097355218 6.546956169468095 0 0 1
1606 5 4 0.053 35.380586371786606 23.11671669441049 7.65239463283236 0 0 0
2982 9 4 0.053 36.19583788047806 23.759203154185247 11.081260188591198 0 1 1
2981 9 1 -0.106 35.93560471948774 23.05091148729503 12.035695213921462 0 1 1
1263 4 4 0.053 35.71182152742909 18.456579471022884 8.373980943368736 0 0 1
1605 5 1 -0.106 35.20907135354048 23.87145427290418 6.804782917639853 0 0 0
1603 5 4 0.053 37.28375191118966 23.648293212168404 6.244017647157496 0 0 0
2983 9 4 0.053 36.32898662385688 22.082604238527924 11.678891782421413 0 1 1
2991 9 4 0.053 31.608375282788504 23.266947319975415 12.001458979768527 0 1 1
1604 5 3 -0.184 35.91585512014332 21.706237953326074 42.429675768137784 0 0 -1
1607 5 4 0.053 34.26493207877374 23.68718712834259 6.36154283894368 0 0 0
1599 5 1 -0.106 36.08766240764199 24.29324535787094 41.45172608009343 0 0 -1
1260 4 3 -0.184 34.98232912908564 19.175467668529045 10.89141477951887 0 0 1
1257 4 4 0.053 37.67946202259046 19.27579850832234 10.065837087833987 0 0 1
1595 5 4 0.053 38.338030963153436 24.582523077472224 39.66798357931203 0 0 -1
1593 5 1 -0.106 38.36233968262151 24.95938967104925 40.67676077254923 0 0 -1
1594 5 4 0.053 38.736145551606974 24.108564111556838 41.28775162230283 0 0 -1
1600 5 4 0.053 36.219518509537934 23.522482651372577 40.658545038476575 0 0 -1
1256 4 4 0.053 37.82515753695224 18.69239313549004 11.719193143552692 0 0 1
1255 4 1 -0.106 37.692347897612905 18.39592796764864 10.694221529341531 0 0 1
3422 10 4 0.053 8.63927372900281 24.343815175971102 11.257700144900127 1 -1 1
3421 10 1 -0.106 8.02752202474086 24.201220203063805 10.367738078834751 1 -1 1
3418 10 2 0.131 8.3850560072421 25.32220879065147 9.38301267882701 1 -1 1
3419 10 4 0.053 7.461557306329149 25.764803473469918 8.921246815225114 1 -1 1
3420 10 3 -0.184 8.87902819700438 26.642413432476978 10.583216946556322 1 -1 1
3415 10 1 -0.106 9.563558439013436 25.220282565332603 8.4480914920236 1 -1 1
3416 10 4 0.053 10.56581197618802 25.26995477018105 9.03714300678014 1 -1 1
3417 10 4 0.053 9.610333477673919 24.227086564548294 7.872163621921536 1 -1 1
3412 10 2 0.131 9.509083150911383 26.336295574180504 7.411518745434621 1 -1 1
3413 10 4 0.053 9.076930582495137 27.238987115831804 7.829512227482576 1 -1 1
3479 10 4 0.053 8.82270811020146 31.084202777451406 10.530639053897971 1 -1 1
3429 10 4 0.053 6.582455845213313 26.24515199491611 11.436376769878567 1 -1 1
3478 10 2 0.131 7.792221157694959 30.654365469223677 10.479215063892214 1 -1 1
3427 10 1 -0.106 6.487356965872252 25.326962397339273 11.9655489962233 1 -1 1
3473 10 4 0.053 8.771066171481014 28.598635595889878 12.4003171740587 1 -1 1
3472 10 2 0.131 8.550588581249741 29.53298986971465 12.73970859329379 1 -1 1
3485 10 4 0.053 6.6300358391609695 31.511670182009016 7.766229453496014 1 -1 1
3475 10 1 -0.106 7.433328037336304 30.246787605972006 11.827926683490052 1 -1 1
3408 10 3 -0.184 12.799263610017821 28.087099439375628 5.835224486868319 1 -1 1
3405 10 4 0.053 10.236284575858214 29.5997860412972 6.7785373248436285 1 -1 1
962 3 2 0.131 17.155669952809 23.774480306905016 6.202164071090353 0 0 1
1377 4 4 0.053 17.059301731397536 27.595843277252595 10.918750966770137 0 -1 1
1375 4 1 -0.106 16.337130398856996 27.834103016642334 11.668930366230265 0 -1 1
964 3 3 -0.184 16.191127590656045 22.45233596530458 6.806031360980158 0 0 1
1382 4 4 0.053 14.04520653643477 27.30840101333205 8.982706558234351 0 -1 1
1378 4 2 0.131 14.996735642984696 27.275842381376993 11.01450808760919 0 -1 1
1381 4 1 -0.106 14.55871703162264 28.113935917827057 9.7408157198665 0 -1 1
1383 4 4 0.053 15.504810268850237 28.55754256281813 9.305432496829283 0 -1 1
963 3 4 0.053 17.409866020003122 24.425721584105652 7.021773137508571 0 0 1
959 3 1 -0.106 18.321303535563665 23.119893996785258 42.53827215984363 0 0 0
955 3 4 0.053 18.5452013565126 22.277448728763396 8.23267421537174 0 0 1
1380 4 3 -0.184 15.576409110460435 25.716408320196233 10.453418825349035 0 -1 1
967 3 4 0.053 15.244897795122446 24.72317909480069 42.68263381079618 0 0 0
1372 4 2 0.131 16.45288456383182 29.385395016688975 12.043918932690737 0 -1 1
1373 4 4 0.053 16.32863807060964 30.058442958442367 11.145882934392594 0 -1 1
970 3 3 -0.184 16.487412264384133 27.10347967592546 6.10603931589238 0 0 1
949 3 4 0.053 20.144780457826663 24.183382382472523 8.745641817621014 0 0 1
944 3 2 0.131 22.193637951295578 24.156322205436137 8.09262659567907 0 0 1
948 3 4 0.053 20.148801651153818 23.926197070500706 7.073594239816384 0 0 1
947 3 1 -0.106 20.73537498459696 23.652906557701378 7.969711675815859 0 0 1