LAMMPS data file via write_data, version 22 Jul 2025, timestep = 2000000, units = real

4520 atoms
7 atom types
4510 bonds
10 bond types
8000 angles
18 angle types
9970 dihedrals
23 dihedral types
4500 impropers
11 improper types

4.570417123934984 41.06270630605724 xlo xhi
4.570417123934984 41.06270630605724 ylo yhi
4.570417123934984 41.06270630605724 zlo zhi

Masses

1 12.01115
2 12.01115
3 12.01115
4 1.00797
5 1.008
6 15.9994
7 15.9994

Pair Coeffs # lj/class2/coul/long/kk

1 0.054 4.01
2 0.054 4.01
3 0.12 3.81
4 0.02 2.995
5 0.013 1.11
6 0.267 3.3
7 0.24 3.42

Bond Coeffs # class2/kk

1 1.53 299.67 -501.77 679.81
2 1.53 299.67 -501.77 679.81
3 1.5202 253.707 -423.037 396.9
4 1.101 345 -691.89 844.6
5 1.5202 253.707 -423.037 396.9
6 1.101 345 -691.89 844.6
7 1.43 326.727 -608.531 689.033
8 1.202 851.14 -1918.49 2160.77
9 1.3683 367.148 -794.791 1055.23
10 0.952 534.299 -1287.19 1889.14

Angle Coeffs # class2/kk

1 108.53 51.9747 -9.4851 -10.9985
2 110.77 41.453 -10.604 5.129
3 108.53 51.9747 -9.4851 -10.9985
4 110.77 41.453 -10.604 5.129
5 107.41 63.3907 -13.4513 1.665
6 123.145 55.5431 -17.2123 0.1348
7 100.318 38.8631 -3.8323 -7.9802
8 110.77 41.453 -10.604 5.129
9 123.145 55.5431 -17.2123 0.1348
10 100.318 38.8631 -3.8323 -7.9802
11 113.288 61.2868 -28.9786 7.9929
12 107.734 40.6099 -28.8121 0
13 107.734 40.6099 -28.8121 0
14 109.5 60 0 0
15 112.874 53.2512 -14.9979 2.464
16 107.66 39.641 -12.921 -2.4318
17 107.688 65.4801 -10.3498 5.8866
18 120.797 95.3446 -32.2869 6.3778

BondBond Coeffs

1 5.4199 1.53 1.5202
2 3.3872 1.53 1.101
3 5.4199 1.53 1.5202
4 3.3872 1.53 1.101
5 23.2647 1.53 1.43
6 46.0685 1.5202 1.202
7 19.1069 1.5202 1.3683
8 3.3872 1.53 1.101
9 46.0685 1.5202 1.202
10 19.1069 1.5202 1.3683
11 45.4503 1.43 1.3683
12 0.7115 1.5202 1.101
13 0.7115 1.5202 1.101
14 0 1.5202 1.43
15 9.5671 1.3683 0.952
16 5.3316 1.101 1.101
17 5.6454 1.101 1.43
18 121.488 1.202 1.3683

BondAngle Coeffs

1 18.1678 15.8758 1.53 1.5202
2 20.754 11.421 1.53 1.101
3 18.1678 15.8758 1.53 1.5202
4 20.754 11.421 1.53 1.101
5 23.392 47.9487 1.53 1.43
6 34.9982 37.1298 1.5202 1.202
7 1.3435 4.6978 1.5202 1.3683
8 20.754 11.421 1.53 1.101
9 34.9982 37.1298 1.5202 1.202
10 1.3435 4.6978 1.5202 1.3683
11 41.9116 46.4608 1.43 1.3683
12 12.4632 9.1765 1.5202 1.101
13 12.4632 9.1765 1.5202 1.101
14 0 0 1.5202 1.43
15 37.9163 21.4364 1.3683 0.952
16 18.103 18.103 1.101 1.101
17 8.6864 57.4975 1.101 1.43
18 76.2614 71.8761 1.202 1.3683

Dihedral Coeffs # class2/kk

1 0.0442 0 0.0292 0 0.0562 0
2 1.8341 0 2.0603 0 -0.0195 0
3 0.0442 0 0.0292 0 0.0562 0
4 1.8341 0 2.0603 0 -0.0195 0
5 0 0 0 0 -0.1932 0
6 -2.5594 0 2.2013 0 0.0325 0
7 -2.5594 0 2.2013 0 0.0325 0
8 -2.9126 0 1.0199 0 -0.2077 0
9 0 0 2.2089 0 0 0
10 -0.0228 0 0.028 0 -0.1863 0
11 -0.0228 0 0.028 0 -0.1863 0
12 0 0 0 0 -0.1932 0
13 0 0 0 0 -0.1932 0
14 -0.1432 0 0.0617 0 -0.1083 0
15 -0.1432 0 0.0617 0 -0.1083 0
16 0 0 0 0 -0.25 0
17 -0.1804 0 0.0012 0 0.0371 0
18 -0.6359 0 1.4807 0 -0.0438 0
19 -0.1804 0 0.0012 0 0.0371 0
20 -0.6359 0 1.4807 0 -0.0438 0
21 0 0 2.2089 0 0 0
22 0 180 0 0 0 0
23 0 180 0 0 0 0

AngleAngleTorsion Coeffs

1 -8.019 108.53 123.145
2 0 108.53 100.318
3 -8.019 108.53 123.145
4 0 108.53 100.318
5 0 107.41 113.288
6 0 100.318 113.288
7 0 100.318 113.288
8 0 100.318 112.874
9 0 113.288 120.797
10 -5.3624 108.53 110.77
11 -5.3624 108.53 110.77
12 0 109.5 113.288
13 0 113.288 107.688
14 -12.564 110.77 110.77
15 -12.564 110.77 110.77
16 0 110.77 107.41
17 -15.3496 107.734 123.145
18 0 107.734 100.318
19 -15.3496 107.734 123.145
20 0 107.734 100.318
21 0 112.874 120.797
22 0 123.145 109.5
23 0 109.5 100.318

EndBondTorsion Coeffs

1 0.2654 0.0503 0.1046 -0.281 0.0816 -0.1522 1.53 1.202
2 0 0 0 0 0 0 1.53 1.3683
3 0.2654 0.0503 0.1046 -0.281 0.0816 -0.1522 1.53 1.202
4 0 0 0 0 0 0 1.53 1.3683
5 0 0 0 0 0 0 1.53 1.3683
6 0 0 0 0 0 0 1.5202 1.43
7 0 0 0 0 0 0 1.5202 1.43
8 0 0 0 0 0 0 1.5202 0.952
9 0 0 0 0 0 0 1.43 1.202
10 -0.0204 0.3628 -0.4426 -0.0097 -0.0315 -0.0755 1.5202 1.101
11 -0.0204 0.3628 -0.4426 -0.0097 -0.0315 -0.0755 1.5202 1.101
12 0 0 0 0 0 0 1.5202 1.3683
13 0 0 0 0 0 0 1.3683 1.101
14 0.213 0.312 0.0777 0.213 0.312 0.0777 1.101 1.101
15 0.213 0.312 0.0777 0.213 0.312 0.0777 1.101 1.101
16 0 0 0 0 0 0 1.101 1.43
17 1.2143 0.2831 0.3916 -0.2298 0.0354 0.3853 1.101 1.202
18 0 0 0 0 0 0 1.101 1.3683
19 1.2143 0.2831 0.3916 -0.2298 0.0354 0.3853 1.101 1.202
20 0 0 0 0 0 0 1.101 1.3683
21 0 0 0 0 0 0 0.952 1.202
22 0 0 0 0 0 0 1.202 1.43
23 0 0 0 0 0 0 1.43 1.3683

MiddleBondTorsion Coeffs

1 0.3388 -0.1096 0.1219 1.5202
2 -17.328 -5.79 -3.2114 1.5202
3 0.3388 -0.1096 0.1219 1.5202
4 -17.328 -5.79 -3.2114 1.5202
5 -5.435 0 0 1.43
6 1.3445 3.5515 -4.9202 1.3683
7 1.3445 3.5515 -4.9202 1.3683
8 2.1452 0.5482 -2.3693 1.3683
9 4.26 0 0 1.3683
10 -3.5039 1.2458 -0.761 1.53
11 -3.5039 1.2458 -0.761 1.53
12 0 0 0 1.43
13 0 0 0 1.43
14 -14.261 -0.5322 -0.4864 1.53
15 -14.261 -0.5322 -0.4864 1.53
16 0 0 0 1.53
17 0.2359 0.9139 0.9594 1.5202
18 -13.7686 -2.5959 1.1934 1.5202
19 0.2359 0.9139 0.9594 1.5202
20 -13.7686 -2.5959 1.1934 1.5202
21 4.26 0 0 1.3683
22 0 0 0 1.5202
23 0 0 0 1.5202

BondBond13 Coeffs

1 0 1.53 1.202
2 0 1.53 1.3683
3 0 1.53 1.202
4 0 1.53 1.3683
5 0 1.53 1.3683
6 0 1.5202 1.43
7 0 1.5202 1.43
8 0 1.5202 0.952
9 0 1.43 1.202
10 0 1.5202 1.101
11 0 1.5202 1.101
12 0 1.5202 1.3683
13 0 1.3683 1.101
14 0 1.101 1.101
15 0 1.101 1.101
16 0 1.101 1.43
17 0 1.101 1.202
18 0 1.101 1.3683
19 0 1.101 1.202
20 0 1.101 1.3683
21 0 0.952 1.202
22 0 1.202 1.43
23 0 1.43 1.3683

AngleTorsion Coeffs

1 0.0885 -1.3703 -0.5452 0.675 0.5965 0.6725 108.53 123.145
2 0 0 0 0 0 0 108.53 100.318
3 0.0885 -1.3703 -0.5452 0.675 0.5965 0.6725 108.53 123.145
4 0 0 0 0 0 0 108.53 100.318
5 0 0 0 0 0 0 107.41 113.288
6 0 0 0 0 0 0 100.318 113.288
7 0 0 0 0 0 0 100.318 113.288
8 0 0 0 0 0 0 100.318 112.874
9 0 0 0 0 0 0 113.288 120.797
10 -0.7466 -0.9448 -0.6321 0.0162 1.4211 -1.4092 108.53 110.77
11 -0.7466 -0.9448 -0.6321 0.0162 1.4211 -1.4092 108.53 110.77
12 0 0 0 0 0 0 109.5 113.288
13 0 0 0 0 0 0 113.288 107.688
14 -0.8085 0.5569 -0.2466 -0.8085 0.5569 -0.2466 110.77 110.77
15 -0.8085 0.5569 -0.2466 -0.8085 0.5569 -0.2466 110.77 110.77
16 0 0 0 0 0 0 110.77 107.41
17 9.1299 -0.4847 0.3582 -1.4946 0.7308 -0.2083 107.734 123.145
18 0 0 0 0 0 0 107.734 100.318
19 9.1299 -0.4847 0.3582 -1.4946 0.7308 -0.2083 107.734 123.145
20 0 0 0 0 0 0 107.734 100.318
21 0 0 0 0 0 0 112.874 120.797
22 0 0 0 0 0 0 123.145 109.5
23 0 0 0 0 0 0 109.5 100.318

Improper Coeffs # class2/kk

1 0 0
2 0 0
3 0 0
4 0 0
5 0 0
6 0 0
7 0 0
8 0 0
9 0 0
10 46.9264 0
11 46.9264 0

AngleAngle Coeffs

1 1.0827 -1.8202 2.0403 110.77 108.53 107.734
2 0.2738 -0.4825 0.2738 110.77 110.77 107.66
3 0.2738 -0.4825 0.2738 110.77 110.77 107.66
4 -3.3867 -3.4976 -3.3867 107.734 107.734 107.66
5 -0.3157 -0.3157 -0.3157 107.66 107.66 107.66
6 1.0827 -1.8202 2.0403 110.77 108.53 107.734
7 0 0 0 110.77 107.41 107.688
8 0 0 0 107.41 108.53 109.5
9 0 0 0 107.734 109.5 107.688
10 0 0 0 100.318 123.145 120.797
11 0 0 0 100.318 123.145 120.797

Atoms # full/kk

2802 7 7 -0.396 8.623984038205977 10.67835072298644 4.7314461120531695 1 1 1
2819 7 6 -0.531 9.457525163556824 6.013227071244545 8.908611056920433 1 1 1
2812 7 2 0.172 7.925858957896564 7.740970295014226 7.996366637801664 1 1 1
2811 7 7 -0.396 8.672975130076406 8.591117067276802 7.0872254503616885 1 1 1
2818 7 3 0.702 8.526944892881037 6.233934818263054 8.189658604228393 1 1 1
2810 7 6 -0.531 7.952823825232562 10.554112936778274 7.936610360015128 1 1 1
2426 6 4 0.053 5.617707603941003 10.706795501053211 6.816471888730116 1 0 1
2813 7 4 0.053 8.097087431860482 8.22336687501939 9.026679859359573 1 1 1
2814 7 1 -0.159 6.4879006675308215 7.741861876810777 7.481012778383097 1 1 1
2817 7 4 0.053 5.820926068142725 8.310815428336833 8.222014006457993 1 1 1
2815 7 4 0.053 6.016424099890779 6.7174221076150875 7.520062582880657 1 1 1
2809 7 3 0.702 8.566190827175557 9.907927437653044 7.137530377915617 1 1 1
2816 7 4 0.053 6.374340470401746 8.078107224909939 6.430477188144023 1 1 1
2803 7 2 0.172 9.48412061999323 10.539513713901876 5.916643292776235 1 1 1
4333 10 4 0.053 5.239105397249528 6.678698372336792 4.730606242302384 1 1 1
4335 10 4 0.053 6.656534558124446 5.940690468889548 5.1263374893299165 1 1 1
2807 7 4 0.053 10.542456090541956 9.187713661219217 41.05191462276663 1 1 0
2805 7 1 -0.159 10.680191743129345 9.768296608714902 5.439859740359206 1 1 1
1735 4 2 0.172 13.756328829795963 10.83514070396377 8.553086916789118 1 0 0
2806 7 4 0.053 11.510066897732901 10.482540333796717 5.1894428030868 1 1 1
1980 5 2 0.172 12.742037120831105 4.988719649649349 8.257852053126353 0 0 0
1740 4 4 0.053 15.491722323327421 10.551974418366989 7.0807864214790746 1 0 0
1739 4 4 0.053 15.960133206899886 10.952754233683766 8.666708314550714 1 0 0
1978 5 6 -0.531 11.333406324615035 6.769169636951052 6.693175034035338 0 0 0
1738 4 4 0.053 15.376959829491943 9.34676635843971 8.305647745955653 1 0 0
1737 4 1 -0.159 15.225108747729227 10.381022700259967 8.146977739689053 1 0 0
2808 7 4 0.053 11.182487625132788 9.238193812742399 6.226129432577188 1 1 1
1981 5 4 0.053 11.65323590177582 5.099138563270067 8.439865589891683 0 0 0
1736 4 4 0.053 13.030858018604647 10.021306807029472 8.46632890581205 1 0 0
1969 5 6 -0.531 13.98910324843743 8.43222116084481 6.115211882174599 0 0 0
1982 5 1 -0.159 13.5192358582597 6.148071048045102 8.974883204888403 0 0 0
1984 5 4 0.053 13.269282836098274 7.084254005548497 8.364962559587411 0 0 0
1979 5 7 -0.396 12.880307494966678 5.174297544364769 6.858773859302013 0 0 0
1977 5 3 0.702 12.234111131551302 6.179638252795968 6.158710923131936 0 0 0
1983 5 4 0.053 14.621499884285518 5.976921969055933 8.859839741931538 0 0 0
1985 5 4 0.053 13.189582540435472 6.235979414756728 10.006177142842656 0 0 0
4237 10 3 0.702 22.85115730597691 5.437081090145393 5.166372338028866 0 1 1
1802 4 4 0.053 17.342157574860465 4.9537630141758155 7.368472807683784 1 0 0
2686 6 1 -0.159 18.77982875596408 5.865759845002701 4.877226542861515 1 1 1
4247 10 6 -0.531 21.788615168288434 9.645896274434953 4.726315857145279 0 1 1
1800 4 1 -0.159 17.621512068556093 5.207841516760686 8.381475852235777 1 0 0
1793 4 4 0.053 20.855855646590392 9.539525086785167 7.127945348982338 1 0 0
1803 4 4 0.053 17.493223697602396 6.26743565386359 8.528601136918352 1 0 0
4238 10 6 -0.531 21.874084314611956 4.876087409347719 4.755431241048988 0 1 1
1786 4 3 0.702 21.984652194507344 10.076134648279591 9.40940473604854 1 0 0
1956 5 4 0.053 19.336042535746735 10.47938499870819 5.226703310574745 0 0 0
1955 5 1 -0.159 18.26916045236996 10.180974062281338 5.188671726943566 0 0 0
1957 5 4 0.053 18.04800544514233 9.371338463262314 6.003484725229284 0 0 0
2687 6 4 0.053 17.981322881664468 6.529696871400132 5.223157001041756 1 1 1
1787 4 6 -0.531 22.836806355416197 10.200974083101435 8.56752982004655 1 0 0
2688 6 4 0.053 19.070037698509395 5.335200541578947 5.810010489253328 1 1 1
1798 4 2 0.172 19.092627319216945 4.869290882445088 8.757063053147592 1 0 0
4246 10 3 0.702 22.513787695339904 8.92049769206367 40.62964814772853 0 1 0
1794 4 4 0.053 20.553919966557714 7.876819765753497 6.495433160330018 1 0 0
1792 4 4 0.053 19.443937412776435 8.575726945682423 7.574844277152716 1 0 0
1796 4 6 -0.531 21.471409618155853 5.909014868275997 9.811095002646754 1 0 0
1788 4 7 -0.396 21.22153435071578 8.920554120361093 9.497605955792242 1 0 0
1795 4 3 0.702 20.88420667807302 6.514262708433852 9.001409861452805 1 0 0
1791 4 1 -0.159 20.45897736798539 8.517157610457073 7.396781851518821 1 0 0
1797 4 7 -0.396 19.754396749522908 6.04151028106463 8.330314087948706 1 0 0
1789 4 2 0.172 21.31578315043847 7.951609957048801 8.46798404276925 1 0 0
1790 4 4 0.053 22.40946419640368 7.809079165530067 8.071685119411505 1 0 0
4239 10 7 -0.396 23.229099453659554 6.648258345034989 4.789263621706489 0 1 1
4231 10 2 0.172 23.77646165183867 4.781855016332621 6.321028133806226 0 1 1
881 2 4 0.053 23.969630996285233 5.442346053555715 10.075583268727545 0 1 -1
4236 10 4 0.053 24.476679578567776 6.655257665467365 7.4402166755645 0 1 1
4235 10 4 0.053 25.558569022392273 5.942538841362109 6.180352832437572 0 1 1
4234 10 4 0.053 25.386128661683255 5.118370708743372 7.798644272176835 0 1 1
4233 10 1 -0.159 24.863425424403058 5.677417255979214 6.99902525981158 0 1 1
885 2 2 0.172 26.66792379829735 7.991482325263094 9.967221643635582 0 1 -1
892 2 6 -0.531 27.01170230495821 8.222015495099338 7.594031520509876 0 1 -1
891 2 3 0.702 27.394553331927984 7.870878236652323 8.67843324063877 0 1 -1
4252 10 4 0.053 25.476427764814016 9.585139920129812 5.2992698763023185 0 1 1
893 2 7 -0.396 28.57366898180593 7.229260921782133 8.871114170499549 0 1 -1
887 2 1 -0.159 25.558497955467125 9.063794433995305 9.926964683436006 0 1 -1
890 2 4 0.053 25.991254771095946 10.108377451575306 9.742681143291348 0 1 -1
896 2 1 -0.159 28.570071593030082 5.649961325293705 7.07683808378595 0 1 -1
889 2 4 0.053 24.73434016229669 8.833136296760141 9.203983985094291 0 1 -1
899 2 4 0.053 27.993168776781907 5.118820482100024 7.919954481544032 0 1 -1
897 2 4 0.053 27.876899119201433 5.902223935876872 6.310826097617297 0 1 -1
884 2 7 -0.396 25.97545974940654 6.793608450529726 10.419495898314997 0 1 -1
886 2 4 0.053 27.372185519371317 8.27362476568284 10.759076087776547 0 1 -1
894 2 2 0.172 29.366700681430963 6.762594881427349 7.693585630030273 0 1 -1
902 2 7 -0.594 29.35511209673268 7.877015118081327 5.333136299744806 0 1 -1
898 2 4 0.053 29.227229018193324 4.9801299035909095 6.595209451097492 0 1 -1
4280 10 4 0.053 29.972472787095587 5.615467361709748 40.83778161691012 0 1 0
904 2 5 0.423 29.772324034645866 8.585089481720125 4.871034301960826 0 1 -1
1897 5 6 -0.531 29.674676857040346 9.942443550935028 9.574079961973762 0 0 0
4048 9 7 -0.396 33.33371465051948 5.0816307059090855 7.51726011488449 0 0 1
4279 10 4 0.053 31.338671415305445 40.87771612976698 40.7849460031948 0 0 0
1891 5 4 0.053 32.059053135770654 10.736227332631573 9.848431271887133 0 0 0
895 2 4 0.053 30.308740753886543 6.488478895687381 8.108021727051197 0 1 -1
900 2 3 0.702 29.771246635543196 7.946564221021658 6.650953484836564 0 1 -1
901 2 6 -0.531 30.496392727739302 8.8327203942778 6.948401583223572 0 1 -1
4041 9 4 0.053 32.485443138697754 8.029288722523376 8.276799311623456 0 0 1
4046 9 3 0.702 33.019500202099245 6.014951023166573 8.477675460444756 0 0 1
4040 9 2 0.172 33.4583088476964 7.554522775122939 8.088179512720046 0 0 1
4047 9 6 -0.531 32.604255248576564 5.727079082258153 9.534197745837062 0 0 1
4042 9 1 -0.159 33.84999377989899 7.683600890701209 6.559056283412849 0 0 1
4038 9 6 -0.531 33.83411120987799 10.118406599783203 8.563641808181032 0 0 1
4044 9 4 0.053 34.0944007562958 8.75294646853994 6.313258835242968 0 0 1
4039 9 7 -0.396 34.51821471043965 8.016682919371105 8.950549988007564 0 0 1
4045 9 4 0.053 33.025175009294784 7.4183721874220225 5.936494935278846 0 0 1
4043 9 4 0.053 34.78863793640459 7.147350204969014 6.37847880926556 0 0 1
4037 9 3 0.702 34.63083329069019 9.370937840774108 9.097238826882656 0 0 1
4364 10 6 -0.531 40.938541025106474 5.212267591132852 6.3920324954845755 0 1 1
4361 10 4 0.053 37.76215039991823 7.147189947798466 9.270538319962762 0 1 1
4350 10 1 -0.159 37.11385841336234 9.448156101478002 5.868473440135746 0 1 1
4360 10 4 0.053 38.69833749648626 5.839817668415585 10.067814627529868 0 1 1
4357 10 2 0.172 39.363909982974675 6.447528253881817 7.950911198265662 0 1 1
4358 10 4 0.053 40.27621275601352 7.029119217641753 8.240364158976208 0 1 1
4356 10 7 -0.396 38.7201400720507 7.3291844431773745 6.915184777257246 0 1 1
4362 10 4 0.053 37.4633271666866 5.518554005411598 8.877080201502954 0 1 1
4363 10 3 0.702 40.10386429337565 5.142109432449644 7.224579066451844 0 1 1
4349 10 4 0.053 36.219999508931195 7.89384048884558 4.825667078359891 0 1 1
4353 10 4 0.053 36.69970467146591 10.202461095850884 5.238974228752789 0 1 1
2428 6 4 0.053 40.87092802950308 9.819391778982464 7.955251955522934 0 0 1
2425 6 1 -0.159 41.05063393522413 10.261242365724474 6.968522782494131 0 0 1
4351 10 4 0.053 36.60240911819315 9.396503756159628 6.825210391253226 0 1 1
2427 6 4 0.053 40.81889198893758 9.602260550798459 6.192479133796273 0 0 1
4348 10 2 0.172 37.30154910401839 8.115884801577149 5.198237992986414 0 1 1
4032 9 4 0.053 36.84676330001791 9.294960658721092 9.373128372067226 0 0 1
4354 10 3 0.702 37.70891224204992 6.866642993493694 6.162642598665751 0 1 1
4031 9 2 0.172 36.012066227558236 9.697927263991957 10.039341752398045 0 0 1
4352 10 4 0.053 38.14200326442838 9.819024259724667 6.110670149265092 0 1 1
4355 10 6 -0.531 37.234943334792845 5.798345231913599 6.172042635721911 0 1 1
4359 10 1 -0.159 38.30987862263426 6.201198158347869 9.07710258587544 0 1 1
2458 6 7 -0.396 7.564047851853552 16.11794834534193 4.866796046995131 1 0 1
2459 6 2 0.172 8.402830925465912 15.090560835034363 5.360751946794495 1 0 1
2465 6 3 0.702 9.688515309886455 15.730159440333766 5.98125706068458 1 0 1
2462 6 4 0.053 7.533989133773755 14.921516654688084 7.295509801566691 1 0 1
2464 6 4 0.053 8.135708302787627 13.324747272249063 6.679501281928289 1 0 1
946 3 4 0.053 9.488065779131041 13.18964515871516 9.45710672833411 0 0 0
945 3 4 0.053 10.58530406518968 11.83207906117595 9.527059962072393 0 0 0
2463 6 4 0.053 6.670856844010186 13.949321388012903 6.020188678360972 1 0 1
2460 6 4 0.053 8.744476720435191 14.580061944100375 40.9963084762289 1 0 0
2419 6 4 0.053 6.651704013907134 13.740270002810826 9.19497596816199 1 0 1
2418 6 4 0.053 6.081929654696459 15.248013796974858 9.901149341837447 1 0 1
2467 6 7 -0.396 9.524577432432372 16.46326310892126 7.141956404394788 1 0 1
2804 7 4 0.053 9.623633874582556 11.547486928862062 6.290161361977956 1 1 1
2416 6 1 -0.159 5.781400038550315 14.458053698071916 9.23117629900444 1 0 1
2461 6 1 -0.159 7.620257297705002 14.229701909366286 6.4114071064844325 1 0 1
2417 6 4 0.053 5.49280490076111 14.857303753282375 8.280073278278836 1 0 1
2471 6 4 0.053 10.264824207914401 16.236462914217434 9.93390018128529 1 0 1
943 3 1 -0.159 10.024262571349084 12.47354064739856 10.13206449385602 0 0 0
944 3 4 0.053 10.719709047989348 13.122648810425845 10.77283722686799 0 0 0
2468 6 2 0.172 10.693314419518902 16.941769937863754 7.825450842461853 1 0 1
2470 6 1 -0.159 10.968668258405561 16.011317595533768 9.081067233110558 1 0 1
2472 6 4 0.053 10.813375029184602 14.946377029030483 8.70614375733228 1 0 1
2469 6 4 0.053 11.60006543260016 16.897563293145474 7.158223976021814 1 0 1
2801 7 6 -0.531 9.59426226873218 12.479687799339501 40.25944121933575 1 1 0
1734 4 7 -0.396 13.802836416842736 11.45077644702874 9.908200572324745 1 0 0
2466 6 6 -0.531 10.79945824731984 15.586832579535026 5.5454818915274435 1 0 1
1742 4 6 -0.531 12.039188862685734 12.179905077228334 7.423840049956026 1 0 0
1741 4 3 0.702 13.219368565592973 11.929641383785178 7.501008481801843 1 0 0
1749 4 4 0.053 14.458167078728419 15.122782573686889 6.909548826662048 1 0 0
1747 4 4 0.053 12.68097049104132 14.78151125060033 6.9524810740670135 1 0 0
1746 4 1 -0.159 13.5766473462741 14.856484931827246 6.326536188134218 1 0 0
1744 4 2 0.172 13.758704797162327 13.448073315314897 5.774562915476853 1 0 0
1743 4 7 -0.396 14.202948174713185 12.485603266118435 6.730923520735119 1 0 0
1748 4 4 0.053 13.343713149375347 15.553520002089481 5.480661188157638 1 0 0
1745 4 4 0.053 12.870130286643617 13.129682398115078 5.292524588766354 1 0 0
1752 4 7 -0.396 15.812055011584249 14.02082875406386 4.94320279419379 1 0 0
1750 4 3 0.702 14.6309380275681 13.451821238527717 40.99327175419875 1 0 -1
2473 6 4 0.053 11.971242309658063 15.999104710363067 9.434079581886259 1 0 1
1763 4 4 0.053 20.41754389587433 16.40299805830052 5.741279877062175 1 0 0
1769 4 6 -0.531 18.597521657708345 16.149278110240868 7.918730160969445 1 0 0
1761 4 7 -0.396 19.118783266347748 15.112914256495992 5.037587766388079 1 0 0
1765 4 4 0.053 21.671683120353897 14.562597785689828 4.6583637660652055 1 0 0
1759 4 3 0.702 18.260216943129954 14.043239445239609 5.172342724778316 1 0 0
1773 4 1 -0.159 18.29716058122245 13.546250927424445 9.392404334314879 1 0 0
1768 4 3 0.702 19.540446299571087 15.48705956304078 7.5594255896267075 1 0 0
1760 4 6 -0.531 18.374925971888565 13.209727634377153 6.054746167364648 1 0 0
1762 4 2 0.172 20.07934166267742 15.422282432862708 6.057048483850819 1 0 0
1771 4 2 0.172 19.641712933754874 14.227354206733372 9.622427574699206 1 0 0
1958 5 4 0.053 17.59479335232461 11.017216596961973 5.518954592723863 0 0 0
1770 4 7 -0.396 20.224671508858115 14.592941031763305 8.35107821359641 1 0 0
1767 4 4 0.053 21.023665105634695 13.436402506317823 5.91526841755809 1 0 0
1766 4 4 0.053 22.103822095860018 14.707786923918382 6.253826447183643 1 0 0
1764 4 1 -0.159 21.249554723043378 14.510514947179027 5.720526609584649 1 0 0
1775 4 4 0.053 18.472979330547663 12.752435227817385 8.600130316767002 1 0 0
1776 4 4 0.053 17.549343322160063 14.236407180331545 9.060031676516475 1 0 0
1772 4 4 0.053 19.646526012999978 15.055248642741446 10.286318197404812 1 0 0
4254 10 4 0.053 24.01865805933457 10.494262671215964 5.940390261835215 0 1 1
4251 10 1 -0.159 24.840059004683777 10.550834125009441 5.219920566139566 0 1 1
1911 5 4 0.053 22.955257474656424 13.706571727707795 8.111351090550535 0 0 0
4253 10 4 0.053 25.42710345188681 11.446068971534562 5.428767292755012 0 1 1
4505 10 4 0.053 26.862003339336038 15.964302453115957 10.233143636772903 0 0 1
1913 5 4 0.053 23.898867439193644 12.993208232778194 6.67208133526212 0 0 0
1912 5 4 0.053 23.84722589504044 12.291118989136518 8.332881072570565 0 0 0
1914 5 3 0.702 25.082802819743097 15.575768134608454 7.612575522219943 0 0 0
1916 5 7 -0.396 24.93475830406934 15.4750473316974 6.258063940635524 0 0 0
1900 5 4 0.053 27.843032733724645 10.679206784173935 8.513582872748048 0 0 0
1909 5 4 0.053 25.148811861478517 14.393119267103442 9.198138851429329 0 0 0
1910 5 1 -0.159 23.88763225548233 13.287384646504439 7.78552993297416 0 0 0
1908 5 2 0.172 25.144908606772724 14.136220068920451 8.154271630022844 0 0 0
1907 5 7 -0.396 26.380090765342214 13.46073900226643 7.835770136896362 0 0 0
1905 5 3 0.702 26.85534403097302 12.588763145664034 8.796674554954462 0 0 0
1899 5 2 0.172 28.080145713615234 11.754869774668716 8.35751474023829 0 0 0
1901 5 1 -0.159 28.358466195008468 11.86848908721812 6.908314795608674 0 0 0
1906 5 6 -0.531 26.325610037076473 12.542500642092358 9.940644230006473 0 0 0
1902 5 4 0.053 27.563719709925564 11.421391473867354 6.288293178992977 0 0 0
670 2 4 0.053 23.180787237207454 16.17935823033907 10.582572358087864 0 0 0
1922 5 4 0.053 27.247906277014614 15.90806216155296 5.027651630777442 0 0 0
1904 5 4 0.053 28.47231086810341 12.932558206824394 6.5915163572066975 0 0 0
4503 10 1 -0.159 27.918864416327633 15.932892166719679 10.572109057416075 0 0 1
1903 5 4 0.053 29.33648401014316 11.266225384366292 6.568972245012217 0 0 0
4500 10 7 -0.396 30.08884701476077 16.302254175657147 10.394463665580432 0 0 1
3862 9 1 -0.159 30.186979892524764 15.447809850078576 5.280073386625476 0 0 1
3868 9 7 -0.396 31.720446198889416 13.032611645568673 5.518762336067118 0 0 1
3863 9 4 0.053 29.93222264851343 16.474682889503278 5.032242469153444 0 0 1
3873 9 4 0.053 34.315093328594145 11.002257293759456 6.112255643778696 0 0 1
1898 5 7 -0.396 29.20843506066791 12.103065295491998 9.179788547714667 0 0 0
4501 10 2 0.172 28.927182506537605 16.44770920339832 9.595235687120446 0 0 1
3870 9 4 0.053 31.980004476803085 11.329397598641155 6.683428391267084 0 0 1
4502 10 4 0.053 29.008643135166214 15.657373361891176 8.799887442507146 0 0 1
3864 9 4 0.053 29.294872909889772 14.866510059364904 5.440836978569843 0 0 1
4495 10 4 0.053 32.81857474422249 15.211585547034248 10.87381108600431 0 0 1
3874 9 4 0.053 34.022307896081145 12.628233131294923 6.634437229768079 0 0 1
3865 9 4 0.053 30.780146305650728 15.329405672054577 6.226040677270217 0 0 1
3872 9 4 0.053 34.27475172416027 12.350403765670023 4.913096135933943 0 0 1
1896 5 3 0.702 30.01543165596304 11.102911662609333 9.599248972054827 0 0 0
1895 5 4 0.053 32.78085564319779 13.3244416613924 9.756644589207822 0 0 0
1890 5 2 0.172 31.43988853100688 11.672681759689844 10.043144109380169 0 0 0
3869 9 2 0.172 32.312884019995664 11.68752165601952 5.730339172355046 0 0 1
3871 9 1 -0.159 33.811130366393016 11.916438405431503 5.812937634222047 0 0 1
4016 9 4 0.053 33.883133506596096 16.54808457255934 6.590066072186955 0 0 1
1892 5 1 -0.159 31.827770278318223 12.967467121469376 9.404992971600631 0 0 0
1894 5 4 0.053 31.860061889862017 13.037199168678786 8.319202019578208 0 0 0
1893 5 4 0.053 31.16199527173834 13.774400619817058 9.75984352999648 0 0 0
4018 9 4 0.053 33.75055964896289 15.61548806026147 8.167839924158642 0 0 1
4015 9 1 -0.159 34.25662214436123 15.7398498430538 7.207645688636736 0 0 1
4017 9 4 0.053 34.06290518420286 14.863625208355533 6.556778175645332 0 0 1
4021 9 7 -0.396 35.988960128494014 14.368715408676584 9.07781731101067 0 0 1
2421 6 6 -0.531 39.88274160808329 11.516190692566678 9.755754568479526 0 0 1
2414 6 2 0.172 41.00525757335329 13.780833236404325 9.90563027844477 0 0 1
2420 6 3 0.702 40.46144616338631 12.399979550531338 9.206927520873526 0 0 1
2422 6 7 -0.396 40.726250239827664 12.404462733189275 7.859656115183135 0 0 1
2423 6 2 0.172 40.100199207983394 11.409113133580222 6.928136625940052 0 0 1
2430 6 6 -0.531 40.72783693633998 12.301283116927857 4.681949109064865 0 0 1
4020 9 6 -0.531 37.83483029122719 15.058842442440717 8.00226191944296 0 0 1
2424 6 4 0.053 39.15771201146437 11.143754231334084 7.378040248946788 0 0 1
4028 9 3 0.702 36.53768232015034 11.969727978712378 9.269502686033588 0 0 1
2431 6 7 -0.396 38.59478257334611 12.36403194001638 5.34616245298779 0 0 1
2435 6 4 0.053 36.19694401203043 13.628142479421603 4.918987726968629 0 0 1
4022 9 2 0.172 36.64891693842215 13.441794617117987 9.853943074187917 0 0 1
2429 6 3 0.702 39.94239463954686 12.039436682535904 5.53868870771863 0 0 1
4030 9 7 -0.396 36.313112212143594 11.123763477511329 10.290096946621297 0 0 1
4019 9 3 0.702 36.64525629488608 15.11211677035316 8.192487368529143 0 0 1
4023 9 4 0.053 37.731073042979205 13.605260778917133 9.853441457809218 0 0 1
4029 9 6 -0.531 36.5726983988355 11.647721942934993 8.11995444159148 0 0 1
4013 9 2 0.172 35.710075312921305 16.125432841663915 7.395346303623302 0 0 1
4014 9 4 0.053 36.26928167520509 16.266800196638194 6.475238497826324 0 0 1
2413 6 7 -0.396 39.99036841942144 14.811110709006815 10.039250866124322 0 0 1
2476 6 7 -0.396 10.008630119972544 18.592282903479557 9.330076362623503 1 0 1
2399 6 4 0.053 6.523444474109896 18.333553803490474 7.8716779982664455 1 0 1
2481 6 4 0.053 9.171454574100917 21.881334411552064 10.053392035880101 1 0 1
2398 6 1 -0.159 5.73867907638448 17.88015513659621 8.484547643324298 1 0 1
2479 6 1 -0.159 9.212504646702305 21.00856850680031 9.390052933583155 1 0 1
2477 6 2 0.172 9.94438970380481 19.83987327296954 10.064919272777649 1 0 1
2401 6 4 0.053 6.001724286310753 17.607086004538 9.575118421281669 1 0 1
2480 6 4 0.053 8.1899270288812 20.769815697932252 9.150489872158458 1 0 1
2395 6 7 -0.396 4.961881576718903 20.12686465083631 8.87190486059209 1 0 1
2400 6 4 0.053 5.727335108577903 16.933783135936245 7.906711690626617 1 0 1
2482 6 4 0.053 9.832566719570456 21.324013383708547 8.527933598981962 1 0 1
2392 6 4 0.053 6.288621823631269 21.612079370207102 10.665056664679701 1 0 1
2387 6 2 0.172 5.0098990280948055 22.59961822250012 8.950663946171026 1 0 1
2453 6 4 0.053 6.526949043799808 18.616257974272845 5.04006660576197 1 0 1
3960 9 4 0.053 5.5513622088857035 21.589924486793972 5.083533932926978 1 0 1
2448 6 6 -0.531 4.841739222531673 16.780824179429565 5.658300035891043 1 0 1
2396 6 2 0.172 41.015243729960886 18.811682845811283 8.393295205336157 0 0 1
2397 6 4 0.053 40.60218977653902 18.943017942991027 7.389331877922242 0 0 1
2389 6 1 -0.159 5.524854434685416 22.42458824129046 10.411457387693595 1 0 1
2474 6 3 0.702 10.706881967582373 18.489455791096916 8.197575167738337 1 0 1
2478 6 4 0.053 11.014668134262996 20.25191415482599 10.224238212696017 1 0 1
2475 6 6 -0.531 11.276090823460798 19.39503697548586 7.656097224269712 1 0 1
642 2 2 0.172 15.321057450930882 18.374740567051255 9.170535544342199 0 0 0
639 2 3 0.702 15.614701008735302 18.646045619370163 6.7704463351710205 0 0 0
640 2 6 -0.531 14.517819555896459 18.262559399405415 6.495345578423399 0 0 0
641 2 7 -0.396 16.211223457030723 18.54757768738431 8.025884751261604 0 0 0
643 2 4 0.053 14.594696045746206 17.55971732793965 8.92653130444299 0 0 0
647 2 4 0.053 13.921206580933346 19.990776198037132 8.729140279390672 0 0 0
630 2 3 0.702 16.03575624256421 21.622657018016668 5.821056663424606 0 0 0
644 2 1 -0.159 14.730706285746704 19.759607048636767 9.446486225600331 0 0 0
646 2 4 0.053 15.45975018105211 20.56561925881288 9.299808589661506 0 0 0
632 2 7 -0.396 16.446388269013845 20.538532564342617 5.055970375720315 0 0 0
624 2 2 0.172 15.433661547869578 22.807757752607454 4.836748285793737 0 0 0
583 2 4 0.053 12.304414326072344 22.826781130570748 9.494661540029822 0 0 0
633 2 2 0.172 16.69617532621609 19.245987719458203 5.731434886687531 0 0 0
631 2 6 -0.531 16.03290815548177 21.56200859932968 7.031727368297725 0 0 0
581 2 1 -0.159 13.141559240226647 22.978716294409733 10.198494711059658 0 0 0
584 2 4 0.053 14.051340395549126 22.4148945707547 9.853420630307168 0 0 0
634 2 4 0.053 16.621107709492144 18.529786404644447 4.887471191411604 0 0 0
3620 9 4 0.053 12.268819554869278 19.47546243847796 4.729805579426343 0 0 1
3619 9 1 -0.159 12.228380325951475 18.916730410791672 40.273698977686145 0 0 0
645 2 4 0.053 14.259354591794464 19.959499951913898 10.460074756401843 0 0 0
3622 9 4 0.053 12.499101371669209 19.580452843387157 39.46463025855807 0 0 0
3618 9 4 0.053 10.059654388398867 19.266055244807212 40.08475699899946 0 0 0
635 2 1 -0.159 18.118472534433117 19.351382554718455 6.346905213484732 0 0 0
638 2 4 0.053 18.279350392471557 20.036247974578163 7.150038585346258 0 0 0