units real
atom_style full
boundary p p p

# --- Force Field Styles ---
pair_style lj/class2/coul/long 9.5 9.5
kspace_style pppm 1e-6
dielectric 1.000000
bond_style class2
angle_style class2
dihedral_style class2
improper_style class2
special_bonds lj/coul 0 0 1
pair_modify mix sixthpower tail yes
neighbor 2.0 bin
neigh_modify delay 0 every 1 check yes
neigh_modify one 4000
# KOKKOS: package loaded via -pk kokkos on the command line

read_data /home/arz2/PolyJarvis/data/PEEK3/lammps/npt_pppm/npt_pppm_out.data
Reading data file ...
  orthogonal box = (3.8911506 3.8911506 3.8911506) to (53.164378 53.164378 53.164378)
  1 by 1 by 1 MPI processor grid
  reading atoms ...
  8720 atoms
  reading velocities ...
  8720 velocities
  scanning bonds ...
  3 = max bonds/atom
  scanning angles ...
  9 = max angles/atom
  scanning dihedrals ...
  18 = max dihedrals/atom
  scanning impropers ...
  4 = max impropers/atom
  orthogonal box = (3.8911506 3.8911506 3.8911506) to (53.164378 53.164378 53.164378)
  1 by 1 by 1 MPI processor grid
  reading bonds ...
  9480 bonds
  reading angles ...
  15104 angles
  reading dihedrals ...
  22512 dihedrals
  reading impropers ...
  4864 impropers
Finding 1-2 1-3 1-4 neighbors ...
  special bond factors lj:    0        0        1       
  special bond factors coul:  0        0        1       
     3 = max # of 1-2 neighbors
     6 = max # of 1-3 neighbors
     9 = max # of special neighbors
  special bonds CPU = 0.004 seconds
  read_data CPU = 0.337 seconds
include /home/arz2/PolyJarvis/data/PEEK3/lammps/cell/emc_build.params
# LAMMPS parameters created by EMC v9.4.4, build Jul 31 2025 20:33:44

# Variables

variable	seed		index	481572
variable	ntotal		index	8720
variable	fshape		index	1
variable	output		index	emc_build
variable	field		index	pcff/pcff
variable	location1	index	/home/arz2/emc/field/
variable	nav		index	0.6022141179
variable	temperature	index	300
variable	radius		index	5
variable	nrelax		index	100
variable	weight_nonbond	index	0.0001
variable	weight_bond	index	0.0001
variable	weight_focus	index	1
variable	cutoff		index	9.5
variable	charge_cutoff	index	9.5
variable	kappa		index	4
variable	density1	index	0.66
variable	lprevious	index	0
variable	lphase		index	57.0555285531
variable	f_poly		index	8
variable	chem_repeat	index	*Oc1ccc(Oc2ccc(C(=O)c3ccc(cc3)*)cc2)cc1
variable	chem_cap	index	*[H]
variable	lg_repeat	index	34
variable	lg_cap		index	1
variable	norm_poly	index	100
variable	l_poly		index	1090
variable	mg_repeat	index	260.29514
variable	mg_cap		index	0
variable	m_poly		index	8329.44448
variable	n_poly		index	8
variable	mtotal		index	73822.38416
variable	nphase1		index	8720
variable	mphase1		index	73822.38416
variable	vphase1		index	185734.764243
variable	lbox		index	57.0555285531
variable	lphase1		index	57.0555285531
variable	lxx		index	57.0555285531
variable	lyy		index	57.0555285531
variable	lzz		index	57.0555285531
variable	lzy		index	0
variable	lzx		index	0
variable	lyx		index	0
variable	vtotal		index	185734.764243
variable	nl_poly		index	8

# Types

variable	type_c_0	index	1
variable	type_cp		index	2
variable	type_hc		index	3
variable	type_ho		index	4
variable	type_o_1	index	5
variable	type_oc		index	6
variable	type_oh		index	7

variable	type_bond_c_0_cp index	1
variable	type_bond_c_0_o_1 index	2
variable	type_bond_cp_cp	index	3
variable	type_bond_cp_hc	index	4
variable	type_bond_cp_oc	index	5
variable	type_bond_cp_oh	index	6
variable	type_bond_ho_oh	index	7

variable	type_angle_c_0_cp_cp index	1
variable	type_angle_cp_c_0_cp index	2
variable	type_angle_cp_c_0_o_1 index	3
variable	type_angle_cp_cp_cp index	4
variable	type_angle_cp_cp_hc index	5
variable	type_angle_cp_cp_oc index	6
variable	type_angle_cp_cp_oh index	7
variable	type_angle_cp_oc_cp index	8
variable	type_angle_cp_oh_ho index	9

# Clusters

variable	n0_poly		index	1
variable	n1_poly		index	8
variable	nl_poly		index	8

# Flags

variable	flag_charged	index	1

# Masses

mass		1    12.01115  # c_0
mass		2    12.01115  # cp
mass		3     1.00797  # hc
mass		4     1.00797  # ho
mass		5    15.99940  # o_1
mass		6    15.99940  # oc
mass		7    15.99940  # oh

# Potentials

pair_modify	mix sixthpower tail yes
special_bonds	lj/coul 0 0 1

# Pair Coeffs

pair_coeff	 1  1    0.12000    3.30800  # c_0,c_0
pair_coeff	 2  2    0.06400    4.01000  # cp,cp
pair_coeff	 3  3    0.02000    2.99500  # hc,hc
pair_coeff	 4  4    0.01300    1.09800  # ho,ho
pair_coeff	 5  5    0.26700    3.30000  # o_1,o_1
pair_coeff	 6  6    0.24000    3.53500  # oc,oc
pair_coeff	 7  7    0.24000    3.53500  # oh,oh

# Bond Coeffs

bond_coeff	1    1.48900  339.35740 -655.72360  670.23620  # c_0,cp
bond_coeff	2    1.21600  823.79480 -1878.79400 2303.53110  # c_0,o_1
bond_coeff	3    1.41700  470.83610 -627.61790 1327.63450  # cp,cp
bond_coeff	4    1.09820  372.82510 -803.45260  894.31730  # cp,hc
bond_coeff	5    1.37680  428.87980 -738.23510 1114.96550  # cp,oc
bond_coeff	6    1.37680  428.87980 -738.23510 1114.96550  # cp,oh
bond_coeff	7    0.96500  532.50620 -1282.90500 2004.76580  # ho,oh

# Angle Coeffs

angle_coeff	1  108.40000   43.95940   -8.39240   -9.33790  # c_0,cp,cp
angle_coeff	2  110.58840   34.62140   -7.09390   -7.40320  # cp,c_0,cp
angle_coeff	3  119.30000   65.10160  -17.97660    0.00000  # cp,c_0,o_1
angle_coeff	4  118.90000   61.02260  -34.99310    0.00000  # cp,cp,cp
angle_coeff	5  117.94000   35.15580  -12.46820    0.00000  # cp,cp,hc
angle_coeff	6  123.42000   73.67810  -21.67870    0.00000  # cp,cp,oc
angle_coeff	7  123.42000   73.67810  -21.67870    0.00000  # cp,cp,oh
angle_coeff	8  109.50000   60.00000    0.00000    0.00000  # cp,oc,cp
angle_coeff	9  108.19000   53.12500   -8.50160    0.00000  # cp,oh,ho

# BondBond Coeffs

angle_coeff	1 bb    0.00000    1.48900    1.41700  # c_0,cp,cp
angle_coeff	2 bb    0.00000    1.48900    1.48900  # cp,c_0,cp
angle_coeff	3 bb    0.00000    1.48900    1.21600  # cp,c_0,o_1
angle_coeff	4 bb   68.28560    1.41700    1.41700  # cp,cp,cp
angle_coeff	5 bb    1.07950    1.41700    1.09820  # cp,cp,hc
angle_coeff	6 bb   48.47540    1.41700    1.37680  # cp,cp,oc
angle_coeff	7 bb   48.47540    1.41700    1.37680  # cp,cp,oh
angle_coeff	8 bb    0.00000    1.37680    1.37680  # cp,oc,cp
angle_coeff	9 bb   20.65770    1.37680    0.96500  # cp,oh,ho

# BondAngle Coeffs

angle_coeff	1 ba    0.00000    0.00000    1.48900    1.41700  # c_0,cp,cp
angle_coeff	2 ba    0.00000    0.00000    1.48900    1.48900  # cp,c_0,cp
angle_coeff	3 ba    0.00000    0.00000    1.48900    1.21600  # cp,c_0,o_1
angle_coeff	4 ba   28.87080   28.87080    1.41700    1.41700  # cp,cp,cp
angle_coeff	5 ba   20.00330   24.21830    1.41700    1.09820  # cp,cp,hc
angle_coeff	6 ba   58.47900  107.68060    1.41700    1.37680  # cp,cp,oc
angle_coeff	7 ba   58.47900  107.68060    1.41700    1.37680  # cp,cp,oh
angle_coeff	8 ba    0.00000    0.00000    1.37680    1.37680  # cp,oc,cp
angle_coeff	9 ba   53.86140   23.92240    1.37680    0.96500  # cp,oh,ho

# Dihedral Coeffs

dihedral_coeff	 1    0.00000    0.00000    4.62820    0.00000    0.00000    0.00000  # c_0,cp,cp,cp
dihedral_coeff	 2    0.00000    0.00000    2.16700    0.00000    0.00000    0.00000  # c_0,cp,cp,hc
dihedral_coeff	 3    0.00000    0.00000    2.50000    0.00000    0.00000    0.00000  # cp,c_0,cp,cp
dihedral_coeff	 4    0.00000    0.00000    0.90630    0.00000    0.00000    0.00000  # cp,cp,c_0,o_1
dihedral_coeff	 5    8.36670    0.00000    1.19320    0.00000    0.00000    0.00000  # cp,cp,cp,cp
dihedral_coeff	 6    0.00000    0.00000    3.96610    0.00000    0.00000    0.00000  # cp,cp,cp,hc
dihedral_coeff	 7    0.00000    0.00000    4.84980    0.00000    0.00000    0.00000  # cp,cp,cp,oc
dihedral_coeff	 8    0.00000    0.00000    4.84980    0.00000    0.00000    0.00000  # cp,cp,cp,oh
dihedral_coeff	 9    0.00000    0.00000    1.80000    0.00000    0.00000    0.00000  # cp,cp,oc,cp
dihedral_coeff	10   -0.69000    0.00000    0.50970    0.00000    0.00950    0.00000  # cp,cp,oh,ho
dihedral_coeff	11    0.00000    0.00000    1.87690    0.00000    0.00000    0.00000  # hc,cp,cp,hc
dihedral_coeff	12    0.00000    0.00000    1.72340    0.00000    0.00000    0.00000  # hc,cp,cp,oc
dihedral_coeff	13    0.00000    0.00000    1.72340    0.00000    0.00000    0.00000  # hc,cp,cp,oh

# MiddleBondTorsion Coeffs

dihedral_coeff	 1 mbt    0.00000    0.00000    0.00000    1.41700  # c_0,cp,cp,cp
dihedral_coeff	 2 mbt    0.00000    0.00000    0.00000    1.41700  # c_0,cp,cp,hc
dihedral_coeff	 3 mbt    0.00000    0.00000    0.00000    1.48900  # cp,c_0,cp,cp
dihedral_coeff	 4 mbt    0.00000    0.00000    0.00000    1.48900  # cp,cp,c_0,o_1
dihedral_coeff	 5 mbt   27.59890   -2.31200    0.00000    1.41700  # cp,cp,cp,cp
dihedral_coeff	 6 mbt    0.00000   -1.15210    0.00000    1.41700  # cp,cp,cp,hc
dihedral_coeff	 7 mbt    0.00000    4.82550    0.00000    1.41700  # cp,cp,cp,oc
dihedral_coeff	 8 mbt    0.00000    4.82550    0.00000    1.41700  # cp,cp,cp,oh
dihedral_coeff	 9 mbt    0.00000    0.00000    0.00000    1.37680  # cp,cp,oc,cp
dihedral_coeff	10 mbt    1.15800    3.26970    3.51320    1.37680  # cp,cp,oh,ho
dihedral_coeff	11 mbt    0.00000    4.82280    0.00000    1.41700  # hc,cp,cp,hc
dihedral_coeff	12 mbt    0.00000    5.54320    0.00000    1.41700  # hc,cp,cp,oc
dihedral_coeff	13 mbt    0.00000    5.54320    0.00000    1.41700  # hc,cp,cp,oh

# EndBondTorsion Coeffs

dihedral_coeff	 1 ebt    0.00000    0.00000    0.00000    0.00000    0.00000    0.00000    1.48900    1.41700  # c_0,cp,cp,cp
dihedral_coeff	 2 ebt    0.00000    0.00000    0.00000    0.00000    0.00000    0.00000    1.48900    1.09820  # c_0,cp,cp,hc
dihedral_coeff	 3 ebt    0.00000    0.00000    0.00000    0.00000    0.00000    0.00000    1.48900    1.41700  # cp,c_0,cp,cp
dihedral_coeff	 4 ebt    0.00000    0.00000    0.00000    0.00000    0.00000    0.00000    1.41700    1.21600  # cp,cp,c_0,o_1
dihedral_coeff	 5 ebt   -0.11850    6.32040    0.00000   -0.11850    6.32040    0.00000    1.41700    1.41700  # cp,cp,cp,cp
dihedral_coeff	 6 ebt    0.00000   -6.89580    0.00000    0.00000   -0.46690    0.00000    1.41700    1.09820  # cp,cp,cp,hc
dihedral_coeff	 7 ebt    0.00000    0.26550    0.00000    0.00000    4.89050    0.00000    1.41700    1.37680  # cp,cp,cp,oc
dihedral_coeff	 8 ebt    0.00000    0.26550    0.00000    0.00000    4.89050    0.00000    1.41700    1.37680  # cp,cp,cp,oh
dihedral_coeff	 9 ebt    0.00000    0.00000    0.00000    0.00000    0.00000    0.00000    1.41700    1.37680  # cp,cp,oc,cp
dihedral_coeff	10 ebt    0.90000   -1.34560    1.19000    3.41320    0.58730   -0.13230    1.41700    0.96500  # cp,cp,oh,ho
dihedral_coeff	11 ebt    0.00000   -0.68900    0.00000    0.00000   -0.68900    0.00000    1.09820    1.09820  # hc,cp,cp,hc
dihedral_coeff	12 ebt    0.00000   -1.58670    0.00000    0.00000    4.26410    0.00000    1.09820    1.37680  # hc,cp,cp,oc
dihedral_coeff	13 ebt    0.00000   -1.58670    0.00000    0.00000    4.26410    0.00000    1.09820    1.37680  # hc,cp,cp,oh

# AngleTorsion Coeffs

dihedral_coeff	 1 at    0.00000    0.00000    0.00000    0.00000    0.00000    0.00000  108.40000  118.90000  # c_0,cp,cp,cp
dihedral_coeff	 2 at    0.00000    0.00000    0.00000    0.00000    0.00000    0.00000  108.40000  117.94000  # c_0,cp,cp,hc
dihedral_coeff	 3 at    0.00000    0.00000    0.00000    0.00000    0.00000    0.00000  110.58840  108.40000  # cp,c_0,cp,cp
dihedral_coeff	 4 at    0.00000    0.00000    0.00000    0.00000    0.00000    0.00000  108.40000  119.30000  # cp,cp,c_0,o_1
dihedral_coeff	 5 at    1.97670    1.02390    0.00000    1.97670    1.02390    0.00000  118.90000  118.90000  # cp,cp,cp,cp
dihedral_coeff	 6 at    0.00000    2.50140    0.00000    0.00000    2.71470    0.00000  118.90000  117.94000  # cp,cp,cp,hc
dihedral_coeff	 7 at    0.00000   10.01550    0.00000    0.00000    1.74040    0.00000  118.90000  123.42000  # cp,cp,cp,oc
dihedral_coeff	 8 at    0.00000   10.01550    0.00000    0.00000    1.74040    0.00000  118.90000  123.42000  # cp,cp,cp,oh
dihedral_coeff	 9 at    0.00000    0.00000    0.00000    0.00000    0.00000    0.00000  123.42000  109.50000  # cp,cp,oc,cp
dihedral_coeff	10 at   -5.13600   -1.01220    0.00000    4.68520    0.02300   -0.59800  123.42000  108.19000  # cp,cp,oh,ho
dihedral_coeff	11 at    0.00000    2.45010    0.00000    0.00000    2.45010    0.00000  117.94000  117.94000  # hc,cp,cp,hc
dihedral_coeff	12 at    0.00000    1.87290    0.00000    0.00000    2.57060    0.00000  117.94000  123.42000  # hc,cp,cp,oc
dihedral_coeff	13 at    0.00000    1.87290    0.00000    0.00000    2.57060    0.00000  117.94000  123.42000  # hc,cp,cp,oh

# AngleAngleTorsion Coeffs

dihedral_coeff	 1 aat    0.00000  108.40000  118.90000  # c_0,cp,cp,cp
dihedral_coeff	 2 aat    0.00000  108.40000  117.94000  # c_0,cp,cp,hc
dihedral_coeff	 3 aat    0.00000  110.58840  108.40000  # cp,c_0,cp,cp
dihedral_coeff	 4 aat    0.00000  108.40000  119.30000  # cp,cp,c_0,o_1
dihedral_coeff	 5 aat    0.00000  118.90000  118.90000  # cp,cp,cp,cp
dihedral_coeff	 6 aat   -4.81410  118.90000  117.94000  # cp,cp,cp,hc
dihedral_coeff	 7 aat  -21.02470  118.90000  123.42000  # cp,cp,cp,oc
dihedral_coeff	 8 aat  -21.02470  118.90000  123.42000  # cp,cp,cp,oh
dihedral_coeff	 9 aat    0.00000  123.42000  109.50000  # cp,cp,oc,cp
dihedral_coeff	10 aat   -4.60720  123.42000  108.19000  # cp,cp,oh,ho
dihedral_coeff	11 aat    0.35980  117.94000  117.94000  # hc,cp,cp,hc
dihedral_coeff	12 aat    4.22960  117.94000  123.42000  # hc,cp,cp,oc
dihedral_coeff	13 aat    4.22960  117.94000  123.42000  # hc,cp,cp,oh

# BondBond13 Coeffs

dihedral_coeff	 1 bb13    0.00000    1.48900    1.41700  # c_0,cp,cp,cp
dihedral_coeff	 2 bb13    0.00000    1.48900    1.09820  # c_0,cp,cp,hc
dihedral_coeff	 3 bb13    0.00000    1.48900    1.41700  # cp,c_0,cp,cp
dihedral_coeff	 4 bb13    0.00000    1.41700    1.21600  # cp,cp,c_0,o_1
dihedral_coeff	 5 bb13   53.00000    1.41700    1.41700  # cp,cp,cp,cp
dihedral_coeff	 6 bb13   -6.27410    1.41700    1.09820  # cp,cp,cp,hc
dihedral_coeff	 7 bb13   -2.24360    1.41700    1.37680  # cp,cp,cp,oc
dihedral_coeff	 8 bb13   -2.24360    1.41700    1.37680  # cp,cp,cp,oh
dihedral_coeff	 9 bb13    0.00000    1.41700    1.37680  # cp,cp,oc,cp
dihedral_coeff	10 bb13    1.15900    1.41700    0.96500  # cp,cp,oh,ho
dihedral_coeff	11 bb13   -1.70770    1.09820    1.09820  # hc,cp,cp,hc
dihedral_coeff	12 bb13    2.05170    1.09820    1.37680  # hc,cp,cp,oc
dihedral_coeff	13 bb13    2.05170    1.09820    1.37680  # hc,cp,cp,oh

# Improper Coeffs

improper_coeff	1   38.79490    0.00000  # c_0,cp,cp,o_1
improper_coeff	2    0.00000    0.00000  # cp,c_0,cp,cp
improper_coeff	3    4.89120    0.00000  # cp,cp,cp,hc
improper_coeff	4   13.04210    0.00000  # cp,cp,cp,oc
improper_coeff	5   13.04210    0.00000  # cp,cp,cp,oh

# AngleAngle Coeffs

improper_coeff	1 aa    0.00000    0.00000    0.00000  110.58840  119.30000  119.30000  # c_0,cp,cp,o_1
improper_coeff	2 aa    0.00000    0.00000    0.00000  108.40000  108.40000  118.90000  # cp,c_0,cp,cp
improper_coeff	3 aa    0.00000    0.00000    0.00000  118.90000  117.94000  117.94000  # cp,cp,cp,hc
improper_coeff	4 aa    0.00000    0.00000    0.00000  118.90000  123.42000  123.42000  # cp,cp,cp,oc
improper_coeff	5 aa    0.00000    0.00000    0.00000  118.90000  123.42000  123.42000  # cp,cp,cp,oh


# --- Thermo Output ---
thermo_style custom step time temp press enthalpy etotal ke pe ebond eangle edihed eimp evdwl ecoul elong etail vol lx ly lz density pxx pyy pzz
thermo_modify flush yes
thermo 1000

# --- Trajectory ---
dump dump_npt all custom 1000 npt_cool.dump id type mol x y z ix iy iz vx vy vz

# --- Restart Checkpointing ---
restart 10000 npt_1.rst npt_2.rst

# --- Initial Velocities (optional) ---
# Velocities read from data file

# --- SHAKE Constraints ---
# SHAKE disabled

# --- NPT Thermostat + Barostat (Nose-Hoover) ---
# T_damp = 100.0 fs  (heat bath coupling)
# P_damp = 1000.0 fs  (pressure bath coupling, ~10x T_damp typical)
# Ramp: T=850.0->770.0K  P=1.0->1.0atm
timestep 1.0
fix npt_fix all npt temp 850.0 770.0 100.0 iso 1.0 1.0 1000.0

run 2000000
PPPM Kokkos initialization ...
  using 12-bit tables for long-range coulomb
  G vector (1/distance) = 0.31156068
  grid = 40 40 40
  stencil order = 5
  estimated absolute RMS force accuracy = 0.00027274683
  estimated relative force accuracy = 8.2136898e-07
  using double precision cuFFT
  3d grid and FFT values/proc = 103823 64000
Generated 21 of 21 mixed pair_coeff terms from sixthpower/sixthpower mixing rule
Neighbor list info ...
  update: every = 1 steps, delay = 0 steps, check = yes
  max neighbors/atom: 4000, page size: 100000
  master list distance cutoff = 11.5
  ghost atom cutoff = 11.5
  binsize = 11.5, bins = 5 5 5
  1 neighbor lists, perpetual/occasional/extra = 1 0 0
  (1) pair lj/class2/coul/long/kk, perpetual
      attributes: full, newton off, kokkos_device
      pair build: full/bin/kk/device
      stencil: full/bin/3d
      bin: kk/device
Per MPI rank memory allocation (min/avg/max) = 37.59 | 37.59 | 37.59 Mbytes
   Step          Time           Temp          Press         Enthalpy        TotEng         KinEng         PotEng         E_bond        E_angle        E_dihed        E_impro         E_vdwl         E_coul         E_long         E_tail         Volume           Lx             Ly             Lz          Density          Pxx            Pyy            Pzz      
         0   0              851.2862       463.16034      58597.196      57789.142      22124.658      35664.484      9432.2635      9369.1408      9800.2228      1189.1497      443.34346      15934.404     -10504.04      -671.98297      119628.05      49.273227      49.273227      49.273227      1.0247174     -895.15015      1230.6023      1054.0288    
      1000   1000           843.84382      962.99722      59441.238      57762.596      21931.233      35831.363      9553.4446      9319.3213      9812.8208      1203.345       504.34258      15943.439     -10505.35      -672.56462      119524.59      49.259019      49.259019      49.259019      1.0256043      338.44437      626.93152      1923.6158    
      2000   2000           856.74302     -615.77592      56835.926      57916.597      22266.479      35650.117      9325.1042      9197.1683      9934.7011      1171.7738      529.25161      15979.971     -10487.853     -668.03123      120335.71      49.370195      49.370195      49.370195      1.0186913      1538.2008     -545.31158     -2840.2169    
      3000   3000           844.0486      -2675.6917      52916.093      57612.728      21936.555      35676.173      9169.7967      9243.8799      10129.232      1208.438       462.69934      15955.6       -10493.473     -667.9076       120357.99      49.373241      49.373241      49.373241      1.0185028     -2223.1293     -3335.3857     -2468.5601    
      4000   4000           849.77244     -600.53308      56850.816      57899.273      22085.316      35813.957      9303.8872      9170.8219      10036.087      1238.5324      603.50916      15951.962     -10490.843     -671.51146      119712.05      49.284757      49.284757      49.284757      1.0239984     -286.14122     -2449.8535      934.39551    
      5000   5000           839.30007      279.80301      58278.898      57784.281      21813.143      35971.139      9593.777       9159.4388      9874.5771      1234.242       638.74426      15960.918     -10490.559     -663.20974      121210.54      49.489546      49.489546      49.489546      1.0113389     -961.34233      1122.1483      678.60303    
      6000   6000           846.57502     -1851.2468      54520.508      57839.035      22002.216      35836.818      9252.8804      9073.228       10240.208      1202.538       601.52538      15952.637     -10486.198     -654.0127       122915.06      49.720449      49.720449      49.720449      0.99731422    -2035.1378     -1438.3052     -2080.2974    
      7000   7000           853.33399      738.73286      59133.216      57829.146      22177.88       35651.266      9239.9385      9213.0413      9876.6435      1236.7817      649.83941      15933.698     -10498.676     -664.13103      121042.4       49.466651      49.466651      49.466651      1.0127438      2343.6334     -368.36662      240.93181    
      8000   8000           842.92552      946.31997      59482.89       57793.276      21907.367      35885.909      9200.0918      9473.4867      9927.3295      1189.3191      656.92421      15939.111     -10500.353     -656.62569      122425.93      49.654408      49.654408      49.654408      1.0012988      3224.1256      450.79519     -835.96083    
      9000   9000           856.29696      1175.4114      60461.959      58379.333      22254.886      36124.446      9354.813       9213.3705      10089.82       1212.3247      766.87221      15982.455     -10495.209     -661.6764       121491.43      49.527744      49.527744      49.527744      1.0090007      1771.8466      2439.5133     -685.12573    
     10000   10000          848.07186     -582.03731      56707.395      57746.421      22041.119      35705.302      9181.2726      9133.4604      10089.168      1264.8068      567.23234      15967.587     -10498.225     -656.73704      122405.18      49.651602      49.651602      49.651602      1.0014686     -990.05989     -538.27008     -217.78196    
     11000   11000          855.68104     -845.16763      56669.147      58165.879      22238.879      35927.001      9431.2466      9215.9981      10068.768      1168.5077      582.40102      15954.424     -10494.344     -662.01181      121429.88      49.519379      49.519379      49.519379      1.0095122     -326.1974       225.55663     -2434.8621    
     12000   12000          845.73178      129.65743      57895.502      57665.26       21980.301      35684.959      9207.9608      9238.5289      9869.5944      1229.0465      679.44496      15957.652     -10497.268     -660.20826      121761.6       49.56443       49.56443       49.56443       1.0067619     -1469.9156      859.88977      998.99819    
     13000   13000          846.03184     -215.33517      57440.373      57824.64       21988.099      35836.54       9120.4477      9316.5556      10100.074      1207.5647      623.53365      15970.447     -10502.082     -656.97651      122360.56      49.645568      49.645568      49.645568      1.0018338      241.36859     -840.04732     -47.326779    
     14000   14000          836.36762      658.09442      58724.375      57571.107      21736.929      35834.178      9411.0811      9230.9029      9895.5722      1239.143       598.14982      15956.73      -10497.402     -668.99846      120161.73      49.346391      49.346391      49.346391      1.0201663      1506.7565     -667.91282      1135.4395    
     15000   15000          851.86809     -1326.803       55757.054      58126.776      22139.781      35986.995      9466.5428      9141.4043      9920.1313      1241.8244      760.31587      15957.752     -10500.976     -656.4115       122465.88      49.659808      49.659808      49.659808      1.0009722     -672.28011     -2495.1942     -812.93465    
     16000   16000          855.33147      1471.1174      61065.692      58467.784      22229.794      36237.99       9530.0587      9358.6172      9943.3325      1253.4133      674.80868      15969.902     -10492.142     -663.88188      121087.82      49.472838      49.472838      49.472838      1.0123639      699.20457      1799.3245      1914.8231    
     17000   17000          857.39554      1794.6672      61191.913      58022.547      22283.438      35739.109      9410.444       9119.6825      9870.1613      1207.3824      670.45903      15963.321     -10502.342     -663.86327      121091.22      49.473301      49.473301      49.473301      1.0123355      1271.9046      2475.4047      1636.6921    
     18000   18000          847.14066     -1666.3347      54716.263      57704.931      22016.917      35688.014      9003.4814      9331.3992      10045.487      1227.2937      643.17137      15936.709     -10499.528     -653.65965      122981.45      49.729398      49.729398      49.729398      0.99677586    -3414.5687     -1591.9035      7.4682827    
     19000   19000          838.68958      87.002372      57761.801      57605.89       21797.276      35808.614      9442.5326      9082.2685      9851.9119      1218.3368      781.34238      15935.304     -10503.082     -654.21758      122876.57      49.715258      49.715258      49.715258      0.99762666     682.18895      859.088       -1280.2698    
     20000   20000          864.40236      646.22083      59457.217      58305.247      22465.543      35839.704      9413.2775      9112.6051      9927.51        1244.1187      665.4428       15971.675     -10494.925     -657.66814      122231.88      49.628159      49.628159      49.628159      1.0028885     -495.34074      453.37517      1980.6281    
     21000   21000          851.25471     -107.78447      57647.895      57835.611      22123.84       35711.77       9019.7668      9416.4344      10054.243      1192.3818      582.16462      15940.404     -10493.624     -673.16755      119417.54      49.244308      49.244308      49.244308      1.0265238     -264.32474     -388.45261      329.42395    
     22000   22000          850.22859     -769.75343      56333.151      57699.365      22097.171      35602.194      9049.0169      9168.9534      10076.781      1168.4785      668.89357      15955.31      -10485.239     -660.54118      121700.23      49.556101      49.556101      49.556101      1.0072696     -830.43607     -551.49533     -927.32888    
     23000   23000          864.01465     -2580.2506      53564.346      58192.001      22455.467      35736.534      9162.7623      9158.8749      10015.605      1225.1059      721.74543      15945.55      -10493.11      -653.68444      122976.79      49.72877       49.72877       49.72877       0.99681366    -1074.858      -3478.6081     -3187.2856    
     24000   24000          859.22194      1223.3844      59948.174      57773.765      22330.906      35442.859      9252.1354      9188.5118      9660.8165      1200.4933      698.76769      15947.652     -10505.517     -659.6125       121871.57      49.579347      49.579347      49.579347      1.0058534      2108.3978      1418.25        143.50527    
     25000   25000          848.59521      500.68878      58967.382      58078.922      22054.72       36024.201      9488.3194      9329.1793      9895.9684      1231.215       595.35258      15972.975     -10488.809     -660.68884      121673.03      49.552409      49.552409      49.552409      1.0074948     -467.10768      257.06823      1712.1058    
     26000   26000          840.77335      577.92774      58924.686      57897.888      21851.433      36046.456      9589.903       9140.2153      9925.3054      1241.1027      688.46222      15961.119     -10499.652     -659.86646      121824.67      49.572986      49.572986      49.572986      1.0062407     -452.35243      2328.4103     -142.27464    
     27000   27000          857.86653      1086.902       60180.188      58245.872      22295.679      35950.193      9455.8014      9300.1021      9852.3778      1238.5174      643.93562      15967.882     -10508.423     -658.7645       122028.45      49.600612      49.600612      49.600612      1.0045603      1752.3605      1782.6308     -274.28531    
     28000   28000          851.77009      1142.3465      59866.066      57818.641      22137.234      35681.406      9332.2226      9216.6795      9785.1034      1250.1927      642.97951      15953.756     -10499.527     -654.11929      122895.03      49.717748      49.717748      49.717748      0.99747677    -668.67439      1838.9819      2256.7318    
     29000   29000          857.92528      121.51131      58636.207      58419.44       22297.206      36122.234      9435.107       9125.8442      10197.67       1282.2294      639.88841      15942.969     -10501.474     -657.18906      122320.99      49.640215      49.640215      49.640215      1.0021579      15.788494     -318.77498      667.52043    
     30000   30000          853.43709     -677.60655      56768.741      57968.231      22180.559      35787.672      9529.2329      9126.2493      9914.4007      1237.5342      554.04086      15929.721     -10503.507     -662.28988      121378.89      49.512447      49.512447      49.512447      1.0099362     -1882.1575     -640.78716      490.12497    
     31000   31000          848.33201     -133.62626      57420.635      57656.133      22047.88       35608.254      9242.2781      9274.3886      9819.1952      1164.8785      644.90252      15958.918     -10496.308     -665.22768      120842.86      49.439453      49.439453      49.439453      1.0144161     -505.15812      70.348144      33.931179    
     32000   32000          845.17243     -222.77457      57296.248      57694.825      21965.763      35729.062      9197.2992      9308.3919      9928.792       1242.6847      582.70423      15968.841     -10499.651     -655.26991      122679.24      49.68863       49.68863       49.68863       0.99923136    -1458.0939      562.34472      227.42546    
     33000   33000          860.9929      -602.25081      57167.994      58240.98       22376.932      35864.047      9297.8212      9390.5985      9902.1112      1202.2877      626.51018      15943.181     -10498.463     -658.03777      122163.22      49.618865      49.618865      49.618865      1.0034521      1147.9649     -2091.0306     -863.68669    
     34000   34000          845.29197     -1796.7235      54648.966      57835.604      21968.87       35866.734      9522.2323      9461.5837      9778.4598      1191.3781      456.41315      15950.142     -10493.475     -661.02156      121611.79      49.544094      49.544094      49.544094      1.0080021     -946.62695     -3405.4673     -1038.0764    
     35000   35000          849.5956       733.63646      59192.44       57901.426      22080.72       35820.706      9406.9568      9192.6881      9772.5376      1238.1365      714.66021      15984.57      -10488.843     -666.2192       120663.01      49.414915      49.414915      49.414915      1.0159281      1429.0028      750.55301      21.353582    
     36000   36000          849.05836      597.50202      59085.275      58016.993      22066.757      35950.236      9382.6632      9223.8276      9929.8165      1225.2678      739.30771      15945.883     -10496.53      -655.72339      122594.4       49.677173      49.677173      49.677173      0.99992289     269.92588      1328.414       194.16623    
     37000   37000          846.16758     -2123.8085      54140.762      57926.53       21991.627      35934.903      9310.0752      9225.9053      10010.604      1253.0409      700.84954      15931.093     -10496.665     -657.70101      122225.77      49.627332      49.627332      49.627332      1.0029386     -2279.5319     -848.568       -3243.3256    
     38000   38000          841.78914      1474.8073      60479.31       57829.094      21877.833      35951.261      9374.0396      9069.8135      10101.68       1250.5413      711.56777      15942.721     -10499.101     -652.41081      123216.86      49.761109      49.761109      49.761109      0.99487148     598.68105      528.01631      3297.7244    
     39000   39000          857.90039     -33.08028       57974.723      58032.861      22296.559      35736.302      9477.2418      9092.1957      9820.2683      1201.7507      696.76924      15946.821     -10498.745     -667.07402      120508.39      49.393798      49.393798      49.393798      1.0172316     -1568.6076      1677.5075     -208.14076    
     40000   40000          848.19337     -1037.2925      56059.398      57902.015      22044.277      35857.738      9481.1598      9274.4593      9780.6406      1171.7673      722.67232      15933.783     -10506.745     -659.98411      121802.95      49.57004       49.57004       49.57004       1.0064201     -730.88842     -605.32988     -1775.6593    
     41000   41000          855.4717      -485.79662      57016.074      57880.275      22233.438      35646.837      9269.1103      9328.9002      9768.8033      1240.9941      590.57529      15951.521     -10503.067     -659.03254      121978.82      49.593887      49.593887      49.593887      1.0049691      563.99779     -1438.249      -583.13863    
     42000   42000          833.71727      1584.6817      60191.769      57394.981      21668.047      35726.933      9338.8967      9381.6033      9745.4979      1237.1819      524.05655      15991.471     -10491.774     -664.27759      121015.69      49.463013      49.463013      49.463013      1.0129673      1639.7086      2944.466       169.87037    
     43000   43000          859.05798      1216.7624      60128.129      57999.921      22326.644      35673.276      9185.2048      9398.6522      9891.6249      1230.6458      504.32922      15958.052     -10495.233     -670.28396      119931.28      49.314824      49.314824      49.314824      1.0221265      777.62794      2098.8839      773.77544    
     44000   44000          846.83988     -562.26839      56887.007      57898.549      22009.1        35889.449      9472.6674      9115.3291      9943.1303      1246.4933      618.68233      15991.108     -10497.962     -651.66885      123357.15      49.779987      49.779987      49.779987      0.99374005     419.22782     -1460.3978     -645.63523    
     45000   45000          832.12704      654.73305      58478.084      57317.736      21626.718      35691.018      9183.4334      9282.7374      9842.6798      1274.0045      648.05535      15962.215     -10502.107     -661.51995      121520.16      49.531649      49.531649      49.531649      1.0087621      2216.6151     -839.26652      586.8506     
     46000   46000          848.08588      420.90743      58589.02       57850.063      22041.483      35808.58       9140.0954      9368.2146      10073.589      1231.7096      545.45563      15949.736     -10500.22      -667.78228      120380.57      49.376329      49.376329      49.376329      1.0183117     -361.3349       313.39984      1310.6574    
     47000   47000          861.11814     -552.04167      57242.348      58226.619      22380.187      35846.432      9349.2423      9426.9792      9740.0729      1229.386       662.14396      15940.384     -10501.777     -657.54334      122255.08      49.631298      49.631298      49.631298      1.0026982      257.04955     -767.87768     -1145.2969    
     48000   48000          848.64945     -1056.9947      55912.587      57809.345      22056.13       35753.215      9300.7716      9335.1067      9835.7002      1219.5885      619.80078      15937.323     -10495.076     -653.32317      123044.79      49.737934      49.737934      49.737934      0.99626274    -49.116143     -1540.1591     -1581.7089    
     49000   49000          837.95291     -201.8405       57471.884      57830.282      21778.13       36052.152      9558.6269      9640.2674      9575.2776      1209.2152      623.85681      15932.384     -10487.476     -660.2528       121753.38      49.563315      49.563315      49.563315      1.0068299      1323.6888     -173.1382      -1756.0721    
     50000   50000          849.48974     -115.74289      57604.316      57808.829      22077.969      35730.86       9329.1928      9198.3102      9963.1504      1225.3016      559.56983      15951.76      -10496.425     -663.50181      121157.19      49.482283      49.482283      49.482283      1.0117843      400.93943      538.49903     -1286.6671    
     51000   51000          847.52775     -423.46902      57240.03       57996.053      22026.977      35969.075      9333.4834      9263.2046      10057.445      1273.3182      569.94935      15968.014     -10496.34      -656.6804       122415.73      49.653029      49.653029      49.653029      1.0013822     -1415.3107     -397.38808      542.29169    
     52000   52000          860.76819      1997.2515      61469.043      57963.424      22371.092      35592.332      9170.2085      9423.3986      9660.7901      1235.001       624.59124      15973.381     -10495.039     -667.93667      120352.75      49.372525      49.372525      49.372525      1.0185471      979.16094      2123.2334      2889.3601    
     53000   53000          846.84516     -1987.17        54233.684      57791.447      22009.237      35782.21       9262.4702      9194.9274      10056.468      1241.8632      573.76758      15941.144     -10488.43      -654.82487      122762.61      49.699884      49.699884      49.699884      0.99855272    -2623.1543     -1349.2309     -1989.1248    
     54000   54000          842.26824     -2099.6389      53947.187      57681.733      21890.284      35791.448      9403.0208      9120.7088      9889.7441      1249.9808      687.37519      15934.557     -10493.938     -659.13452      121959.95      49.591329      49.591329      49.591329      1.0051246     -1383.9905     -3240.177      -1674.7494    
     55000   55000          851.50106     -191.23781      57604.183      57943.002      22130.243      35812.759      9588.6779      9084.4983      9829.0391      1211.1512      637.95926      15948.089     -10486.655     -661.71938      121483.54      49.526672      49.526672      49.526672      1.0090663     -996.3191      -825.05927      1247.6649    
     56000   56000          845.78147      155.67592      58049.755      57771.322      21981.592      35789.73       9465.6604      9228.3756      9753.6565      1174.8642      706.34576      15956.625     -10495.798     -655.49331      122637.43      49.682985      49.682985      49.682985      0.99957202     54.869911     -264.78034      676.93819    
     57000   57000          855.49599     -421.75608      57456.706      58212.912      22234.069      35978.843      9661.4978      9396.3791      9611.0872      1183.5833      700.04241      15924.466     -10498.213     -653.86501      122942.83      49.724192      49.724192      49.724192      0.99708901    -1570.938      -632.11703      937.78673    
     58000   58000          839.17361     -986.06443      55840.244      57619.81       21809.856      35809.955      9349.0163      9398.5622      9704.2048      1188.5398      736.86742      15933.7       -10500.936     -649.61822      123746.55      49.832311      49.832311      49.832311      0.99061302    -1144.4942     -525.69987     -1287.9992    
     59000   59000          850.89781      336.32461      58877.24       58277.466      22114.564      36162.902      9549.9946      9272.9951      9932.8968      1240.1688      731.05668      15940.33      -10504.54      -657.4126       122279.39      49.634588      49.634588      49.634588      1.0024988     -1754.837      -340.50256      3104.3134    
     60000   60000          852.23933      1104.2281      60062.005      58093.939      22149.43       35944.509      9326.7013      9264.2709      9987.8559      1201.4756      720.68587      15953.391     -10509.871     -657.78836      122209.54      49.625135      49.625135      49.625135      1.0030718      3253.1839      346.60664     -287.10633    
     61000   61000          847.61857     -198.00264      57260.192      57613.807      22029.338      35584.469      9340.7963      9120.103       9801.3168      1243.8922      601.97659      15967.704     -10491.32      -656.45947      122456.93      49.658599      49.658599      49.658599      1.0010453     -2007.3725      833.93961      579.42501    
     62000   62000          843.2109       232.23322      58180.202      57775.572      21914.784      35860.788      9403.3494      9251.5925      9963.4092      1258.8751      538.83219      15950.16      -10505.43      -672.87367      119469.7       49.251476      49.251476      49.251476      1.0260756      2386.3188     -669.48647     -1020.1327    
     63000   63000          859.42492     -1503.5754      55609.769      58320.663      22336.181      35984.482      9287.3472      9391.0141      9972.0041      1205.309       659.91529      15962.818     -10493.926     -650.24921      123626.47      49.816188      49.816188      49.816188      0.99157521    -220.00297     -873.94178     -3416.7816    
     64000   64000          842.97331      794.15644      58982.755      57565.234      21908.609      35656.625      9355.3863      9282.9728      9707.9236      1243.1582      604.77161      15952.226     -10489.814     -656.8159       122390.48      49.649614      49.649614      49.649614      1.0015889      2145.3239     -518.55941      755.70479    
     65000   65000          842.10988      421.34832      58523.355      57784.939      21886.169      35898.77       9403.93        9128.4812      10115.179      1222.7706      521.27022      16000.311     -10493.171     -668.9704       120166.77      49.347081      49.347081      49.347081      1.0201235     -451.06387      1438.2413      276.86757    
     66000   66000          832.53307      101.98776      57774.449      57593.525      21637.27       35956.255      9632.8522      9386.5014      9702.4251      1201.6065      569.40634      15959.478     -10496.015     -660.87483      121638.79      49.54776       49.54776       49.54776       1.0077784      2076.415       238.0098      -2008.4615    
     67000   67000          851.39772      2063.9942      61346.795      57690.644      22127.557      35563.087      9401.0761      9154.4684      9744.5135      1208.3264      603.04244      15952.159     -10500.499     -661.83774      121461.81      49.523719      49.523719      49.523719      1.0092468      3252.8903      316.50009      2622.5922    
     68000   68000          839.14423     -502.01147      56760.913      57651.067      21809.092      35841.975      9517.5569      9064.6089      9915.8358      1265.1732      642.97866      15939.531     -10503.709     -661.1742       121583.71      49.540281      49.540281      49.540281      1.0082349     -2103.5874     -81.403085      678.95606    
     69000   69000          849.76227      1520.6205      60682.447      58018.584      22085.052      35933.532      9326.5067      9344.7202      9942.7536      1247.0493      628.64823      15946.654     -10502.8       -669.23117      120119.95      49.34067       49.34067       49.34067       1.0205211      827.506        1598.7177      2135.6379    
     70000   70000          861.13235      218.8786       58803.776      58412.548      22380.557      36031.992      9234.6756      9425.2337      9949.7096      1252.285       732.04264      15935.5       -10497.455     -655.90458      122560.53      49.672598      49.672598      49.672598      1.0001992     -1470.1341     -101.73456      2228.5045    
     71000   71000          845.0276      -320.92467      57003.672      57568.719      21961.999      35606.719      9312.8868      9057.8138      9873.9878      1250.6839      692.43655      15925.551     -10506.641     -665.86474      120727.24      49.423681      49.423681      49.423681      1.0153876     -3365.6235      695.55992      1707.2895    
     72000   72000          853.93021     -279.76522      57814.348      58319.003      22193.375      36125.628      9271.4664      9439.4287      9938.1467      1245.4961      761.43492      15968.241     -10498.586     -649.92854      123687.46      49.824379      49.824379      49.824379      0.99108622     192.30899     -518.33821     -513.26643    
     73000   73000          846.62248     -407.54517      57361.238      58081.774      22003.45       36078.324      9422.6639      9622.829       9752.2683      1185.3477      669.18534      15927.71      -10501.681     -663.11316      121228.2       49.491948      49.491948      49.491948      1.0111917      501.98994     -865.38432     -859.24113    
     74000   74000          849.15121     -592.52013      56849.691      57909.728      22069.171      35840.557      9393.2338      9229.3375      9890.4501      1250.8856      626.77813      15953.238     -10503.365     -655.31351      122671.08      49.687528      49.687528      49.687528      0.99929785     289.27086     -922.64942     -1144.1818    
     75000   75000          851.79571      304.44725      58286.046      57747.929      22137.9        35610.028      9139.7986      9226.8884      9889.9194      1207.4977      684.734        15963.628     -10502.438     -663.2875       121196.33      49.487612      49.487612      49.487612      1.0114575      277.06089      730.30562     -94.024762    
     76000   76000          846.70004     -72.758904      58021.936      58152.275      22005.465      36146.809      9489.5084      9280.3181      9929.4762      1280.8841      725.18057      15944.513     -10503.071     -654.45461      122832.07      49.709255      49.709255      49.709255      0.9979881     -432.23191     -559.76511      773.7203     
     77000   77000          851.32611     -1049.4545      56190.804      58069.444      22125.696      35943.748      9351.3993      9241.1004      10002.896      1255.1465      640.95976      15949.843     -10497.596     -654.91844      122745.07      49.697517      49.697517      49.697517      0.9986954      453.10771     -1236.3014     -2365.1699    
     78000   78000          841.33548     -1504.5786      55141.463      57812.062      21866.042      35946.02       9372.0256      9390.4431      9868.8924      1191.9274      669.24915      15950.323     -10496.841     -660.50088      121707.66      49.557109      49.557109      49.557109      1.0072081     -678.05151     -3733.8449     -101.83946    
     79000   79000          852.01989     -1799.3869      54708.771      57938.096      22143.727      35794.37       9403.4304      9163.2808      9848.3741      1207.0416      718.1142       15952.022     -10497.893     -653.25074      123058.43      49.739772      49.739772      49.739772      0.99615231    -3156.7322      280.40053     -2521.8289    
     80000   80000          843.44057     -2033.9753      54163.613      57782.788      21920.753      35862.035      9427.0683      9305.2713      9912.1801      1209.8193      561.30076      15949.707     -10503.311     -658.87543      122007.91      49.597828      49.597828      49.597828      1.0047295     -2557.2611     -1656.2679     -1888.3969    
     81000   81000          836.17023     -1575.4074      54789.451      57562.887      21731.799      35831.088      9585.1745      9279.9585      9839.9278      1151.7343      522.66548      15955.173     -10503.546     -665.95032      120711.73      49.421564      49.421564      49.421564      1.0155181     -3756.6746     -1230.655       261.10726    
     82000   82000          840.20724     -1573.716       54672.217      57419.648      21836.72       35582.928      9262.559       9187.4654      9981.2774      1246.2083      482.64687      15923.33      -10500.559     -671.53215      119708.36      49.284251      49.284251      49.284251      1.0240299     -193.32877     -358.46495     -4169.3543    
     83000   83000          856.51618      265.6441       58362.039      57885.755      22260.584      35625.171      9294.0685      9100.7192      9818.5121      1244.4022      712.8659       15958.647     -10504.043     -653.88577      122938.92      49.723665      49.723665      49.723665      0.99712067    -2159.3982      878.88894      2077.4416    
     84000   84000          832.40563     -908.69836      55534.063      57130.685      21633.958      35496.727      9029.2903      9196.4541      10059.887      1212.1801      556.1265       15943.182     -10500.393     -667.24396      120477.69      49.389604      49.389604      49.389604      1.0174908     -1060.1636     -1104.5163     -561.41522    
     85000   85000          845.88468      740.81827      58838.961      57538.825      21984.275      35554.551      9236.7888      9184.7113      9881.4882      1203.2856      621.58874      15932.777     -10506.089     -668.02102      120337.55      49.370447      49.370447      49.370447      1.0186757     -74.686192      1553.064       744.077      
     86000   86000          840.7615      -371.00886      57170.972      57833.791      21851.125      35982.667      9280.9741      9390.7409      10008.739      1283.0493      574.59684      15943.26      -10498.694     -656.23063      122499.63      49.66437       49.66437       49.66437       1.0006964     -441.70021      511.76266     -1183.089     
     87000   87000          838.03412     -146.09707      57224.609      57483.907      21780.241      35703.666      9454.2268      9169.7919      9781.1322      1186.4968      664.05059      15948.293     -10500.325     -660.55481      121697.72      49.55576       49.55576       49.55576       1.0072904     -1312.5471      172.10872      702.1472     
     88000   88000          842.89976      1118.281       59960.742      57956.384      21906.697      36049.687      9661.6151      9254.568       9765.5442      1205.0775      700.549        15956.629     -10494.297     -654.09803      122899.03      49.718286      49.718286      49.718286      0.99744434     1436.8364      1454.9644      463.0423     
     89000   89000          839.64116      107.46901      57733.462      57542.534      21822.007      35720.526      9400.6402      9302.7735      9760.0428      1186.1273      635.71646      15934.028     -10498.802     -659.90224      121818.06      49.57209       49.57209       49.57209       1.0062953     -1169.2084      198.39531      1293.2201    
     90000   90000          844.94315     -238.53541      57563.529      57996.836      21959.804      36037.032      9459.3066      9426.2253      9728.7112      1213.4575      748.43451      15961.134     -10500.237     -645.39205      124556.87      49.940846      49.940846      49.940846      0.98416846     483.86476     -696.00464     -503.46636    
     91000   91000          845.852        1561.9478      60331.643      57547.569      21983.425      35564.143      9195.942       9202.0081      9766.0666      1163.8734      764.46541      15961.642     -10489.854     -657.73795      122218.91      49.626403      49.626403      49.626403      1.0029949      1408.9399      2399.3116      877.59187    
     92000   92000          847.55816     -1058.1528      56284.342      58191.206      22027.768      36163.438      9379.7628      9397.9466      9984.23        1242.4559      676.20623      15970.437     -10487.6       -650.57265      123565.01      49.807931      49.807931      49.807931      0.99206843    -535.35332     -782.28181     -1856.8233    
     93000   93000          839.44257     -366.17995      56997.582      57652.164      21816.846      35835.318      9378.036       9296.2116      9711.5105      1187.6925      792.58267      15961.969     -10492.684     -655.8389       122572.8       49.674256      49.674256      49.674256      1.000099      -94.256685     -712.7815      -291.50167    
     94000   94000          842.67095     -1466.7492      55196.74       57829.305      21900.751      35928.554      9408.664       9307.4454      9784.7758      1174.4775      817.23947      15928.816     -10492.864     -653.19665      123068.62      49.741145      49.741145      49.741145      0.99606982    -214.78454     -1473.4885     -2711.9745    
     95000   95000          846.4662      -1254.0975      55683.369      57931.498      21999.388      35932.11       9199.7973      9319.7046      9919.661       1199.2168      795.08644      15990.238     -10491.594     -653.99912      122917.62      49.720793      49.720793      49.720793      0.99729352    -504.91382     -1680.6888     -1576.6897    
     96000   96000          837.79772     -878.09701      55979.855      57552.366      21774.097      35778.268      9245.9354      9448.6344      9834.4347      1208.567       580.83184      15947.722     -10487.856     -654.66062      122793.41      49.70404       49.70404       49.70404       0.99830225    -1262.7246     -1642.5577      270.99127    
     97000   97000          861.1804       1501.2202      61016.47       58304.228      22381.805      35922.422      9193.1019      9412.509       9962.9563      1226.3733      656.48752      15966.213     -10495.219     -648.90798      123881.99      49.850486      49.850486      49.850486      0.98952996     2637.0016      432.55982      1434.0991    
     98000   98000          847.53465     -105.17148      57799.514      57988.325      22027.157      35961.168      9428.9194      9319.0472      9827.982       1246.4582      673.20162      15957.436     -10491.876     -653.03629      123098.85      49.745217      49.745217      49.745217      0.99582528    -2220.5475      1637.0602      267.9729     
     99000   99000          847.38296     -217.75907      57186.25       57574.13       22023.214      35550.915      9349.5287      9160.8506      9779.3036      1200.4643      591.08127      15963.123     -10493.436     -658.18263      122136.33      49.615224      49.615224      49.615224      1.003673      -1517.6423      647.85152      216.51361    
    100000   100000         846.58938     -1756.0614      54657.722      57837.708      22002.589      35835.119      9178.4025      9366.1542      9946.9897      1262.9668      644.76116      15937.592     -10501.747     -647.41342      124167.97      49.888816      49.888816      49.888816      0.98725088    -573.51532     -1967.8007     -2726.8682    
    101000   101000         845.89047      8.6795045      57641.091      57625.641      21984.425      35641.216      9270.2704      9255.1798      9927.8909      1172.4313      571.98207      15940.052     -10496.591     -658.65306      122049.1       49.603409      49.603409      49.603409      1.0043904      782.85782     -1165.3678      408.54851    
    102000   102000         841.71756      14.5558        57889.852      57863.588      21875.973      35987.615      9597.2725      9064.276       9866.1692      1188.4285      826.36787      15947.243     -10502.141     -649.74628      123722.16      49.829037      49.829037      49.829037      0.9908083     -1257.6016     -161.71145      1462.9805    
    103000   103000         848.35646      772.0434       59061.059      57691.167      22048.515      35642.652      9367.4405      9239.4215      9715.305       1213.9054      654.11463      15958.133     -10505.668     -660.72779      121665.86      49.551435      49.551435      49.551435      1.0075542      887.27259      2199.7947     -770.93709    
    104000   104000         843.32155     -771.05874      56275.773      57643.99       21917.66       35726.331      9380.3925      9240.9296      9831.9635      1240.883       593.94183      15941.938     -10503.717     -660.69292      121672.28      49.552307      49.552307      49.552307      1.007501      -1252.0791     -451.2739      -609.82316    
    105000   105000         849.87438      1473.5712      60261.622      57695.544      22087.966      35607.579      9190.9551      9215.5023      10006.597      1232.0409      498.12822      15965.72      -10501.365     -673.23782      119405.08      49.242595      49.242595      49.242595      1.0266309     -1705.6262      3696.4467      2429.8932    
    106000   106000         837.82737     -1765.2408      54193.042      57307.489      21774.868      35532.621      9394.7801      9183.6436      9797.354       1242.8072      463.7723       15961.149     -10510.885     -664.49269      120976.52      49.457675      49.457675      49.457675      1.0132953     -552.94397     -2316.4688     -2426.3095    
    107000   107000         844.60259      934.41948      59528.516      57871.705      21950.953      35920.751      9209.4089      9468.8115      9770.6844      1241.5235      758.37345      15967.127     -10495.177     -661.20506      121578.04      49.53951       49.53951       49.53951       1.008282       1856.8141      1493.3176     -546.87331    
    108000   108000         849.07122     -767.41276      56352.454      57705.647      22067.092      35638.555      9046.5364      9211.6657      10124.515      1201.4865      627.7089       15939.39      -10512.747     -664.86952      120907.95      49.448329      49.448329      49.448329      1.01387        363.10957     -3174.7458      509.39795    
    109000   109000         844.88444      2026.4731      61236.971      57650.419      21958.279      35692.14       9260.0005      9265.1459      9876.5897      1241.6828      603.49978      15951.774     -10506.553     -662.41606      121355.77      49.509303      49.509303      49.509303      1.0101286      1407.5501      784.0478       3887.8214    
    110000   110000         858.26979      1906.3896      61300.701      57949.823      22306.16       35643.664      9193.8336      9213.8769      9983.6011      1220.7205      584.55036      15952.224     -10505.143     -666.99151      120523.29      49.395835      49.395835      49.395835      1.0171058      770.89161      2310.2469      2638.0302    
    111000   111000         844.93135     -877.02589      56171.998      57720.306      21959.498      35760.808      9399.4822      9183.0809      10004.868      1242.4426      472.93224      15954.623     -10496.621     -664.08299      121051.15      49.467844      49.467844      49.467844      1.0126706     -87.767331     -612.48353     -1930.8268    
    112000   112000         851.91904     -2076.5444      54642.032      58314.763      22141.106      36173.657      9596.7422      9291.7744      10114.746      1208.8408      520.37042      15942.503     -10501.32      -662.85621      121275.19      49.498342      49.498342      49.498342      1.0107998     -1202.1465     -2505.0559     -2522.4309    
    113000   113000         854.96695     -773.02622      56359.873      57744.993      22220.32       35524.673      9093.024       9298.9892      9921.1393      1190.5384      562.27548      15948.08      -10489.373     -654.29546      122861.94      49.713285      49.713285      49.713285      0.99774542    -51.801774     -1547.1343     -720.14254    
    114000   114000         836.51912     -41.42899       57454.387      57527.349      21740.867      35786.482      9224.8608      9336.9483      9931.7207      1235.7824      555.07305      15998.347     -10496.25      -665.69623      120757.8       49.427851      49.427851      49.427851      1.0151306     -172.59341     -798.95481      847.26125    
    115000   115000         844.16373     -1860.5502      54720.225      58077.308      21939.548      36137.761      9453.1789      9228.2287      10007.843      1261.8024      736.45152      15949.556     -10499.3       -649.75025      123721.4       49.828936      49.828936      49.828936      0.99081436    -569.5481      -1711.846      -3300.2566    
    116000   116000         835.11267      237.94105      58258.623      57834.701      21704.314      36130.388      9457.7172      9578.1203      9695.298       1240.8872      681.28052      15964.258     -10487.173     -658.03758      122163.26      49.61887       49.61887       49.61887       1.0034518      838.67222     -153.19506      28.345999    
    117000   117000         841.9072      -778.5588       55921.571      57285.26       21880.901      35404.359      9164.2064      9262.7984      9942.298       1136.6579      436.00566      15966.299     -10503.907     -669.33447      120101.41      49.338132      49.338132      49.338132      1.0206786     -1920.5723     -775.09199      359.9879     
    118000   118000         848.66943      195.35212      57848.555      57501.327      22056.649      35444.678      9135.1608      9244.4733      9773.5493      1232.4109      619.24139      15945.27      -10505.429     -659.58478      121876.69      49.580042      49.580042      49.580042      1.0058112      310.55933      730.87245     -455.37541    
    119000   119000         841.79303      1410.2614      60516.331      57993.497      21877.934      36115.563      9538.9753      9419.8661      9679.4069      1233.0445      807.73376      15941.469     -10504.933     -655.35725      122662.89      49.686423      49.686423      49.686423      0.99936455     1555.3714      1293.22        1382.1927    
    120000   120000         843.24133      1456.9861      59947.9        57382.517      21915.575      35466.942      9226.074       9134.4288      9777.0004      1220.0825      657.9514       15955.156     -10503.751     -665.84071      120731.6       49.424276      49.424276      49.424276      1.0153509      1912.4673     -66.398672      2524.8897    
    121000   121000         842.98813     -173.30201      57226.661      57532.047      21908.994      35623.053      9217.3059      9233.1309      9918.8193      1258.4399      550.66522      15948.121     -10503.429     -665.30736      120828.38      49.43748       49.43748       49.43748       1.0145376      105.36619      185.21574     -810.48794    
    122000   122000         845.01876      2079.1864      61502.151      57849.512      21961.77       35887.743      9582.2508      9295.8237      9724.9589      1189.3946      652.18398      15941.905     -10498.774     -667.35045      120458.47      49.386977      49.386977      49.386977      1.0176532      1454.0698      1799.9929      2983.4964    
    123000   123000         841.54063      1164.7872      59678.812      57626.134      21871.374      35754.76       9394.2191      9276.1992      9743.2183      1254.6845      609.97008      15980.652     -10504.184     -665.26237      120836.56      49.438594      49.438594      49.438594      1.014469       2835.1472     -1067.7702      1726.9846    
    124000   124000         838.53273     -151.22864      57204.002      57471.542      21793.2        35678.342      9240.027       9378.5266      9777.8146      1214.6154      621.12629      15952.609     -10506.377     -662.69398      121304.88      49.502381      49.502381      49.502381      1.0105524     -1077.9808     -151.43821      775.73309    
    125000   125000         842.84962     -1418.6849      55077.937      57593.651      21905.394      35688.257      9351.7591      9384.0892      9683.1112      1260.2501      552.33241      15953.291     -10496.576     -661.13764      121590.43      49.541194      49.541194      49.541194      1.0081792     -2404.0544     -1632.0893     -219.91096    
    126000   126000         839.3075      -504.36869      56683.078      57574.001      21813.336      35760.666      9462.8942      9254.7476      9733.5338      1250.2997      576.97923      15973.906     -10491.695     -663.70471      121120.15      49.47724       49.47724       49.47724       1.0120937     -1669.7079      502.80927     -346.20749    
    127000   127000         839.86277     -2329.1841      53680.976      57886.986      21827.767      36059.219      9339.0973      9176.8047      10097.098      1224.1107      790.71213      15932.04      -10500.644     -649.23314      123819.95      49.842162      49.842162      49.842162      0.9900258     -3715.5901     -174.41875     -3097.5436    
    128000   128000         837.36599     -557.51361      56466.007      57448.92       21762.877      35686.043      9385.3313      9325.171       9755.0529      1181.2368      603.90654      15934.458     -10499.113     -664.97904      120888.04      49.445615      49.445615      49.445615      1.014037       670.50444     -1068.0878     -1274.9574    
    129000   129000         835.16764     -542.24176      56093.468      57052.405      21705.742      35346.663      9086.0705      9327.452       9697.0177      1204.3299      588.85093      15939.969     -10497.027     -662.93315      121261.11      49.496427      49.496427      49.496427      1.0109172     -416.36724     -954.44373     -255.9143     
    130000   130000         840.74875     -331.03215      57035.358      57621.648      21850.793      35770.855      9400.6496      9179.2851      10019.212      1244.4167      484.90928      15951.548     -10509.166     -661.95027      121441.17      49.520913      49.520913      49.520913      1.0094184     -505.63109     -758.25179      270.78645    
    131000   131000         858.87735      3185.6331      63447.596      57876.76       22321.95       35554.811      9229.7902      9330.5487      9750.3487      1191.883       601.94102      15952.892     -10502.593     -670.41324      119908.15      49.311654      49.311654      49.311654      1.0223237      3049.2595      4278.9103      2228.7295    
    132000   132000         854.87344     -1642.562       54909.273      57830.804      22217.89       35612.915      9434.958       9163.904       9914.1324      1166.1749      470.70466      15957.006     -10493.965     -659.14107      121958.74      49.591165      49.591165      49.591165      1.0051346     -2291.3299      96.861237     -2733.2173    
    133000   133000         839.65472     -316.20123      56920.741      57480.999      21822.36       35658.639      9320.8919      9176.1284      9868.834       1231.2404      601.41682      15957.243     -10497.115     -661.67109      121492.41      49.527877      49.527877      49.527877      1.0089926     -488.87452     -344.73831     -114.99085    
    134000   134000         859.64781      1575.8283      61099.657      58293.431      22341.974      35951.457      9424.6572      9210.3676      9981.1052      1239.8137      654.73028      15942.902     -10502.119     -658.3448       122106.25      49.61115       49.61115       49.61115       1.0039203      1723.709      -109.25175      3113.0275    
    135000   135000         844.31685      76.832655      57657.962      57521.341      21943.527      35577.814      9149.4449      9367.0509      9854.9154      1185.5798      572.47919      15950.174     -10501.831     -659.32176      121925.31      49.586634      49.586634      49.586634      1.0054101      526.15513      148.69644     -444.35361    
    136000   136000         852.58776      1415.9409      60467.468      57928.975      22158.485      35770.489      9308.4055      9166.2164      9956.0488      1192.001       685.43401      15953.313     -10490.93      -653.9377       122929.16      49.722349      49.722349      49.722349      0.99719985     1172.9352      1011.5344      2063.3533    
    137000   137000         844.37404     -704.64215      56576.725      57847.672      21945.013      35902.659      9220.7325      9166.0106      10019.835      1195.9213      816.9901       15982.954     -10499.784     -649.99257      123675.28      49.822743      49.822743      49.822743      0.99118387    -601.29545     -2041.377       528.74597    
    138000   138000         860.59586     -2001.933       54823.227      58423.542      22366.614      36056.928      9174.7223      9254.2352      10163.127      1249.7902      758.29073      15955.478     -10498.716     -651.89294      123314.75      49.774282      49.774282      49.774282      0.99408177    -2403.1086     -1962.5937     -1640.0967    
    139000   139000         841.25068     -207.35996      57329.102      57710.293      21863.838      35846.455      9266.9694      9229.4235      9888.3027      1223.4802      789.23768      15942.312     -10493.271     -637.74811      126049.79      50.139581      50.139581      50.139581      0.9725121      306.11611      589.57879     -1517.7748    
    140000   140000         828.29431     -1563.3795      54494.084      57346.925      21527.106      35819.818      9226.9445      9134.5406      10050.486      1225.8184      705.22548      15968.475     -10491.672     -642.47178      125123.03      50.016398      50.016398      50.016398      0.97971529    -1581.0264     -3082.4467     -26.665361    
    141000   141000         848.97661     -1869.5797      54551.042      57949.468      22064.633      35884.836      9403.7547      9192.8201      9963.4774      1206.8421      666.89323      15947.593     -10496.545     -644.96078      124640.16      49.951975      49.951975      49.951975      0.98351081    -1089.2295     -2867.759      -1651.7507    
    142000   142000         836.10135      188.99685      57725.913      57387.049      21730.009      35657.04       9193.5444      9156.7109      9949.5305      1210.3035      702.04309      15946.263     -10501.355     -653.87653      122940.66      49.7239        49.7239        49.7239        0.99710658     324.7846      -297.139        539.34495    
    143000   143000         851.85921      1232.356       60250.236      58026.676      22139.551      35887.125      9329.3386      9062.92        9995.1222      1250.8828      777.07279      15969.782     -10497.993     -649.76233      123719.1       49.828627      49.828627      49.828627      0.99083277     2432.6409      171.29944      1093.1277    
    144000   144000         844.15848      668.36831      59091.361      57872.183      21939.411      35932.771      9320.3792      9277.8582      9884.9589      1210.6147      769.20463      15965.126     -10495.37      -642.71109      125076.44      50.010189      50.010189      50.010189      0.98008023     651.34191      1898.2052     -544.44215    
    145000   145000         835.55235     -1397.5857      54874.049      57388.929      21715.741      35673.189      9145.2682      9147.449       10066.726      1209.8394      660.02589      15945.995     -10502.116     -651.52089      123385.17      49.783755      49.783755      49.783755      0.99351442    -1307.0864     -2202.905      -682.7657     
    146000   146000         832.66532      587.84689      58746.791      57695.934      21640.708      36055.227      9384.5072      9389.584       9919.2344      1209.9466      700.91291      15951.992     -10500.951     -655.82483      122575.43      49.674612      49.674612      49.674612      1.0000776      239.48369      1093.4297      430.62728    
    147000   147000         841.08215     -698.68098      56197.107      57449.661      21859.458      35590.203      9408.7015      9263.0528      9651.7869      1184.122       604.74524      15967.506     -10489.711     -653.95757      122925.43      49.721846      49.721846      49.721846      0.99723015     343.92008     -2185.7116     -254.25143    
    148000   148000         847.10651      674.34771      58932.059      57710.514      22016.029      35694.484      8939.107       9316.0029      9898.9269      1205.2213      856.79407      15965.828     -10487.396     -647.20442      124208.07      49.894186      49.894186      49.894186      0.98693217     711.39523      1150.999       160.64887    
    149000   149000         848.16891     -459.18957      56922.987      57756.517      22043.641      35712.876      9194.7843      9091.3093      9955.9584      1233.1641      803.26424      15930.17      -10495.774     -645.85937      124466.74      49.928798      49.928798      49.928798      0.98488108     1346.1965     -1969.0408     -754.72445    
    150000   150000         837.30822     -335.59705      56844.29       57447.243      21761.375      35685.868      9458.2035      9129.2402      9813.4626      1214.2034      598.78692      15968.426     -10496.455     -652.53189      123194         49.758031      49.758031      49.758031      0.99505612    -624.1823       1161.3542     -1543.9631    
    151000   151000         838.62349      25.187305      57297.33       57252.128      21795.559      35456.569      9262.3912      9154.9535      9529.7659      1183.0461      872.60798      15948.998     -10495.193     -653.26544      123055.67      49.739399      49.739399      49.739399      0.99617471    -1258.9741     -70.548211      1405.0842    
    152000   152000         840.58851      179.78475      57937.299      57616.705      21846.629      35770.077      9265.0572      9160.5529      9929.1311      1247.3071      725.43482      15945.442     -10502.849     -657.45283      122271.91      49.633576      49.633576      49.633576      1.0025601     -1540.2998      289.4226       1790.2314    
    153000   153000         845.79471      1898.8483      61152.337      57753.042      21981.936      35771.106      9476.9929      9270.5754      9626.7785      1197.8589      723.84822      15965.734     -10490.682     -654.8904       122750.33      49.698226      49.698226      49.698226      0.99865264     2510.1958      1310.9119      1875.4371    
    154000   154000         841.47732      1647.0301      60580.2        57612.686      21869.729      35742.957      9362.6482      9174.4793      9801.8427      1250.8325      693.06553      15964.134     -10504.045     -650.69259      123542.23      49.80487       49.80487       49.80487       0.99225134     1827.845       2575.7177      537.52753    
    155000   155000         851.29968     -189.72305      57770.814      58111.814      22125.009      35986.805      9453.6071      9057.7103      10038.683      1219.0508      778.46757      15938.238     -10498.952     -652.27857      123241.84      49.764471      49.764471      49.764471      0.99466983    -306.71686      234.59699     -497.04927    
    156000   156000         836.16294     -683.05614      56582.098      57809.183      21731.609      36077.573      9319.3668      9237.5798      10109.952      1246.3417      690.76351      15971.413     -10497.843     -652.60278      123180.62      49.756229      49.756229      49.756229      0.99516422    -668.94799     -827.25673     -552.9637     
    157000   157000         834.56158     -178.67933      56790.949      57112.866      21689.991      35422.875      8990.5762      9185.5485      9862.3601      1195.9677      707.62343      15979.069     -10498.27      -650.72572      123535.94      49.804025      49.804025      49.804025      0.99230186    -725.47496     -252.08389      441.52086    
    158000   158000         836.65611      1328.9234      59893.537      57513.39       21744.427      35768.963      9290.6156      9200.6199      9818.5761      1240.1108      759.37777      15954.758     -10495.095     -654.58072      122808.4       49.706062      49.706062      49.706062      0.99818041     1631.0104      536.17697      1819.5828    
    159000   159000         853.17276     -1025.6239      55853.271      57680.865      22173.689      35507.175      9172.2696      9260.9436      9816.7775      1188.4094      621.65097      15949.281     -10502.157     -657.92391      122184.36      49.621727      49.621727      49.621727      1.0032785     -1228.3536     -399.75587     -1448.7623    
    160000   160000         849.12613      518.16998      58629.003      57706.14       22068.519      35637.621      9233.1276      9145.6176      9888.9103      1185.9204      719.85643      15960.93      -10496.741     -658.267        122120.68      49.613104      49.613104      49.613104      1.0038017     -219.48673      355.07272      1418.924     
    161000   161000         848.94269     -388.71126      56857.203      57548.957      22063.751      35485.206      9105.2489      9248.0156      9865.8499      1183.4462      612.55791      15973.715     -10503.627     -658.78298      122025.03      49.600148      49.600148      49.600148      1.0045885      2746.1395     -1443.0118     -2469.2615    
    162000   162000         855.38191      1108.5163      59893.483      57927          22231.105      35695.895      9357.1893      9434.8407      9588.5402      1152.9581      680.03574      15973.913     -10491.582     -660.87447      121638.85      49.547769      49.547769      49.547769      1.0077778      1566.9497      1992.3475     -233.74827    
    163000   163000         843.99754      1742.891       60319.128      57207.794      21935.228      35272.566      9294.8506      9090.8143      9565.0149      1183.4496      699.09485      15943.421     -10504.079     -656.73601      122405.37      49.651627      49.651627      49.651627      1.001467       2522.5178      2540.4859      165.66937    
    164000   164000         839.53311      2432.9704      61125.678      56803.737      21819.199      34984.538      8990.5743      9245.7435      9369.7565      1200.1141      719.99293      15962.676     -10504.319     -659.97149      121805.28      49.570356      49.570356      49.570356      1.0064009      2249.5332      3686.2886      1363.0895    
    165000   165000         841.5341       346.09457      58141.42       57533.336      21871.204      35662.131      9171.1662      9470.6577      9743.0426      1202.5712      617.47111      15952.176     -10494.953     -667.26502      120473.89      49.389085      49.389085      49.389085      1.0175229     -336.19573     -332.23852      1706.718     
    166000   166000         850.86567      394.99991      58776.066      58074.841      22113.729      35961.113      9460.6025      9243.9353      9913.7721      1264.0057      625.23189      15958.43      -10504.865     -660.3998       121726.28      49.559637      49.559637      49.559637      1.007054      -1571.5971      2291.8889      464.70794    
    167000   167000         837.68266      1849.7699      60494.961      57198.713      21771.107      35427.606      9080.0704      9373.2351      9579.5273      1174.5957      743.53816      15970.031     -10493.392     -657.90773      122187.37      49.622134      49.622134      49.622134      1.0032538      1893.6726      1293.0668      2362.5703    
    168000   168000         843.68403      10.182639      57575.638      57557.327      21927.08       35630.247      9465.3726      9167.8045      9564.742       1191.4722      742.52013      15985.328     -10486.992     -651.96837      123300.48      49.772363      49.772363      49.772363      0.99419679    -624.90933     -536.74818      1192.2054    
    169000   169000         849.50017      752.53146      59236.39       57914.927      22078.24       35836.687      9279.996       9283.5483      9882.982       1220.9528      671.23439      15983.957     -10485.984     -667.63192      120407.68      49.380036      49.380036      49.380036      1.0180824      515.06101      619.8434       1122.69      
    170000   170000         847.05644      842.9139       59199.109      57694.886      22014.728      35680.158      9271.9453      9213.2094      9924.4054      1211.7241      585.64713      15966.992     -10493.765     -656.95905      122363.81      49.646008      49.646008      49.646008      1.0018072      2322.0627     -1185.1484      1391.8274    
    171000   171000         839.75396     -1561.9301      54805.213      57561.232      21824.939      35736.293      9214.8403      9332.8697      9912.3218      1219.1495      601.21003      15951.765     -10495.863     -664.4259       120988.68      49.459332      49.459332      49.459332      1.0131935     -1253.3676     -129.09528     -3303.3273    
    172000   172000         847.6849      -516.2353       56525.538      57440.77       22031.062      35409.708      9180.9096      9172.9126      9828.1405      1166.6995      595.75295      15966.392     -10501.099     -661.2773       121564.75      49.537706      49.537706      49.537706      1.0083921     -440.39533     -1821.8566      713.54602    
    173000   173000         845.38015     -608.10469      56573.157      57634.969      21971.162      35663.807      9296.7845      9147.372       9911.9894      1243.5175      551.84738      15996.434     -10484.137     -671.42561      119727.36      49.286858      49.286858      49.286858      1.0238674     -641.89232     -287.44729     -894.97445    
    174000   174000         834.34897      579.8557       58265.086      57253.984      21684.465      35569.519      9405.2079      9235.982       9683.7649      1220.923       551.16142      15963.469     -10490.99      -672.34458      119563.71      49.264392      49.264392      49.264392      1.0252688     -723.10015      1899.3648      563.30247    
[...]
   1955000   1955000        766.19883     -136.94079      52901.203      53134.338      19913.265      33221.073      8502.7664      8883.6746      9121.3095      1132.2107      127.5426       15956.88      -10503.311     -688.64147      116734.2       48.872667      48.872667      48.872667      1.0501202     -267.17768      1019.6054     -1163.2501    
   1956000   1956000        761.79692     -1684.1855      50477.047      53340.418      19798.86       33541.558      8544.0382      8788.8213      9346.811       1127.0525      294.53616      15943.872     -10503.573     -689.57175      116576.72      48.85068       48.85068       48.85068       1.0515388     -1104.3272     -2214.5698     -1733.6594    
   1957000   1957000        782.08841     -1066.2469      52086.696      53931.373      20326.23       33605.143      8571.5783      8845.363       9400.8147      1072.6309      288.35723      15938.099     -10511.699     -677.64858      118627.88      49.135524      49.135524      49.135524      1.0333569     -2036.9519     -514.14587     -647.64291    
   1958000   1958000        780.26782      91.046794      53678.754      53522.422      20278.913      33243.509      8367.8584      8805.7514      9181.5076      1118.8231      339.46201      15937.151     -10507.044     -682.78621      117735.26      49.011973      49.011973      49.011973      1.0411914     -578.25933     -428.91437      1280.3141    
   1959000   1959000        765.38271     -393.28383      52579.434      53255.513      19892.054      33363.459      8759.0905      8711.4315      9078.3992      1057.0285      305.97225      15944.968     -10493.431     -681.98684      117873.26      49.031115      49.031115      49.031115      1.0399724      1034.0238     -977.8019      -1236.0733    
   1960000   1960000        774.55412      238.21057      54224.77       53809.005      20130.416      33678.589      8787.0133      8776.0809      9229.6566      1110.4626      353.12273      15931.029     -10508.776     -671.7068       119677.23      49.279979      49.279979      49.279979      1.0242962      71.553824      1706.3582     -1063.2803    
   1961000   1961000        757.96236      826.23754      54274.176      52857.5        19699.201      33158.299      8341.2981      8860.2442      9106.4349      1043.4987      361.789        15941.041     -10496.007     -683.75694      117568.11      48.988768      48.988768      48.988768      1.0426717      2394.913      -419.99958      503.79923    
   1962000   1962000        769.09565     -1496.3333      51130.03       53692.88       19988.552      33704.328      8663.4277      8877.2605      9302.9262      1125.5923      304.44386      15938.582     -10507.904     -684.49814      117440.81      48.971079      48.971079      48.971079      1.043802      -2173.0802     -1383.2168     -932.70285    
   1963000   1963000        771.33887      172.48273      54008.055      53710.487      20046.853      33663.634      8601.15        8796.8808      9353.6632      1119.3267      334.55831      15959.936     -10501.882     -679.55765      118294.62      49.089468      49.089468      49.089468      1.0362681      63.03025       1319.5553     -865.13739    
   1964000   1964000        765.58518      1474.8146      55784.815      53266.067      19897.316      33368.751      8610.0199      8690.7625      9271.455       1081.1573      309.02152      15916.267     -10509.932     -686.46735      117103.91      48.924208      48.924208      48.924208      1.0468048      2485.576      -641.36273      2580.2306    
   1965000   1965000        783.57863      1160.5535      55725.977      53754.123      20364.96       33389.163      8649.751       8739.4598      9127.6831      1106.5321      333.07082      15937.792     -10505.126     -690.01356      116502.08      48.840251      48.840251      48.840251      1.0522125      1163.8715     -515.97378      2833.7627    
   1966000   1966000        779.84807      86.289748      53693.439      53545.783      20268.004      33277.779      8477.0841      8717.488       9289.9265      1084.9594      264.77035      15948.335     -10504.784     -685.13603      117331.46      48.955876      48.955876      48.955876      1.0447747      3132.9181     -615.04059     -2259.0083    
   1967000   1967000        768.07519     -360.79849      52633.408      53257.12       19962.031      33295.09       8485.0698      8590.9178      9324.3581      1146.994       322.77888      15935.567     -10510.596     -678.18443      118534.15      49.122579      49.122579      49.122579      1.0341741     -70.265239      305.32988     -1317.4601    
   1968000   1968000        783.7755      -243.7654       53257.276      53672.545      20370.077      33302.468      8478.1361      8898.3444      9159.4218      1128.0082      197.8972       15947.401     -10506.74      -688.19249      116810.36      48.883293      48.883293      48.883293      1.0494355      67.84732       515.23597     -1314.3795    
   1969000   1969000        772.60214     -1240.2983      51269.332      53394.627      20079.685      33314.942      8576.1857      8596.56        9316.7607      1117.3662      262.63467      15950.159     -10504.724     -684.18615      117494.36      48.978522      48.978522      48.978522      1.0433262     -61.78575      -2458.841      -1200.2683    
   1970000   1970000        774.48987     -1671.6991      50613.815      53502.817      20128.746      33374.07       8530.7414      8629.9999      9339.594       1120.4073      318.77685      15944.458     -10509.907     -678.38698      118498.76      49.11769       49.11769       49.11769       1.0344829     -3920.4856     -1056.4778     -38.133893    
   1971000   1971000        773.56354      455.06313      54395.359      53610.204      20104.671      33505.533      8763.1773      8666.931       9111.1244      1131.526       399.12737      15940.221     -10506.574     -679.49027      118306.35      49.091091      49.091091      49.091091      1.0361654     -1235.8409      1725.2037      875.82655    
   1972000   1972000        758.14718     -604.3244       51868.812      52915.215      19704.005      33211.211      8622.6906      8604.7423      9116.9172      1086.4934      339.80775      15951.119     -10510.559     -677.0773       118727.97      49.149339      49.149339      49.149339      1.0324858     -1137.3658     -628.49525     -47.112118    
   1973000   1973000        773.04047      1084.4297      55555.12       53699.831      20091.077      33608.754      8736.7611      8807.8379      9138.6353      1122.8565      366.88246      15945.156     -10509.375     -685.26266      117309.78      48.952861      48.952861      48.952861      1.0449678      893.84315      726.81573      1632.6302    
   1974000   1974000        777.45096      654.11954      54421.46       53287.471      20205.704      33081.767      8407.248       8760.3887      9092.713       1066.2007      309.74174      15948.549     -10503.074     -676.26231      118871.05      49.169075      49.169075      49.169075      1.031243       2156.8095     -1163.3214      968.87059    
   1975000   1975000        773.63873      1175.3201      55976.796      53973.177      20106.625      33866.552      8742.3338      8988.0953      9208.1423      1110.8727      398.89643      15917.707     -10499.495     -687.7144       116891.56      48.894618      48.894618      48.894618      1.0487065      2948.8983      291.6375       285.42442    
   1976000   1976000        779.42908     -2403.2124      49173.622      53277.083      20257.114      33019.968      8426.2494      8643.8893      9262.257       1076.7396      164.41853      15945.961     -10499.547     -686.60838      117079.86      48.920858      48.920858      48.920858      1.0470199     -1537.6412     -2889.4321     -2782.5638    
   1977000   1977000        783.18968      78.525785      54137.3        54000.509      20354.852      33645.657      8573.0418      8823.1927      9347.648       1095.279       366.19085      15945.164     -10504.859     -673.00986      119445.52      49.248154      49.248154      49.248154      1.0262833     -81.717416     -188.64784      505.94261    
   1978000   1978000        773.54083     -702.28325      52335.312      53547.91       20104.081      33443.83       8416.9921      8736.9386      9282.004       1071.2208      521.25395      15922.016     -10506.596     -678.98857      118393.76      49.103179      49.103179      49.103179      1.0354003     -421.6874      -1125.6258     -559.53658    
   1979000   1979000        768.21218     -56.417363      53183.777      53280.95       19965.591      33315.359      8465.607       8897.9128      9175.6266      1092.2325      250.99039      15945.374     -10512.384     -680.66476      118102.21      49.062839      49.062839      49.062839      1.0379564      2380.2595     -1721.0809     -828.43074    
   1980000   1980000        788.46988      318.71833      54497.483      53947.577      20492.082      33455.495      8491.9843      8755.5733      9297.5498      1137.7286      349.31859      15931.085     -10507.745     -679.49508      118305.51      49.090975      49.090975      49.090975      1.0361727     -201.8669      -288.23764      1446.2595    
   1981000   1981000        773.96928      1256.4616      55635.62       53445.418      20115.216      33330.202      8571.5111      8776.4395      9036.5627      1079.5005      441.74698      15923.222     -10498.781     -672.56181      119525.09      49.259088      49.259088      49.259088      1.0256001      1196.0298      1072.0691      1501.286     
   1982000   1982000        769.3419       1369.3918      55823.956      53469.653      19994.952      33474.702      8648.2209      8753.4208      9110.7166      1111.3991      393.26423      15954.549     -10496.869     -681.91874      117885.03      49.032747      49.032747      49.032747      1.0398686      2363.5139      593.1941       1151.4673    
   1983000   1983000        779.42075      207.7591       54202.73       53840.754      20256.898      33583.856      8679.0748      8753.3425      9173.3413      1082.9531      441.76372      15957.9       -10504.519     -672.89569      119465.79      49.250939      49.250939      49.250939      1.0261092      994.42592     -1410.6243      1039.4757    
   1984000   1984000        773.9005       384.97478      54150.591      53485.978      20113.428      33372.55       8653.9276      8642.5008      9114.5904      1051.5613      460.37413      15952.893     -10503.297     -679.09524      118375.17      49.100608      49.100608      49.100608      1.035563       866.58587     -5.4915932      293.83006    
   1985000   1985000        770.38088     -130.18679      53336.907      53560.859      20021.955      33538.904      8652.9905      8789.3329      9216.9172      1133.3511      292.66287      15949.487     -10495.838     -681.52249      117953.57      49.042248      49.042248      49.042248      1.0392643     -28.210461     -882.13556      519.78564    
   1986000   1986000        766.65362      3148.5288      58529.762      53156.603      19925.084      33231.518      8679.995       8686.8727      9011.2255      1086.6082      315.78604      15955.731     -10504.701     -686.98169      117016.24      48.911995      48.911995      48.911995      1.0475892      3032.1393      3235.7617      3177.6853    
   1987000   1987000        764.03109      1930.4232      56748.36       53427.23       19856.926      33570.304      8811.1915      8772.6529      8985.5769      1113.9116      446.41758      15939         -10498.446     -681.4497       117966.17      49.043994      49.043994      49.043994      1.0391533      3791.7153      1404.7597      594.79451    
   1988000   1988000        756.24321      888.76114      54891.578      53369.329      19654.521      33714.808      8700.8094      8920.7681      9186.7746      1133.5889      323.9447       15947.829     -10498.907     -684.48905      117442.37      48.971296      48.971296      48.971296      1.0437881      1256.4045     -1181.7928      2591.6717    
   1989000   1989000        761.88539      1577.167       55897.42       53175.759      19801.16       33374.599      8454.3703      8704.8947      9261.5926      1136.7126      377.67956      15932.865     -10493.515     -679.37707      118326.06      49.093817      49.093817      49.093817      1.0359927      816.31887      2635.016       1280.1663    
   1990000   1990000        776.15688      113.73258      53607.042      53411.451      20172.071      33239.38       8465.3089      8769.6738      9021.7884      1139.6554      406.33713      15931.464     -10494.848     -681.7141       117920.42      49.037653      49.037653      49.037653      1.0395565     -1420.0384     -1027.5932      2788.8293    
   1991000   1991000        771.65904      1405.6406      55952.854      53528.339      20055.174      33473.165      8532.6645      8677.0307      9312.3854      1116.6144      354.93655      15976.302     -10496.769     -679.69878      118270.06      49.086071      49.086071      49.086071      1.0364833      1514.3109      1984.5492      718.06162    
   1992000   1992000        761.18519      828.59698      54714.225      53284.238      19782.962      33501.277      8712.3312      8787.4222      9075.0222      1086.2664      384.69611      15951.121     -10495.582     -679.32658      118334.86      49.095034      49.095034      49.095034      1.0359158      239.63779      2009.5873      236.56584    
   1993000   1993000        785.35679     -765.25313      52919.381      54231.358      20411.174      33820.185      8718.3212      8935.4542      9333.7126      1122.0239      267.04896      15946.515     -10502.891     -683.82654      117556.15      48.987106      48.987106      48.987106      1.0427778     -443.64238     -2202.3077      350.19072    
   1994000   1994000        770.60587      253.41983      53810.681      53376.82       20027.802      33349.018      8642.0346      8684.4983      9235.1263      1082.9227      268.89026      15944.53      -10508.984     -684.78922      117390.89      48.964139      48.964139      48.964139      1.0442458      1900.5941     -375.87093     -764.46371    
   1995000   1995000        785.79587     -669.89052      52799.139      53937.846      20422.586      33515.261      8666.6971      8869.1617      9176.8706      1094.4448      291.62236      15927.212     -10510.748     -689.69823      116555.34      48.847693      48.847693      48.847693      1.0517317     -1826.8398     -973.64412      790.81235    
   1996000   1996000        769.04341     -166.25168      53290.19       53575.967      19987.194      33588.773      8622.0652      8777.0803      9243.4612      1119.474       356.70373      15971.49      -10501.502     -682.03392      117865.12      49.029986      49.029986      49.029986      1.0400442     -1982.0174      888.98203      594.28028    
   1997000   1997000        776.39799      379.8959       54078.387      53424.737      20178.337      33246.399      8515.5229      8794.6923      9119.0296      1097.8869      289.41244      15939.567     -10509.712     -681.37504      117979.1       49.045785      49.045785      49.045785      1.0390395      122.83143      550.61115      466.24512    
   1998000   1998000        771.40381     -1257.4692      51315.336      53480.529      20048.54       33431.989      8483.2645      8887.6981      9249.0122      1103.4969      276.3929       15944.82      -10512.696     -680.87591      118065.59      49.057767      49.057767      49.057767      1.0382784     -2698.7001      610.83743     -1684.5449    
   1999000   1999000        772.97374     -457.86567      52378.86       53167.819      20089.342      33078.477      8466.9062      8494.4799      9259.8324      1072.5132      349.8016       15942.19      -10507.247     -680.37867      118151.87      49.069715      49.069715      49.069715      1.0375201      376.75248     -1695.1663     -55.183189    
   2000000   2000000        767.60827      995.52536      54936.01       53231.737      19949.895      33281.841      8554.4918      8646.3341      9191.8995      1085.9086      374.53638      15940.776     -10512.105     -684.82628      117384.53      48.963256      48.963256      48.963256      1.0443023      1168.2014      2509.372      -690.99728    
Loop time of 9857.7 on 1 procs for 2000000 steps with 8720 atoms

Performance: 17.529 ns/day, 1.369 hours/ns, 202.887 timesteps/s, 1.769 Matom-step/s
100.0% CPU use with 1 MPI tasks x 1 OpenMP threads

MPI task timing breakdown:
Section |  min time  |  avg time  |  max time  |%varavg| %total
---------------------------------------------------------------
Pair    | 3999.7     | 3999.7     | 3999.7     |   0.0 | 40.57
Bond    | 1430.5     | 1430.5     | 1430.5     |   0.0 | 14.51
Kspace  | 2182.1     | 2182.1     | 2182.1     |   0.0 | 22.14
Neigh   | 1105       | 1105       | 1105       |   0.0 | 11.21
Comm    | 155.69     | 155.69     | 155.69     |   0.0 |  1.58
Output  | 38.798     | 38.798     | 38.798     |   0.0 |  0.39
Modify  | 602.97     | 602.97     | 602.97     |   0.0 |  6.12
Other   |            | 342.9      |            |       |  3.48

Nlocal:           8720 ave        8720 max        8720 min
Histogram: 1 0 0 0 0 0 0 0 0 0
Nghost:          19208 ave       19208 max       19208 min
Histogram: 1 0 0 0 0 0 0 0 0 0
Neighs:              0 ave           0 max           0 min
Histogram: 1 0 0 0 0 0 0 0 0 0
FullNghs:    4.126e+06 ave   4.126e+06 max   4.126e+06 min
Histogram: 1 0 0 0 0 0 0 0 0 0

Total # of neighbors = 4125996
Ave neighs/atom = 473.16468
Ave special neighs/atom = 5.6385321
Neighbor list builds = 170180
Dangerous builds = 0

# --- Cleanup ---
unfix npt_fix

undump dump_npt

# --- Write Output ---
write_dump all custom npt_cool_last.dump id type mol x y z xu yu zu vx vy vz modify sort id
write_data /home/arz2/PolyJarvis/data/PEEK3/lammps/npt_cool/npt_cool_out.data
System init for write_data ...
PPPM Kokkos initialization ...
  using 12-bit tables for long-range coulomb
  G vector (1/distance) = 0.31205924
  grid = 40 40 40
  stencil order = 5
  estimated absolute RMS force accuracy = 0.00026765245
  estimated relative force accuracy = 8.0602741e-07
  using double precision cuFFT
  3d grid and FFT values/proc = 103823 64000
Generated 21 of 21 mixed pair_coeff terms from sixthpower/sixthpower mixing rule

print "STAGE COMPLETE: NPT T=850.0->770.0K P=1.0->1.0atm steps=2000000"
STAGE COMPLETE: NPT T=850.0->770.0K P=1.0->1.0atm steps=2000000
quit
.97     |   0.0 |  6.12
Other   |            | 342.9      |            |       |  3.48

Nlocal:           8720 ave        8720 max        8720 min
Histogram: 1 0 0 0 0 0 0 0 0 0
Nghost:          19208 ave       19208 max       19208 min
Histogram: 1 0 0 0 0 0 0 0 0 0
Neighs:              0 ave           0 max           0 min
Histogram: 1 0 0 0 0 0 0 0 0 0
FullNghs:    4.126e+06 ave   4.126e+06 max   4.126e+06 min
Histogram: 1 0 0 0 0 0 0 0 0 0

Total # of neighbors = 4125996
Ave neighs/atom = 473.16468
Ave special neighs/atom = 5.6385321
Neighbor list builds = 170180
Dangerous builds = 0
System init for write_data ...
PPPM Kokkos initialization ...
  using 12-bit tables for long-range coulomb
  G vector (1/distance) = 0.31205924
  grid = 40 40 40
  stencil order = 5
  estimated absolute RMS force accuracy = 0.00026765245
  estimated relative force accuracy = 8.0602741e-07
  using double precision cuFFT
  3d grid and FFT values/proc = 103823 64000
Generated 21 of 21 mixed pair_coeff terms from sixthpower/sixthpower mixing rule
STAGE COMPLETE: NPT T=850.0->770.0K P=1.0->1.0atm steps=2000000
