units real
atom_style full
boundary p p p

# --- Force Field Styles ---
pair_style lj/class2/coul/long 9.5 9.5
kspace_style pppm 1e-6
dielectric 1.000000
bond_style class2
angle_style class2
dihedral_style class2
improper_style class2
special_bonds lj/coul 0 0 1
pair_modify mix sixthpower tail yes
neighbor 2.0 bin
neigh_modify delay 0 every 1 check yes
neigh_modify one 4000
# KOKKOS: package loaded via -pk kokkos on the command line

read_data /home/arz2/PolyJarvis/data/PEEK2/lammps/nvt_production/nvt_production_out.data
Reading data file ...
  orthogonal box = (4.2725243 4.2725243 4.2725243) to (57.188681 57.188681 57.188681)
  1 by 1 by 1 MPI processor grid
  reading atoms ...
  10900 atoms
  reading velocities ...
  10900 velocities
  scanning bonds ...
  3 = max bonds/atom
  scanning angles ...
  9 = max angles/atom
  scanning dihedrals ...
  18 = max dihedrals/atom
  scanning impropers ...
  4 = max impropers/atom
  orthogonal box = (4.2725243 4.2725243 4.2725243) to (57.188681 57.188681 57.188681)
  1 by 1 by 1 MPI processor grid
  reading bonds ...
  11850 bonds
  reading angles ...
  18880 angles
  reading dihedrals ...
  28140 dihedrals
  reading impropers ...
  6080 impropers
Finding 1-2 1-3 1-4 neighbors ...
  special bond factors lj:    0        0        1       
  special bond factors coul:  0        0        1       
     3 = max # of 1-2 neighbors
     6 = max # of 1-3 neighbors
     9 = max # of special neighbors
  special bonds CPU = 0.005 seconds
  read_data CPU = 0.301 seconds
include /home/arz2/PolyJarvis/data/PEEK2/lammps/cell/emc_build.params
# LAMMPS parameters created by EMC v9.4.4, build Jul 31 2025 20:33:44

# Variables

variable	seed		index	274348
variable	ntotal		index	10900
variable	fshape		index	1
variable	output		index	emc_build
variable	field		index	pcff/pcff
variable	location1	index	/home/arz2/emc/field/
variable	nav		index	0.6022141179
variable	temperature	index	300
variable	radius		index	5
variable	nrelax		index	100
variable	weight_nonbond	index	0.0001
variable	weight_bond	index	0.0001
variable	weight_focus	index	1
variable	cutoff		index	9.5
variable	charge_cutoff	index	9.5
variable	kappa		index	4
variable	density1	index	0.66
variable	lprevious	index	0
variable	lphase		index	61.4612049865
variable	f_poly		index	10
variable	chem_repeat	index	*Oc1ccc(Oc2ccc(C(=O)c3ccc(cc3)*)cc2)cc1
variable	chem_cap	index	*[H]
variable	lg_repeat	index	34
variable	lg_cap		index	1
variable	norm_poly	index	100
variable	l_poly		index	1090
variable	mg_repeat	index	260.29514
variable	mg_cap		index	0
variable	m_poly		index	8329.44448
variable	n_poly		index	10
variable	mtotal		index	92277.9802
variable	nphase1		index	10900
variable	mphase1		index	92277.9802
variable	vphase1		index	232168.455304
variable	lbox		index	61.4612049865
variable	lphase1		index	61.4612049865
variable	lxx		index	61.4612049865
variable	lyy		index	61.4612049865
variable	lzz		index	61.4612049865
variable	lzy		index	0
variable	lzx		index	0
variable	lyx		index	0
variable	vtotal		index	232168.455304
variable	nl_poly		index	10

# Types

variable	type_c_0	index	1
variable	type_cp		index	2
variable	type_hc		index	3
variable	type_ho		index	4
variable	type_o_1	index	5
variable	type_oc		index	6
variable	type_oh		index	7

variable	type_bond_c_0_cp index	1
variable	type_bond_c_0_o_1 index	2
variable	type_bond_cp_cp	index	3
variable	type_bond_cp_hc	index	4
variable	type_bond_cp_oc	index	5
variable	type_bond_cp_oh	index	6
variable	type_bond_ho_oh	index	7

variable	type_angle_c_0_cp_cp index	1
variable	type_angle_cp_c_0_cp index	2
variable	type_angle_cp_c_0_o_1 index	3
variable	type_angle_cp_cp_cp index	4
variable	type_angle_cp_cp_hc index	5
variable	type_angle_cp_cp_oc index	6
variable	type_angle_cp_cp_oh index	7
variable	type_angle_cp_oc_cp index	8
variable	type_angle_cp_oh_ho index	9

# Clusters

variable	n0_poly		index	1
variable	n1_poly		index	10
variable	nl_poly		index	10

# Flags

variable	flag_charged	index	1

# Masses

mass		1    12.01115  # c_0
mass		2    12.01115  # cp
mass		3     1.00797  # hc
mass		4     1.00797  # ho
mass		5    15.99940  # o_1
mass		6    15.99940  # oc
mass		7    15.99940  # oh

# Potentials

pair_modify	mix sixthpower tail yes
special_bonds	lj/coul 0 0 1

# Pair Coeffs

pair_coeff	 1  1    0.12000    3.30800  # c_0,c_0
pair_coeff	 2  2    0.06400    4.01000  # cp,cp
pair_coeff	 3  3    0.02000    2.99500  # hc,hc
pair_coeff	 4  4    0.01300    1.09800  # ho,ho
pair_coeff	 5  5    0.26700    3.30000  # o_1,o_1
pair_coeff	 6  6    0.24000    3.53500  # oc,oc
pair_coeff	 7  7    0.24000    3.53500  # oh,oh

# Bond Coeffs

bond_coeff	1    1.48900  339.35740 -655.72360  670.23620  # c_0,cp
bond_coeff	2    1.21600  823.79480 -1878.79400 2303.53110  # c_0,o_1
bond_coeff	3    1.41700  470.83610 -627.61790 1327.63450  # cp,cp
bond_coeff	4    1.09820  372.82510 -803.45260  894.31730  # cp,hc
bond_coeff	5    1.37680  428.87980 -738.23510 1114.96550  # cp,oc
bond_coeff	6    1.37680  428.87980 -738.23510 1114.96550  # cp,oh
bond_coeff	7    0.96500  532.50620 -1282.90500 2004.76580  # ho,oh

# Angle Coeffs

angle_coeff	1  108.40000   43.95940   -8.39240   -9.33790  # c_0,cp,cp
angle_coeff	2  110.58840   34.62140   -7.09390   -7.40320  # cp,c_0,cp
angle_coeff	3  119.30000   65.10160  -17.97660    0.00000  # cp,c_0,o_1
angle_coeff	4  118.90000   61.02260  -34.99310    0.00000  # cp,cp,cp
angle_coeff	5  117.94000   35.15580  -12.46820    0.00000  # cp,cp,hc
angle_coeff	6  123.42000   73.67810  -21.67870    0.00000  # cp,cp,oc
angle_coeff	7  123.42000   73.67810  -21.67870    0.00000  # cp,cp,oh
angle_coeff	8  109.50000   60.00000    0.00000    0.00000  # cp,oc,cp
angle_coeff	9  108.19000   53.12500   -8.50160    0.00000  # cp,oh,ho

# BondBond Coeffs

angle_coeff	1 bb    0.00000    1.48900    1.41700  # c_0,cp,cp
angle_coeff	2 bb    0.00000    1.48900    1.48900  # cp,c_0,cp
angle_coeff	3 bb    0.00000    1.48900    1.21600  # cp,c_0,o_1
angle_coeff	4 bb   68.28560    1.41700    1.41700  # cp,cp,cp
angle_coeff	5 bb    1.07950    1.41700    1.09820  # cp,cp,hc
angle_coeff	6 bb   48.47540    1.41700    1.37680  # cp,cp,oc
angle_coeff	7 bb   48.47540    1.41700    1.37680  # cp,cp,oh
angle_coeff	8 bb    0.00000    1.37680    1.37680  # cp,oc,cp
angle_coeff	9 bb   20.65770    1.37680    0.96500  # cp,oh,ho

# BondAngle Coeffs

angle_coeff	1 ba    0.00000    0.00000    1.48900    1.41700  # c_0,cp,cp
angle_coeff	2 ba    0.00000    0.00000    1.48900    1.48900  # cp,c_0,cp
angle_coeff	3 ba    0.00000    0.00000    1.48900    1.21600  # cp,c_0,o_1
angle_coeff	4 ba   28.87080   28.87080    1.41700    1.41700  # cp,cp,cp
angle_coeff	5 ba   20.00330   24.21830    1.41700    1.09820  # cp,cp,hc
angle_coeff	6 ba   58.47900  107.68060    1.41700    1.37680  # cp,cp,oc
angle_coeff	7 ba   58.47900  107.68060    1.41700    1.37680  # cp,cp,oh
angle_coeff	8 ba    0.00000    0.00000    1.37680    1.37680  # cp,oc,cp
angle_coeff	9 ba   53.86140   23.92240    1.37680    0.96500  # cp,oh,ho

# Dihedral Coeffs

dihedral_coeff	 1    0.00000    0.00000    4.62820    0.00000    0.00000    0.00000  # c_0,cp,cp,cp
dihedral_coeff	 2    0.00000    0.00000    2.16700    0.00000    0.00000    0.00000  # c_0,cp,cp,hc
dihedral_coeff	 3    0.00000    0.00000    2.50000    0.00000    0.00000    0.00000  # cp,c_0,cp,cp
dihedral_coeff	 4    0.00000    0.00000    0.90630    0.00000    0.00000    0.00000  # cp,cp,c_0,o_1
dihedral_coeff	 5    8.36670    0.00000    1.19320    0.00000    0.00000    0.00000  # cp,cp,cp,cp
dihedral_coeff	 6    0.00000    0.00000    3.96610    0.00000    0.00000    0.00000  # cp,cp,cp,hc
dihedral_coeff	 7    0.00000    0.00000    4.84980    0.00000    0.00000    0.00000  # cp,cp,cp,oc
dihedral_coeff	 8    0.00000    0.00000    4.84980    0.00000    0.00000    0.00000  # cp,cp,cp,oh
dihedral_coeff	 9    0.00000    0.00000    1.80000    0.00000    0.00000    0.00000  # cp,cp,oc,cp
dihedral_coeff	10   -0.69000    0.00000    0.50970    0.00000    0.00950    0.00000  # cp,cp,oh,ho
dihedral_coeff	11    0.00000    0.00000    1.87690    0.00000    0.00000    0.00000  # hc,cp,cp,hc
dihedral_coeff	12    0.00000    0.00000    1.72340    0.00000    0.00000    0.00000  # hc,cp,cp,oc
dihedral_coeff	13    0.00000    0.00000    1.72340    0.00000    0.00000    0.00000  # hc,cp,cp,oh

# MiddleBondTorsion Coeffs

dihedral_coeff	 1 mbt    0.00000    0.00000    0.00000    1.41700  # c_0,cp,cp,cp
dihedral_coeff	 2 mbt    0.00000    0.00000    0.00000    1.41700  # c_0,cp,cp,hc
dihedral_coeff	 3 mbt    0.00000    0.00000    0.00000    1.48900  # cp,c_0,cp,cp
dihedral_coeff	 4 mbt    0.00000    0.00000    0.00000    1.48900  # cp,cp,c_0,o_1
dihedral_coeff	 5 mbt   27.59890   -2.31200    0.00000    1.41700  # cp,cp,cp,cp
dihedral_coeff	 6 mbt    0.00000   -1.15210    0.00000    1.41700  # cp,cp,cp,hc
dihedral_coeff	 7 mbt    0.00000    4.82550    0.00000    1.41700  # cp,cp,cp,oc
dihedral_coeff	 8 mbt    0.00000    4.82550    0.00000    1.41700  # cp,cp,cp,oh
dihedral_coeff	 9 mbt    0.00000    0.00000    0.00000    1.37680  # cp,cp,oc,cp
dihedral_coeff	10 mbt    1.15800    3.26970    3.51320    1.37680  # cp,cp,oh,ho
dihedral_coeff	11 mbt    0.00000    4.82280    0.00000    1.41700  # hc,cp,cp,hc
dihedral_coeff	12 mbt    0.00000    5.54320    0.00000    1.41700  # hc,cp,cp,oc
dihedral_coeff	13 mbt    0.00000    5.54320    0.00000    1.41700  # hc,cp,cp,oh

# EndBondTorsion Coeffs

dihedral_coeff	 1 ebt    0.00000    0.00000    0.00000    0.00000    0.00000    0.00000    1.48900    1.41700  # c_0,cp,cp,cp
dihedral_coeff	 2 ebt    0.00000    0.00000    0.00000    0.00000    0.00000    0.00000    1.48900    1.09820  # c_0,cp,cp,hc
dihedral_coeff	 3 ebt    0.00000    0.00000    0.00000    0.00000    0.00000    0.00000    1.48900    1.41700  # cp,c_0,cp,cp
dihedral_coeff	 4 ebt    0.00000    0.00000    0.00000    0.00000    0.00000    0.00000    1.41700    1.21600  # cp,cp,c_0,o_1
dihedral_coeff	 5 ebt   -0.11850    6.32040    0.00000   -0.11850    6.32040    0.00000    1.41700    1.41700  # cp,cp,cp,cp
dihedral_coeff	 6 ebt    0.00000   -6.89580    0.00000    0.00000   -0.46690    0.00000    1.41700    1.09820  # cp,cp,cp,hc
dihedral_coeff	 7 ebt    0.00000    0.26550    0.00000    0.00000    4.89050    0.00000    1.41700    1.37680  # cp,cp,cp,oc
dihedral_coeff	 8 ebt    0.00000    0.26550    0.00000    0.00000    4.89050    0.00000    1.41700    1.37680  # cp,cp,cp,oh
dihedral_coeff	 9 ebt    0.00000    0.00000    0.00000    0.00000    0.00000    0.00000    1.41700    1.37680  # cp,cp,oc,cp
dihedral_coeff	10 ebt    0.90000   -1.34560    1.19000    3.41320    0.58730   -0.13230    1.41700    0.96500  # cp,cp,oh,ho
dihedral_coeff	11 ebt    0.00000   -0.68900    0.00000    0.00000   -0.68900    0.00000    1.09820    1.09820  # hc,cp,cp,hc
dihedral_coeff	12 ebt    0.00000   -1.58670    0.00000    0.00000    4.26410    0.00000    1.09820    1.37680  # hc,cp,cp,oc
dihedral_coeff	13 ebt    0.00000   -1.58670    0.00000    0.00000    4.26410    0.00000    1.09820    1.37680  # hc,cp,cp,oh

# AngleTorsion Coeffs

dihedral_coeff	 1 at    0.00000    0.00000    0.00000    0.00000    0.00000    0.00000  108.40000  118.90000  # c_0,cp,cp,cp
dihedral_coeff	 2 at    0.00000    0.00000    0.00000    0.00000    0.00000    0.00000  108.40000  117.94000  # c_0,cp,cp,hc
dihedral_coeff	 3 at    0.00000    0.00000    0.00000    0.00000    0.00000    0.00000  110.58840  108.40000  # cp,c_0,cp,cp
dihedral_coeff	 4 at    0.00000    0.00000    0.00000    0.00000    0.00000    0.00000  108.40000  119.30000  # cp,cp,c_0,o_1
dihedral_coeff	 5 at    1.97670    1.02390    0.00000    1.97670    1.02390    0.00000  118.90000  118.90000  # cp,cp,cp,cp
dihedral_coeff	 6 at    0.00000    2.50140    0.00000    0.00000    2.71470    0.00000  118.90000  117.94000  # cp,cp,cp,hc
dihedral_coeff	 7 at    0.00000   10.01550    0.00000    0.00000    1.74040    0.00000  118.90000  123.42000  # cp,cp,cp,oc
dihedral_coeff	 8 at    0.00000   10.01550    0.00000    0.00000    1.74040    0.00000  118.90000  123.42000  # cp,cp,cp,oh
dihedral_coeff	 9 at    0.00000    0.00000    0.00000    0.00000    0.00000    0.00000  123.42000  109.50000  # cp,cp,oc,cp
dihedral_coeff	10 at   -5.13600   -1.01220    0.00000    4.68520    0.02300   -0.59800  123.42000  108.19000  # cp,cp,oh,ho
dihedral_coeff	11 at    0.00000    2.45010    0.00000    0.00000    2.45010    0.00000  117.94000  117.94000  # hc,cp,cp,hc
dihedral_coeff	12 at    0.00000    1.87290    0.00000    0.00000    2.57060    0.00000  117.94000  123.42000  # hc,cp,cp,oc
dihedral_coeff	13 at    0.00000    1.87290    0.00000    0.00000    2.57060    0.00000  117.94000  123.42000  # hc,cp,cp,oh

# AngleAngleTorsion Coeffs

dihedral_coeff	 1 aat    0.00000  108.40000  118.90000  # c_0,cp,cp,cp
dihedral_coeff	 2 aat    0.00000  108.40000  117.94000  # c_0,cp,cp,hc
dihedral_coeff	 3 aat    0.00000  110.58840  108.40000  # cp,c_0,cp,cp
dihedral_coeff	 4 aat    0.00000  108.40000  119.30000  # cp,cp,c_0,o_1
dihedral_coeff	 5 aat    0.00000  118.90000  118.90000  # cp,cp,cp,cp
dihedral_coeff	 6 aat   -4.81410  118.90000  117.94000  # cp,cp,cp,hc
dihedral_coeff	 7 aat  -21.02470  118.90000  123.42000  # cp,cp,cp,oc
dihedral_coeff	 8 aat  -21.02470  118.90000  123.42000  # cp,cp,cp,oh
dihedral_coeff	 9 aat    0.00000  123.42000  109.50000  # cp,cp,oc,cp
dihedral_coeff	10 aat   -4.60720  123.42000  108.19000  # cp,cp,oh,ho
dihedral_coeff	11 aat    0.35980  117.94000  117.94000  # hc,cp,cp,hc
dihedral_coeff	12 aat    4.22960  117.94000  123.42000  # hc,cp,cp,oc
dihedral_coeff	13 aat    4.22960  117.94000  123.42000  # hc,cp,cp,oh

# BondBond13 Coeffs

dihedral_coeff	 1 bb13    0.00000    1.48900    1.41700  # c_0,cp,cp,cp
dihedral_coeff	 2 bb13    0.00000    1.48900    1.09820  # c_0,cp,cp,hc
dihedral_coeff	 3 bb13    0.00000    1.48900    1.41700  # cp,c_0,cp,cp
dihedral_coeff	 4 bb13    0.00000    1.41700    1.21600  # cp,cp,c_0,o_1
dihedral_coeff	 5 bb13   53.00000    1.41700    1.41700  # cp,cp,cp,cp
dihedral_coeff	 6 bb13   -6.27410    1.41700    1.09820  # cp,cp,cp,hc
dihedral_coeff	 7 bb13   -2.24360    1.41700    1.37680  # cp,cp,cp,oc
dihedral_coeff	 8 bb13   -2.24360    1.41700    1.37680  # cp,cp,cp,oh
dihedral_coeff	 9 bb13    0.00000    1.41700    1.37680  # cp,cp,oc,cp
dihedral_coeff	10 bb13    1.15900    1.41700    0.96500  # cp,cp,oh,ho
dihedral_coeff	11 bb13   -1.70770    1.09820    1.09820  # hc,cp,cp,hc
dihedral_coeff	12 bb13    2.05170    1.09820    1.37680  # hc,cp,cp,oc
dihedral_coeff	13 bb13    2.05170    1.09820    1.37680  # hc,cp,cp,oh

# Improper Coeffs

improper_coeff	1   38.79490    0.00000  # c_0,cp,cp,o_1
improper_coeff	2    0.00000    0.00000  # cp,c_0,cp,cp
improper_coeff	3    4.89120    0.00000  # cp,cp,cp,hc
improper_coeff	4   13.04210    0.00000  # cp,cp,cp,oc
improper_coeff	5   13.04210    0.00000  # cp,cp,cp,oh

# AngleAngle Coeffs

improper_coeff	1 aa    0.00000    0.00000    0.00000  110.58840  119.30000  119.30000  # c_0,cp,cp,o_1
improper_coeff	2 aa    0.00000    0.00000    0.00000  108.40000  108.40000  118.90000  # cp,c_0,cp,cp
improper_coeff	3 aa    0.00000    0.00000    0.00000  118.90000  117.94000  117.94000  # cp,cp,cp,hc
improper_coeff	4 aa    0.00000    0.00000    0.00000  118.90000  123.42000  123.42000  # cp,cp,cp,oc
improper_coeff	5 aa    0.00000    0.00000    0.00000  118.90000  123.42000  123.42000  # cp,cp,cp,oh


# --- Thermo Output ---
thermo_style custom step time temp press enthalpy etotal ke pe ebond eangle edihed eimp evdwl ecoul elong etail vol lx ly lz density pxx pyy pzz
thermo_modify flush yes
thermo 1000

# --- Trajectory ---
dump dump_npt all custom 1000 npt_production.dump id type mol x y z ix iy iz vx vy vz

# --- Restart Checkpointing ---
# No restart checkpointing

# --- Initial Velocities (optional) ---
# Velocities read from data file

# --- SHAKE Constraints ---
# SHAKE disabled

# --- NPT Thermostat + Barostat (Nose-Hoover) ---
# T_damp = 100.0 fs  (heat bath coupling)
# P_damp = 1000.0 fs  (pressure bath coupling, ~10x T_damp typical)
# Ramp: T=770.0->770.0K  P=1.0->1.0atm
timestep 1.0
fix npt_fix all npt temp 770.0 770.0 100.0 iso 1.0 1.0 1000.0

run 1000000
PPPM Kokkos initialization ...
  using 12-bit tables for long-range coulomb
  G vector (1/distance) = 0.30557846
  grid = 40 40 40
  stencil order = 5
  estimated absolute RMS force accuracy = 0.00037929767
  estimated relative force accuracy = 1.1422437e-06
  using double precision cuFFT
  3d grid and FFT values/proc = 103823 64000
Generated 21 of 21 mixed pair_coeff terms from sixthpower/sixthpower mixing rule
Neighbor list info ...
  update: every = 1 steps, delay = 0 steps, check = yes
  max neighbors/atom: 4000, page size: 100000
  master list distance cutoff = 11.5
  ghost atom cutoff = 11.5
  binsize = 11.5, bins = 5 5 5
  1 neighbor lists, perpetual/occasional/extra = 1 0 0
  (1) pair lj/class2/coul/long/kk, perpetual
      attributes: full, newton off, kokkos_device
      pair build: full/bin/kk/device
      stencil: full/bin/3d
      bin: kk/device
Per MPI rank memory allocation (min/avg/max) = 41.79 | 41.79 | 41.79 Mbytes
   Step          Time           Temp          Press         Enthalpy        TotEng         KinEng         PotEng         E_bond        E_angle        E_dihed        E_impro         E_vdwl         E_coul         E_long         E_tail         Volume           Lx             Ly             Lz          Density          Pxx            Pyy            Pzz      
         0   0              772.1995      -623.83248      65477.375      66825.434      25087.101      41738.333      10788.365      11018.906      11429.492      1348.8341      365.36825      19687.886     -12900.519     -847.70832      148171.57      52.916156      52.916156      52.916156      1.034147      -486.54722      69.876291     -1454.8265    
      1000   1000           769.65054     -1103.2654      64248.505      66595.666      25004.29       41591.376      10443.116      11022.342      11590.171      1406.4281      334.63589      19692.004     -12897.322     -861.04194      145877.06      52.641591      52.641591      52.641591      1.0504131     -349.86391     -1519.6608     -1440.2716    
      2000   2000           777.01154      1412.5618      70074.736      67033.017      25243.433      41789.583      10666.896      11158.348      11218.095      1368.7434      560.76925      19717.729     -12900.997     -850.69814      147650.81      52.854092      52.854092      52.854092      1.0377943      1155.7283      1222.4115      1859.5455    
      3000   3000           770.45065     -267.35907      66104.816      66678.266      25030.284      41647.982      10704.454      11090.631      11442.014      1373.8559      241.18805      19685.142     -12889.304     -854.05636      147070.24      52.784725      52.784725      52.784725      1.0418912     -1042.5219     -863.24225      1103.6869    
      4000   4000           774.38393      1707.5815      70568.061      66884.4        25158.068      41726.332      10782.367      11200.868      11100.219      1369.2239      475.669        19698.376     -12900.39      -849.15892      147918.45      52.886007      52.886007      52.886007      1.0359166      417.15393      3106.0454      1599.5451    
      5000   5000           769.72399     -192.36747      66412.822      66826.275      25006.677      41819.599      10742.523      11042.671      11526.48       1373.044       308.57902      19726.475     -12900.173     -852.30022      147373.27      52.820954      52.820954      52.820954      1.0397488      1190.0281     -130.17137     -1636.9591    
      6000   6000           764.53607      188.0356       67025.965      66622.323      24838.132      41784.19       10855.366      10987.57       11423.552      1378.8133      353.30806      19694.099     -12908.518     -853.35729      147190.72      52.799135      52.799135      52.799135      1.0410383     -128.62668      1230.6774     -537.94398    
      7000   7000           771.63268      1804.1968      70737.744      66926.2        25068.686      41857.514      10766.665      11236.102      11275.929      1384.5837      395.69288      19695.884     -12897.342     -867.10203      144857.54      52.518668      52.518668      52.518668      1.057806       1842.2057      2611.601       958.78378    
      8000   8000           772.30143      1058.3557      68846.032      66572.74       25090.412      41482.328      10672.867      11042.803      11175.506      1407.3004      367.76697      19717.809     -12901.725     -852.8321       147281.36      52.809971      52.809971      52.809971      1.0403976      1118.5565     -418.88556      2475.3963    
      9000   9000           767.16785     -611.61672      65177.739      66490.074      24923.633      41566.441      10568.344      11044.233      11441.001      1349.7829      376.27842      19691         -12904.199     -853.73269      147125.99      52.791395      52.791395      52.791395      1.0414963     -946.10394      321.9495      -1210.6957    
     10000   10000          778.77986      2443.2806      71896.661      66695.412      25300.882      41394.529      10719.191      10843.542      11178.719      1402.0028      460.64309      19692.647     -12902.217     -860.50392      145968.27      52.65256       52.65256       52.65256       1.0497567      2166.8371      2000.6825      3162.3222    
     11000   11000          769.33444      835.56876      68160.744      66384.744      24994.021      41390.723      10592.572      10867.722      11397.106      1384.7062      367.60087      19690.105     -12909.089     -861.83995      145741.99      52.625338      52.625338      52.625338      1.0513866     -523.98075      2518.1129      512.57413    
     12000   12000          779.51846     -1393.6605      64203.496      67176.987      25324.878      41852.109      10681.877      10930.332      11660.079      1383.011       433.93047      19670.801     -12907.922     -858.57375      146296.43      52.691986      52.691986      52.691986      1.0474021     -1784.493      -892.14561     -1504.3428    
     13000   13000          766.28996     -446.81284      65312.167      66261.728      24895.112      41366.615      10550.035      10880.043      11437.225      1323.5661      374.81983      19710.313     -12909.386     -861.96628      145720.63      52.622767      52.622767      52.622767      1.0515407     -67.429527     -482.66305     -790.34594    
     14000   14000          776.69579      524.80824      67814.064      66678.925      25233.175      41445.75       10651.814      11124.06       11162.004      1348.7197      401.13519      19670.704     -12912.687     -846.91277      148310.75      52.93272       52.93272       52.93272       1.0331765      126.77218      717.1499       730.50265    
     15000   15000          773.79688      458.67762      67750.52       66765.602      25138.996      41626.606      10528.949      11048.196      11482.686      1390.8449      397.13684      19673.896     -12895.102     -853.09014      147236.81      52.804646      52.804646      52.804646      1.0407124     -2013.9704      1261.9582      2128.045     
     16000   16000          761.85466     -943.00228      63950.021      65984.398      24751.019      41233.379      10644.261      10956.049      11193.922      1282.3233      374.12671      19680.774     -12898.077     -849.11903      147925.4       52.886836      52.886836      52.886836      1.0358679     -1075.8584      83.627809     -1836.7762    
     17000   17000          766.57899     -1138.5357      64294.505      66712.312      24904.502      41807.81       10673.113      11099.401      11564.489      1343.8083      352.42781      19672.031     -12897.461     -862.60547      145612.65      52.609766      52.609766      52.609766      1.0523205     -1148.3646     -2721.1854      453.94289    
     18000   18000          767.83775      1747.7663      70140.513      66379.736      24945.397      41434.339      10574.024      11036.078      11287.638      1364.6978      351.37271      19711.347     -12890.818     -851.32018      147542.93      52.841215      52.841215      52.841215      1.0385532      2370.7271      467.22751      2405.3442    
     19000   19000          767.93684      126.00285      66829.075      66559.067      24948.616      41610.451      10508.316      11054.1        11446.272      1367.7743      431.15681      19702.614     -12899.783     -854.85445      146932.93      52.768293      52.768293      52.768293      1.0428648     -886.64237     -449.42305      1714.074     
     20000   20000          774.51871      113.12173      67199.24       66955.49       25162.447      41793.043      10723.33       10990.237      11467.76       1395.4418      422.92146      19698.252     -12904.899     -850.13674      147748.31      52.865723      52.865723      52.865723      1.0371095      37.181305     -263.86599      566.04989    
     21000   21000          773.11708      155.04705      66886.91       66556.058      25116.911      41439.148      10770.56       10896.313      11290.93       1370.6426      355.70935      19661.852     -12906.859     -858.4548       146316.7       52.69442       52.69442       52.69442       1.047257      -946.19931      1329.6196      81.720836    
     22000   22000          778.92297     -1320.9748      64392.359      67220.822      25305.532      41915.29       10681.797      11201.939      11565.393      1407.673       289.75598      19674.424     -12905.692     -855.52215      146818.26      52.754562      52.754562      52.754562      1.0436793     -1569.1173     -799.66614     -1594.141     
     23000   23000          771.65885     -1579.1228      63548.552      66918.72       25069.536      41849.184      10673.896      11051.777      11624.553      1381.1467      323.06102      19693.647     -12898.897     -858.32447      146338.91      52.697087      52.697087      52.697087      1.047098      -154.34453     -3892.3119     -690.71199    
     24000   24000          759.09021     -2125.8291      61762.445      66285.742      24661.208      41624.534      10648.044      11043.227      11532.705      1383.7948      242.15056      19669.565     -12894.952     -860.91535      145898.51      52.644171      52.644171      52.644171      1.0502587     -2162.5307     -2053.2314     -2161.7252    
     25000   25000          768.01304      1547.6951      69943.025      66629.446      24951.092      41678.354      10772.342      10984.574      11255.614      1400.1248      471.34241      19689.32      -12894.962     -855.60886      146803.38      52.75278       52.75278       52.75278       1.0437851      3735.9817     -729.55492      1636.6585    
     26000   26000          775.87064     -678.55351      65541.804      66999.169      25206.368      41792.801      10842.722      11036.861      11351.556      1371.9408      407.45097      19681.404     -12899.134     -852.90958      147267.98      52.808372      52.808372      52.808372      1.0404922      884.26674     -2395.1611     -524.76621    
     27000   27000          780.75926     -1410.1991      63400.781      66402.304      25365.189      41037.116      10505.828      10876.71       11375.468      1334.6717      140.05051      19703.099     -12898.712     -860.64865      145943.73      52.649608      52.649608      52.649608      1.0499333     -1438.5557     -1661.2488     -1130.7928    
     28000   28000          774.03022      2.5854119      66950.763      66945.225      25146.577      41798.649      10530.259      11036.88       11613.193      1410.4979      376.89864      19722.417     -12891.496     -855.28122      146859.61      52.759515      52.759515      52.759515      1.0433854     -132.85029      822.97408     -682.36756    
     29000   29000          772.1995       124.75604      66953.158      66687.28       25087.101      41600.179      10751.577      10978.653      11437.74       1365.9742      275.17791      19694.624     -12903.567     -859.53846      146132.23      52.672266      52.672266      52.672266      1.0485789      625.33475     -2139.7514      1888.6848    
     30000   30000          765.52458      770.06442      68229.979      66577.818      24870.247      41707.571      10945.965      10971.319      11312.345      1383.2242      310.07191      19688.549     -12903.902     -853.8115       147112.41      52.78977       52.78977       52.78977       1.0415924      1609.3455      1167.4842     -466.63645    
     31000   31000          756.83595      729.95706      68055.418      66466.89       24587.972      41878.918      10841.068      10909.189      11345.558      1381.9518      625.21987      19679.295     -12903.363     -841.76261      149218.16      53.040454      53.040454      53.040454      1.0268936     -1176.542       2421.3561      945.0571     
     32000   32000          781.88796     -55.855244      66830.671      66951.519      25401.858      41549.661      10578.424      10949.074      11437.934      1386.1359      393.85026      19705.879     -12901.636     -846.66185      148354.71      52.937949      52.937949      52.937949      1.0328703     -1491.1966     -231.67797      1555.3088    
     33000   33000          770.6749      -1454.0076      63641.124      66776.309      25037.57       41738.739      10850.629      11075.36       11250.923      1331.1075      452.50822      19680.61      -12902.4       -849.55353      147849.74      52.877818      52.877818      52.877818      1.036398      -2114.8265      156.67908     -2403.8753    
     34000   34000          783.47076      959.53864      69158.723      67091.283      25453.28       41638.003      10705.539      11038.877      11240.219      1368.5872      502.73522      19685.45      -12903.404     -850.1915       147738.8       52.864588      52.864588      52.864588      1.0371763      1870.768       835.37482      172.47306    
     35000   35000          767.99153     -298.69532      65887.372      66531.086      24950.393      41580.693      10701.303      10920.219      11393.993      1367.1678      404.54362      19695.489     -12902.022     -850.00673      147770.91      52.868419      52.868419      52.868419      1.0369509      496.8734      -1097.5823     -295.37711    
     36000   36000          774.09395      65.877483      66772.601      66630.352      25148.647      41481.705      10583.694      10985.103      11227.952      1398.5518      474.65417      19704.609     -12892.859     -848.35451      148058.71      52.902718      52.902718      52.902718      1.0349353     -1046.1268      450.74249      793.01675    
     37000   37000          780.34242     -959.45218      65427.11       67491.207      25351.647      42139.561      11013.659      10983.589      11628.166      1375.1123      331.58773      19705.879     -12898.432     -851.49153      147513.24      52.837671      52.837671      52.837671      1.0387622     -1792.874      -642.69923     -442.7833     
     38000   38000          768.38625     -59.226759      66607.644      66734.242      24963.216      41771.025      11055.441      10911.539      11245.118      1358.7715      408.9606       19687.988     -12896.793     -856.99339      146566.21      52.724356      52.724356      52.724356      1.0454741      74.54544      -1898.6615      1646.4358    
     39000   39000          770.32777      116.6412       67086.582      66837.432      25026.292      41811.14       11131.211      10841.267      11310.099      1376.6627      348.54374      19701.729     -12898.372     -857.58731      146464.7       52.712182      52.712182      52.712182      1.0461987      181.20183      934.10747     -765.38571    
     40000   40000          762.0103      -855.60444      64578.39       66415.935      24756.075      41659.86       10818.514      11073.621      11296.21       1304.3249      360.97955      19704.394     -12898.184     -852.94729      147261.47      52.807593      52.807593      52.807593      1.0405382      141.92234     -466.96901     -2241.7666    
     41000   41000          774.36818      1064.9476      69231.305      66959.049      25157.556      41801.492      10799.124      11142.349      11269.002      1380.9626      408.80869      19698.174     -12896.928     -858.53516      146303         52.692776      52.692776      52.692776      1.047355      -578.96599      1087.6426      2686.1663    
     42000   42000          764.32997     -1160.7055      63901.648      66402.034      24831.437      41570.597      10556.212      10862.434      11557.584      1381.3041      422.99272      19690.344     -12900.273     -850.35897      147709.7       52.861118      52.861118      52.861118      1.0373806     -315.9964      -2396.5471     -769.57302    
     43000   43000          766.2426       137.63043      66691.181      66397.943      24893.574      41504.37       10768.714      10884.408      11433.058      1346.7057      259.38374      19715.084     -12902.982     -859.76954      146092.95      52.667547      52.667547      52.667547      1.0488608      379.33743     -1240.6486      1274.2024    
     44000   44000          761.96044      1203.0832      69357.102      66771.777      24754.455      42017.322      11009.287      11093.136      11289.156      1334.6914      509.93863      19684.09      -12902.977     -852.44759      147347.79      52.81791       52.81791       52.81791       1.0399286      1194.5078     -119.61704      2534.3588    
     45000   45000          766.57316      1928.6004      70435.295      66299.446      24904.313      41395.133      10723.847      11002.409      11050.032      1367.1075      463.94743      19692.663     -12904.872     -854.21032      147043.73      52.781554      52.781554      52.781554      1.042079       2822.4228      576.88567      2386.4929    
     46000   46000          774.28059     -1008.209       64544.335      66700.636      25154.711      41545.925      10677.079      11081.844      11412.447      1343.8368      277.82053      19662.702     -12909.804     -856.50216      146650.27      52.734434      52.734434      52.734434      1.0448749     -560.42698     -1489.632      -974.56792    
     47000   47000          782.34573     -1003.481       64851.58       66997.065      25416.73       41580.335      10737.429      10954.116      11506.002      1349.9893      207.0099       19726.032     -12900.242     -856.78297      146602.2       52.728672      52.728672      52.728672      1.0452174     -49.729057     -1124.4706     -1836.2432    
     48000   48000          767.73268     -1400.5573      63672.807      66679.613      24941.983      41737.63       10615.842      10947.655      11530.973      1398.8121      418.42128      19728.89      -12902.963     -853.26257      147207.06      52.801088      52.801088      52.801088      1.0409228     -434.04873     -2723.8704     -1043.7528    
     49000   49000          773.55594     -289.67976      65987.14       66599.561      25131.168      41468.392      10666.61       10870.616      11530.032      1381.7051      230.4633       19699.375     -12910.409     -866.47454      144962.45      52.531343      52.531343      52.531343      1.0570405      989.12298     -2017.3397      159.17745    
     50000   50000          775.66141     -1680.1189      63044.013      66664.191      25199.571      41464.62       10430.1        11057.622      11402.206      1349.243       445.82061      19683.209     -12903.581     -850.15351      147745.4       52.865376      52.865376      52.865376      1.0371299     -900.10117     -1499.5938     -2640.6616    
     51000   51000          778.53947     -865.9461       64867.373      66708.799      25293.072      41415.726      10580.642      10945.455      11334.32       1393.685       384.8851       19679.859     -12903.121     -861.43779      145810.03      52.633526      52.633526      52.633526      1.050896      -3292.5176     -52.297834      746.97708    
     52000   52000          771.14248     -76.141283      66675.704      66838.253      25052.76       41785.492      10792.499      11005.944      11495.332      1402.4519      301.47068      19685.906     -12898.112     -858.07457      146381.53      52.702202      52.702202      52.702202      1.0467931      146.2445      -513.98041      139.31205    
     53000   53000          767.44104      705.93573      67941.469      66428.926      24932.509      41496.417      10668.855      11007.784      11312.835      1350.1023      383.16205      19685.179     -12911.5       -854.95779      146915.17      52.766167      52.766167      52.766167      1.0429908     -1387.7643      1800.0604      1705.5111    
     54000   54000          766.14792     -2392.4119      61209.203      66331.648      24890.498      41441.151      10519.183      11006.181      11454.141      1343.4005      339.01975      19682.967     -12903.742     -855.55076      146813.35      52.753974      52.753974      52.753974      1.0437142     -1317.7613     -3496.9406     -2362.5337    
     55000   55000          769.59473     -1141.5468      64340.554      66772.889      25002.477      41770.412      10874.359      10927.091      11599.189      1405.9025      195.46576      19680.142     -12911.737     -859.72099      146101.2       52.668538      52.668538      52.668538      1.0488016     -2330.6047     -1735.0475      641.01193    
     56000   56000          769.27882      419.49525      67643.982      66741.904      24992.214      41749.69       10653.906      10948.247      11543.211      1387.0477      479.38397      19654.295     -12916.4       -851.86374      147448.78      52.829974      52.829974      52.829974      1.0392163      1006.4604      490.23102     -238.20572    
     57000   57000          767.21117      377.70367      67172.364      66367.609      24925.04       41442.569      10610.804      10990.173      11393.614      1347.7827      314.11207      19696.451     -12910.368     -859.75577      146095.29      52.667828      52.667828      52.667828      1.0488441      784.09845      1424.7566     -1075.744     
     58000   58000          764.05341      1299.6412      69302.195      66506.899      24822.452      41684.448      10832.223      11051.021      11062.951      1388.5868      565.34919      19687.729     -12903.412     -851.69275      147478.38      52.833509      52.833509      52.833509      1.0390077      1655.0682      1684.5509      559.30453    
     59000   59000          770.05048      132.40057      67054.406      66771.763      25017.283      41754.48       10728.108      11132.437      11380.894      1364.3022      371.8205       19693.153     -12916.234     -858.10251      146376.77      52.70163       52.70163       52.70163       1.0468272      788.97463     -2670.3449      2278.572     
     60000   60000          785.66841     -153.54941      66944.65       67270.867      25524.676      41746.191      10840.14       10907.681      11552.513      1397.4774      246.76801      19711.91      -12910.299     -862.24021      145674.34      52.617194      52.617194      52.617194      1.0518749     -786.3857      -732.71366      1058.4511    
     61000   61000          764.19348      368.27979      67279.08       66491.211      24827.002      41664.209      10670.509      10912.345      11623.043      1415.0495      276.95531      19683.88      -12917.573     -856.27078      146689.89      52.739183      52.739183      52.739183      1.0445926      533.11018      610.75611     -39.026914    
     62000   62000          772.5103      -819.7894       65269.839      67005.055      25097.198      41907.857      10771.319      11003.122      11754.508      1384.4959      238.91611      19670.21      -12914.713     -865.43805      145136.06      52.552306      52.552306      52.552306      1.055776      -1706.7722     -1088.7711      336.1751     
     63000   63000          774.25695      738.19165      68381.849      66813.345      25153.943      41659.402      10689.683      11025.235      11386.419      1337.3462      440.61571      19694.294     -12914.192     -862.12584      145693.66      52.61952       52.61952       52.61952       1.0517354     -1414.2167      1998.2973      1630.4943    
     64000   64000          762.66342      1859.0009      70220.879      66279.127      24777.294      41501.833      10551.329      11164.114      11304.682      1371.1924      351.88794      19669.822     -12911.194     -863.92791      145389.76      52.582909      52.582909      52.582909      1.0539338      918.52884      2319.7617      2338.712     
     65000   65000          769.92599     -405.56671      65446.711      66314.394      25013.239      41301.155      10430.885      10989.349      11334.516      1364.0526      416.6072       19680.601     -12914.857     -856.22566      146697.62      52.740109      52.740109      52.740109      1.0445376     -1411.3397     -191.65287      386.29244    
     66000   66000          769.36229      886.35412      68559.041      66679.607      24994.926      41684.681      10783.805      11024.125      11432.237      1382.9128      297.46982      19679.101     -12914.969     -863.90763      145393.17      52.58332       52.58332       52.58332       1.053909       608.55969      108.92348      1941.5792    
     67000   67000          765.87806     -969.80135      64218.117      66283.118      24881.73       41401.388      10563.373      10843.001      11567.979      1393.096       266.91129      19685.043     -12918.016     -860.29956      146002.95      52.656729      52.656729      52.656729      1.0495074     -1719.6445     -990.75622     -199.00335    
     68000   68000          768.98012      479.92036      67466.625      66438.549      24982.51       41456.039      10450.76       11170.627      11315.579      1404.4711      344.26811      19676.652     -12906.318     -855.12776      146885.97      52.762671      52.762671      52.762671      1.0431982      728.05051     -98.441797      810.15235    
     69000   69000          768.92167      918.59764      68828.436      66864.214      24980.611      41883.603      10832.372      11217.317      11168.995      1376.3753      488.38979      19698.561     -12898.406     -856.68628      146618.75      52.730655      52.730655      52.730655      1.0450995     -1449.3918      1973.5556      2231.6291    
     70000   70000          769.18174     -609.53323      64850.571      66142.874      24989.06       41153.814      10583.624      10864.583      11376.497      1338.2713      231.23199      19669.382     -12909.776     -864.01298      145375.44      52.581183      52.581183      52.581183      1.0540376     -376.14342     -1860.7433      408.28704    
     71000   71000          774.4345      -217.03799      66176.525      66638.26       25159.711      41478.549      10670.646      10967.283      11370.884      1355.8105      321.69715      19692.296     -12900.067     -861.05354      145875.1       52.641354      52.641354      52.641354      1.0504272     -507.15015      735.04487     -879.00867    
     72000   72000          764.56139     -820.5288       64493.925      66239.881      24838.955      41400.926      10854.563      10796.276      11400.338      1350.6025      194.53138      19697.898     -12893.283     -860.89033      145902.75      52.644681      52.644681      52.644681      1.0502281     -1729.8494     -4.6267277     -727.11023    
     73000   73000          770.83045      1231.0415      69543.63       66923.783      25042.623      41881.16       10939.436      10915.607      11469.903      1395.9413      396.05204      19660.938     -12896.717     -860.7637       145924.22      52.647262      52.647262      52.647262      1.0500737      1135.3687      19.497316      2538.2585    
     74000   74000          763.67738     -798.9879       64829.16       66553.265      24810.235      41743.03       10551.898      11109.493      11475.717      1399.6456      427.19941      19670.13      -12891.053     -848.9141       147961.11      52.891091      52.891091      52.891091      1.0356179     -563.39474     -1081.7571     -751.81185    
     75000   75000          766.72264      165.45492      66369.02       66015.841      24909.169      41106.672      10623.813      10998.457      10970.598      1330.7975      380.44475      19703.354     -12900.793     -858.16774      146365.64      52.700295      52.700295      52.700295      1.0469068     -266.06023      1031.9429     -269.51793    
     76000   76000          773.14963     -0.84540254     66547.592      66549.389      25117.968      41431.421      10730.128      10948.675      11334.055      1361.0831      258.24963      19703.043     -12903.812     -861.54997      145791.05      52.631242      52.631242      52.631242      1.0510328     -124.77781     -25.880584      148.12219    
     77000   77000          777.47045      394.32675      67335.31       66506.18       25258.342      41247.837      10416.128      11038.76       11415.363      1346.3835      272.49627      19663.138     -12904.432     -871.20576      144175.21      52.436077      52.436077      52.436077      1.0628123      2125.0135      914.84635     -1856.8796    
     78000   78000          767.0569      -57.777265      66197.637      66321.035      24920.028      41401.007      10685.095      11025.872      11226.638      1359.8253      306.94244      19696.64      -12900.007     -857.69864      146445.69      52.709901      52.709901      52.709901      1.0463345     -2132.0512      1389.6914      569.02806    
     79000   79000          783.44654      21.842535      66982.837      66936.717      25452.493      41484.224      10838.175      10993.518      11199.191      1371.9791      257.75269      19720.043     -12896.435     -867.54975      144782.79      52.509632      52.509632      52.509632      1.0583522     -285.40709     -282.3952       633.3299     
     80000   80000          766.46995     -804.63902      64809.296      66515.795      24900.96       41614.835      10609.091      11107.185      11489          1378.1847      237.55188      19700.293     -12906.471     -863.7389       145421.57      52.586744      52.586744      52.586744      1.0537032     -759.03517     -1927.0107      272.12885    
     81000   81000          767.1962      -1298.4078      63485.258      66255.125      24924.554      41330.571      10776.177      11025.861      11109.023      1367.998       281.28266      19675.979     -12905.75      -858.6957       146275.65      52.689492      52.689492      52.689492      1.0475508     -1829.0811     -1479.4988     -586.64337    
     82000   82000          762.01153      1544.3104      69616.929      66349.704      24756.115      41593.588      10527.036      11241.227      11382.041      1403.5773      250.6116       19687.687     -12898.592     -865.85006      145067         52.543969      52.543969      52.543969      1.0562787      109.95914      1692.3526      2830.6196    
     83000   83000          773.07012     -753.68253      65177.098      66764.19       25115.385      41648.805      10847.824      10988.253      11333.486      1412.0398      273.04348      19697.674     -12903.516     -869.90869      144390.18      52.462126      52.462126      52.462126      1.0612299     -2534.3572     -1546.9667      1820.2763    
     84000   84000          761.63987     -376.95121      65623.735      66423.047      24744.041      41679.006      10879.449      10939.984      11439.09       1379.9319      254.82921      19690.879     -12905.158     -863.88487      145397         52.583782      52.583782      52.583782      1.0538813     -1025.9634      863.88183     -968.77208    
     85000   85000          783.04931     -353.42382      66091.198      66839.573      25439.587      41399.986      10635.721      10863.258      11512.267      1362.9007      253.95383      19684.582     -12912.696     -865.0952       145193.58      52.559248      52.559248      52.559248      1.0553578     -1348.884       876.97512     -588.3626     
     86000   86000          767.51807      190.56072      66714.633      66313.178      24935.011      41378.167      10557.333      10870.811      11665.541      1396.8306      103.69325      19690.635     -12906.677     -869.5273       144453.51      52.469795      52.469795      52.469795      1.0607647     -1354.0528      1824.4004      101.33465    
     87000   87000          767.13449      514.18461      67872.492      66773.259      24922.549      41850.71       11048.433      10917.774      11348.577      1388.1301      376.65264      19676.056     -12904.913     -856.87349      146586.72      52.726815      52.726815      52.726815      1.0453279      1372.3278     -479.17285      649.39893    
     88000   88000          767.45194     -1540.5711      63604.997      66891.723      24932.862      41958.86       10827.323      11070.893      11580.472      1363.0427      359.87008      19670.083     -12912.823     -858.62877      146287.05      52.690861      52.690861      52.690861      1.0474692     -382.27166     -2350.6656     -1888.7759    
     89000   89000          765.35056      1596.1451      69455.338      66082.819      24864.593      41218.226      10570.898      10805.965      11358.102      1371.0756      341.06132      19688.363     -12917.238     -866.9723       144879.22      52.521288      52.521288      52.521288      1.0576477      1058.8235      1326.3316      2403.2802    
     90000   90000          779.3269      -1059.2646      64557.461      66804.789      25318.654      41486.135      10637.799      10898.601      11500.674      1371.2819      324.8119       19661.67      -12908.703     -863.4263       145474.22      52.593089      52.593089      52.593089      1.0533219     -717.46751     -1596.924      -863.40244    
     91000   91000          793.53524     -102.42083      66937.393      67153.524      25780.253      41373.271      10568.299      11032.819      11424.891      1377.182       173.77815      19701.023     -12904.721     -868.08031      144694.3       52.498932      52.498932      52.498932      1.0589994     -195.97263     -581.96652      470.67665    
     92000   92000          761.67497      1013.3102      68710.492      66553.538      24745.181      41808.357      10687.159      11023.882      11556.531      1350.4283      395.26504      19704.9       -12909.809     -860.57485      145956.24      52.651113      52.651113      52.651113      1.0498433      965.65801      804.75864      1269.5138    
     93000   93000          769.58043     -1361.3897      63564.524      66447.472      25002.013      41445.46       10641.286      11095.069      11363.804      1322.5684      266.49056      19666.699     -12910.458     -865.03342      145203.95      52.560499      52.560499      52.560499      1.0552824     -1057.3241     -2178.8433     -848.0016     
     94000   94000          771.52432      41.514581      67169.727      67081.59       25065.165      42016.425      10717.966      11267.515      11484.789      1349.8755      386.47528      19715.707     -12905.902     -862.84245      145572.66      52.604949      52.604949      52.604949      1.0526096     -1015.2968      212.56174      927.2788     
     95000   95000          766.92881     -138.21553      66249.773      66543.305      24915.867      41627.438      10588.335      11227.946      11218.663      1394.6141      408.11848      19690.533     -12900.773     -862.55766      145620.72      52.610738      52.610738      52.610738      1.0522622      954.11565      1095.5485     -2464.3107    
     96000   96000          778.5911      -1072.0936      64980.794      67286.432      25294.75       41991.682      10610.313      11172.917      11529.413      1321.5701      583.29747      19683.764     -12909.593     -851.78242      147462.86      52.831655      52.831655      52.831655      1.0391171     -292.10957     -757.47883     -2166.6923    
     97000   97000          764.85962      911.58762      68535.107      66591.315      24848.644      41742.672      10775.487      11134.137      11272.403      1371.7276      390.69881      19691.011     -12892.793     -859.08475      146209.4       52.681537      52.681537      52.681537      1.0480255      1522.7925      1522.8953     -310.92486    
     98000   98000          758.91705     -1571.4633      63438.924      66809.599      24655.582      42154.017      10817.056      11167.401      11711.208      1398.6652      237.84842      19718.41      -12896.573     -854.0328       147074.29      52.78521       52.78521       52.78521       1.0418624     -3052.6504     -1041.085      -620.65449    
     99000   99000          771.64405      660.432        68212.079      66803.569      25069.055      41734.514      10771.823      11020.72       11429.012      1332.2863      402.90931      19681.539     -12903.776     -858.92494      146236.61      52.684804      52.684804      52.684804      1.0478305      378.64292     -231.26506      1833.9181    
    100000   100000         767.30578      1782.9481      71002.187      67175.798      24928.114      42247.684      10775.297      11130.466      11617.555      1416.3234      523.26101      19688.583     -12903.801     -853.56525      147154.86      52.794847      52.794847      52.794847      1.041292       2171.6552      1102.9818      2074.2072    
    101000   101000         774.63488     -989.62405      64469.761      66586.494      25166.221      41420.273      10462.506      10842.29       11646.727      1447.3855      262.65264      19660.548     -12901.836     -856.42904      146662.79      52.735934      52.735934      52.735934      1.0447857     -1478.0523      325.08045     -1815.9003    
    102000   102000         755.01952     -640.13978      64834.241      66203.693      24528.96       41674.733      10734.321      10871.383      11455.152      1371.2341      485.00208      19663.893     -12906.253     -856.27916      146688.46      52.739011      52.739011      52.739011      1.0446028     -29.409138     -1576.8921     -314.11806    
    103000   103000         780.94606     -1709.3007      63337.087      66954.29       25371.258      41583.032      10569.94       10853.432      11681.602      1336.9418      362.06738      19681.684     -12902.635     -865.63105      145103.7       52.5484        52.5484        52.5484        1.0560115     -1998.7012     -1573.3892     -1555.8116    
    104000   104000         768.44369     -252.98626      66017.988      66557.292      24965.082      41592.209      10569.551      11134.816      11558.851      1352.1256      166.71187      19707.948     -12897.794     -859.31163      146170.8       52.6769        52.6769        52.6769        1.0483022      118.04077      33.608101     -910.60765    
    105000   105000         767.36503      1278.6932      69430.46       66692.767      24930.039      41762.728      10761.22       11080.653      11358.77       1411.3935      362.29884      19683.84      -12895.447     -855.59628      146805.54      52.753038      52.753038      52.753038      1.0437697      521.53259      1599.5267      1715.0204    
    106000   106000         770.71846      691.88842      68034.074      66561.215      25038.985      41522.23       10539.095      11137.837      11344.654      1349.5731      354.15672      19697.145     -12900.232     -860.52188      145965.23      52.652193      52.652193      52.652193      1.0497786      1036.2159      1038.6255      0.82386167   
    107000   107000         766.60813     -1736.0256      62806.718      66558.088      24905.449      41652.639      10443.51       11161.668      11434.692      1385.7424      386.00202      19730.074     -12889.05      -847.72206      148169.17      52.91587       52.91587       52.91587       1.0341637     -2126.9738     -905.36433     -2175.7385    
    108000   108000         772.94564     -596.11084      65282.926      66564.369      25111.341      41453.028      10609.47       10909.773      11343.16       1366.7089      446.77205      19686.093     -12908.948     -852.14772      147399.64      52.824105      52.824105      52.824105      1.0395627     -727.72677     -305.63367     -754.97207    
    109000   109000         769.28792      818.4342       68301.008      66553.615      24992.51       41561.105      10767.317      11106.606      11088.922      1394.8645      403.71011      19703.193     -12903.507     -857.98648      146396.56      52.704006      52.704006      52.704006      1.0466856      324.86508      1274.2692      856.16838    
    110000   110000         761.57495      40.61151       66562.848      66475.015      24741.932      41733.083      10680.317      10864.24       11512.902      1386.6188      519.50958      19679.278     -12909.782     -846.99272      148296.75      52.931055      52.931055      52.931055      1.033274      -402.78707     -709.35956      1233.9812    
    111000   111000         776.63802      514.60526      68070.132      66964.297      25231.298      41732.999      10702.296      11108.2        11342.644      1304.3749      501.09105      19682.56      -12908.169     -852.45434      147346.63      52.81777       52.81777       52.81777       1.0399368      3.3978596      522.9255       1017.4924    
    112000   112000         766.28111      1108.1675      68742.178      66386.761      24894.825      41491.936      10846.543      10908.041      11162.554      1326.0741      469.16696      19684.644     -12905.086     -861.83615      145742.63      52.625416      52.625416      52.625416      1.051382       355.84027      1138.1212      1830.5409    
    113000   113000         767.47444     -771.24012      64881.486      66538.88       24933.593      41605.286      10726.972      10993.761      11460.383      1377.6583      299.18975      19656.22      -12908.898     -852.41501      147353.42      52.818583      52.818583      52.818583      1.0398888     -2009.5067     -279.04011     -25.173552    
    114000   114000         772.76841     -1233.9756      64114.662      66751.562      25105.583      41645.979      10586.669      11010.431      11628.659      1418.2288      233.7042       19676.43      -12908.143     -857.23543      146524.82      52.719393      52.719393      52.719393      1.0457694     -648.84764     -799.16411     -2253.915     
    115000   115000         761.70187     -640.37499      64566.787      65927.486      24746.055      41181.431      10540.834      10969.643      11253.926      1335.6587      299.37194      19687.775     -12905.777     -862.10388      145697.37      52.619967      52.619967      52.619967      1.0517086     -401.23978     -279.48214     -1240.4031    
    116000   116000         768.29857      12.927069      66701.265      66673.849      24960.368      41713.481      10606.752      11046.461      11512.354      1464.4987      282.03761      19704.403     -12903.026     -863.72384      145424.11      52.587049      52.587049      52.587049      1.0536848      2233.3486     -1945.3417     -249.22565    
    117000   117000         764.95995      832.05889      68368.529      66592.534      24851.903      41740.631      10603.165      11083.5        11477.151      1393.6668      418.68891      19680.085     -12915.627     -858.22169      146356.44      52.69919       52.69919       52.69919       1.0469726      17.445302      1263.8659      1214.8654    
    118000   118000         772.28501     -183.4371       66043.954      66435.564      25089.879      41345.686      10570.552      10993.806      11333.966      1362.5925      308.67703      19691.872     -12915.779     -858.06442      146383.26      52.70241       52.70241       52.70241       1.0467807     -1905.191      -261.60173      1616.4814    
    119000   119000         770.37802     -332.23052      65875.168      66590.486      25027.924      41562.561      10490.495      10965.007      11444.304      1423.9378      439.22686      19703.188     -12903.598     -850.80077      147633         52.851966      52.851966      52.851966      1.0379196     -1442.949       412.11147      34.145924    
    120000   120000         778.28536     -458.63695      65809.617      66785.631      25284.817      41500.814      10759.569      10917.378      11359.355      1342.3226      352.88334      19683.107     -12913.8       -860.79562      145918.81      52.646612      52.646612      52.646612      1.0501126     -821.04791     -551.23046     -3.632485     
    121000   121000         767.20691      569.53589      67483.967      66268.435      24924.902      41343.533      10589.947      10900.914      11394.101      1350.9918      339.37867      19677.791     -12909.591     -858.30563      146342.12      52.697472      52.697472      52.697472      1.047075       215.95928      754.08001      738.56837    
    122000   122000         770.30024     -4.5177259      66454.279      66463.981      25025.398      41438.584      10588.106      10917.133      11326.362      1414.103       402.26779      19697.214     -12906.602     -853.01302      147250.12      52.806237      52.806237      52.806237      1.0406183      1469.3169     -2252.6683      769.79826    
    123000   123000         774.34647      287.59035      67446.091      66830.393      25156.851      41673.542      10718.61       10990.96       11360.584      1356.9307      478.0936       19676.528     -12908.165     -855.64533      146797.12      52.75203       52.75203       52.75203       1.0438296     -400.18197      1523.6521     -260.69906    
    124000   124000         779.29058      567.42838      68419.305      67211.383      25317.475      41893.908      10843.696      10941.532      11595.029      1386.1317      362.54523      19680.384     -12915.41      -860.51691      145966.07      52.652295      52.652295      52.652295      1.0497726     -32.568457     -108.46805      1843.3216    
    125000   125000         777.81062      1524.935       69766.976      66503.076      25269.394      41233.682      10471.781      10977.001      11277.188      1365.7581      368.2518       19681.44      -12907.738     -855.85797      146760.65      52.747661      52.747661      52.747661      1.044089       1596.0983      1292.5343      1686.1724    
    126000   126000         772.10715     -228.38434      66632.745      67125.002      25084.1        42040.901      10704.188      11128.854      11615.893      1394.0403      474.08556      19644.811     -12920.97      -849.88772      147791.61      52.870886      52.870886      52.870886      1.0368057      889.78218     -1274.2817     -300.6535     
    127000   127000         762.50228      384.72693      67073.966      66259.188      24772.059      41487.129      10477.034      11071          11510.148      1364.7772      300.53965      19672.999     -12909.368     -864.9692       145214.73      52.561799      52.561799      52.561799      1.0552041     -1882.7762      1970.7119      1066.2451    
    128000   128000         762.60696      724.44919      67845.429      66300.86       24775.46       41525.4        10509.842      11085.235      11411.418      1423.7058      328.63253      19674.415     -12907.848     -859.18718      146191.97      52.679443      52.679443      52.679443      1.0481504      855.40772      1009.8006      308.13923    
    129000   129000         774.6568      -2027.8492      62380.677      66739.907      25166.933      41572.974      10460.132      11054.571      11643.421      1377.8011      260.35652      19686.383     -12909.69      -852.14417      147400.26      52.824178      52.824178      52.824178      1.0395584     -1820.0495     -1889.3838     -2374.1143    
    130000   130000         779.43604      68.874516      66904.377      66757.642      25322.2        41435.442      10461.852      10892.964      11503.956      1388.7365      405.88786      19694.544     -12912.499     -859.83071      146082.56      52.666298      52.666298      52.666298      1.0489355      13.36661      -1020.1341      1213.391     
    131000   131000         767.08577      69.693841      66824.511      66675.169      24920.966      41754.202      10713.869      11049.287      11363.889      1407.2636      422.96679      19701.033     -12904.105     -854.86536      146931.06      52.768069      52.768069      52.768069      1.0428781      1241.6687     -913.84545     -118.74173    
    132000   132000         776.20357     -581.26518      65326.314      66559.122      25217.184      41341.938      10829.133      11033.363      11099.777      1340.912       242.39972      19705.659     -12909.306     -863.70608      145427.1       52.58741       52.58741       52.58741       1.0536632     -675.3229       368.79197     -1437.2646    
    133000   133000         768.15824     -874.79593      64616.036      66462.638      24955.809      41506.83       10728.716      10975.139      11309.925      1359.6982      378.49119      19671.38      -12916.52      -867.80193      144740.71      52.504545      52.504545      52.504545      1.0586598     -824.98537     -1906.0325      106.6301     
    134000   134000         777.08104      1245.5785      69826.929      67170.553      25245.691      41924.861      10805.674      11137.419      11368.823      1391.112       440.29698      19690.333     -12908.797     -858.95163      146232.06      52.684258      52.684258      52.684258      1.0478631      766.00718      1155.5353      1815.1929    
    135000   135000         773.21179     -314.18749      65997.913      66666.855      25119.988      41546.867      10810.875      10881.332      11383.142      1375.524       330.72418      19682.083     -12916.813     -860.37511      145990.13      52.655187      52.655187      52.655187      1.0495996     -485.78977     -260.53124     -196.24147    
    136000   136000         769.76122     -922.98876      64264.929      66232.485      25007.886      41224.599      10576.582      10758.535      11418.262      1379.4239      302.27805      19704.608     -12915.09      -859.32337      146168.81      52.67666       52.67666       52.67666       1.0483165     -1129.0832     -784.6743      -855.20879    
    137000   137000         754.17788     -735.16149      64940.661      66489.187      24501.617      41987.57       10652.034      11069.73       11823.533      1393.3439      290.20233      19676.768     -12918.041     -869.66412      144430.78      52.467043      52.467043      52.467043      1.0609316     -331.75836     -1163.3107     -710.41544    
    138000   138000         762.8314       461.95845      67506.591      66525.91       24782.751      41743.159      10837.44       11123.82       11309.368      1367.0293      351.22809      19670.403     -12916.13      -862.90401      145562.27      52.603698      52.603698      52.603698      1.0526847      222.3559      -74.948778      1238.4682    
    139000   139000         766.97007     -840.0674       64628.647      66406.484      24917.208      41489.276      10484.492      11109.12       11443.543      1347.4037      337.5336       19683.363     -12916.179     -865.5843       145111.54      52.549346      52.549346      52.549346      1.0559545     -1126.7173     -1054.7893     -338.69559    
    140000   140000         772.02281     -809.77331      65383.923      67113.494      25081.36       42032.134      10802.877      11137.744      11435.097      1383.3244      466.36873      19715.412     -12908.687     -857.65404      146453.31      52.710815      52.710815      52.710815      1.0462801      496.92215     -1669.6789     -1256.5631    
    141000   141000         778.93427     -339.93922      66096.059      66825.341      25305.899      41519.442      10581.355      10977.176      11457.317      1329.1181      383.92737      19693.681     -12903.132     -853.87291      147101.83      52.788505      52.788505      52.788505      1.0416674      141.90971     -813.40609     -348.32127    
    142000   142000         767.99183     -1808.9537      62726.08       66606.926      24950.402      41656.524      10582.083      11042.138      11503.646      1356.943       404.91811      19677.689     -12910.893     -853.8631       147103.52      52.788707      52.788707      52.788707      1.0416554     -1510.0245     -2485.8769     -1430.9596    
    143000   143000         769.32383     -894.53453      64965.452      66860.473      24993.676      41866.797      10656.292      10948.551      11731.062      1404.6458      328.2939       19707.495     -12909.543     -864.70968      145258.31      52.567057      52.567057      52.567057      1.0548875      1249.6996     -295.16914     -3638.134     
    144000   144000         767.16896      97.747917      66621.962      66413.834      24923.669      41490.165      10436.93       11100.552      11421.917      1355.8106      382.05746      19700.16      -12907.262     -860.32759      145998.19      52.656157      52.656157      52.656157      1.0495416     -96.251459     -156.54321      546.03843    
    145000   145000         783.16988     -1102.5673      64892.098      67256.229      25443.505      41812.724      10669.207      10943.514      11656.162      1413.733       360.9929       19680.626     -12911.511     -854.32032      147024.8       52.779288      52.779288      52.779288      1.0422132     -1246.7226     -471.93596     -1589.0434    
    146000   146000         765.69752     -396.038        65589.83       66435.225      24875.865      41559.36       10429.206      11012.49       11597.846      1398.0515      353.25116      19686.961     -12918.445     -858.1519       146368.34      52.700619      52.700619      52.700619      1.0468874      2276.8277     -2615.6027     -849.33898    
    147000   147000         775.15541      941.38617      69179.824      67183.85       25183.132      42000.718      11033.012      11228.675      11281.684      1414.8585      273.73187      19685.046     -12916.289     -863.97294      145382.18      52.581995      52.581995      52.581995      1.0539887      2066.2458      2027.6533     -1269.7406    
    148000   148000         769.57822     -193.76481      66462.601      66877.582      25001.941      41875.642      10879.331      10914.117      11453.972      1431.0152      375.23519      19719.402     -12897.431     -855.33075      146851.11      52.758497      52.758497      52.758497      1.0434458     -529.45366      18.540497     -70.381275    
    149000   149000         766.52412     -125.71908      65951.61       66214.321      24902.72       41311.601      10570.758      10867.877      11501.47       1342.3475      236.49216      19703.009     -12910.353     -876.61625      143285.36      52.327976      52.327976      52.327976      1.0694127     -320.83077     -763.94237      707.61589    
    150000   150000         781.25094     -224.40316      66400.819      66878.666      25381.163      41497.503      10914.826      10983.057      11208.366      1334.4408      262.70587      19698.503     -12904.395     -860.25451      146010.59      52.657648      52.657648      52.657648      1.0494525      50.101276      206.91099     -930.22174    
    151000   151000         763.12337     -589.62091      64958.952      66220.181      24792.237      41427.944      10713.014      11197.254      11115.215      1327.3175      275.94251      19707.79      -12908.588     -856.37931      146671.3       52.736955      52.736955      52.736955      1.044725      -510.07164     -915.2789      -343.51221    
    152000   152000         768.49617      238.1812       66995.558      66491.778      24966.787      41524.99       10702.636      10939.403      11449.401      1368.3554      274.82238      19698.306     -12907.933     -866.0714       145029.93      52.539493      52.539493      52.539493      1.0565487     -1993.1693      965.15373      1742.5591    
    153000   153000         775.37796      1540.6422      70536.254      67234.269      25190.362      42043.907      10863.957      11318.849      11160.949      1399.3453      522.01202      19685.763     -12906.969     -854.70038      146959.42      52.771464      52.771464      52.771464      1.0426768      1514.0231      1171.7582      1936.1454    
    154000   154000         774.54334      1406.7436      69532.048      66547.037      25163.247      41383.791      10543.242      11059.889      11272.902      1397.2953      305.04623      19712.189     -12906.774     -863.28926      145497.32      52.595872      52.595872      52.595872      1.0531547      223.38959      2203.1063      1793.735     
    155000   155000         768.4846       561.35171      67713.07       66512.247      24966.411      41545.836      10567.893      11073.714      11379.337      1358.8841      385.3453       19687.883     -12907.221     -856.33413      146679.04      52.737882      52.737882      52.737882      1.0446699      1813.4893     -301.27961      171.84546    
    156000   156000         769.00663     -460.30599      65424.987      66407.33       24983.371      41423.959      10622.22       11076.779      11322.804      1348.5546      285.69522      19677.315     -12909.408     -858.36178      146332.55      52.696323      52.696323      52.696323      1.0471435     -779.65157     -825.07547      223.80907    
    157000   157000         772.52273      1960.0969      71254.815      67146.041      25097.602      42048.439      10601.478      11337.658      11555.924      1433.581       326.02001      19696.441     -12902.662     -873.88126      143733.79      52.382509      52.382509      52.382509      1.0660762      1066.4869      3713.6623      1100.1414    
    158000   158000         771.94909      101.67778      66898.906      66680.02       25078.965      41601.054      10721.954      11012.735      11312          1347.334       427.37876      19690.827     -12911.174     -850.93099      147610.41      52.84927       52.84927       52.84927       1.0380784      992.95653     -1089.5688      401.64556    
    159000   159000         770.75766      688.54698      68017.959      66544.749      25040.258      41504.49       10479.255      11179.59       11298.975      1358.5738      410.56211      19672.818     -12895.284     -856.16231      146708.48      52.74141       52.74141       52.74141       1.0444603      2432.4426      692.23051     -1059.0322    
    160000   160000         774.29922      312.48359      67485.44       66818.13       25155.316      41662.814      10692.264      11089.57       11325.775      1371.8729      379.37737      19703.286     -12899.33      -857.80161      146428.11      52.707792      52.707792      52.707792      1.0464601     -339.78627     -792.73088      2069.9679    
    161000   161000         768.23186      1423.4787      69627.459      66584.906      24958.2        41626.705      10639.046      10914.917      11396.445      1362.8239      560.74959      19657.679     -12904.954     -857.03794      146558.59      52.723442      52.723442      52.723442      1.0455285      2248.3704     -21.486573      2043.5521    
    162000   162000         757.33852     -1265.8842      63456.057      66176.121      24604.299      41571.822      10518.611      11122.926      11485.131      1345.1602      296.03343      19696.564     -12892.604     -852.51508      147336.13      52.816516      52.816516      52.816516      1.0400109     -1513.5418     -361.24414     -1922.8668    
    163000   163000         771.36574      146.61222      66915.816      66604.408      25060.013      41544.394      10728.048      11169.015      11201.12       1370.5344      276.78985      19703.833     -12904.945     -862.43729      145641.05      52.613186      52.613186      52.613186      1.0521153      234.16917     -458.18506      663.85254    
    164000   164000         771.46211      946.97957      69055.459      67049.332      25063.144      41986.188      10810.092      11147.934      11467.826      1408.1254      368.6295       19687.047     -12903.466     -864.70786      145258.62      52.567094      52.567094      52.567094      1.0548853      1510.1042      254.49294      1076.3416    
    165000   165000         768.1382      -314.96767      66028.805      66698.923      24955.158      41743.766      10546.924      11217.615      11550.273      1392.8289      224.66922      19717.8       -12906.345     -860.99715      145884.65      52.642504      52.642504      52.642504      1.0503584     -1665.2527     -306.42293      1026.7727    
    166000   166000         774.73149     -1342.8002      63551.639      66417.428      25169.36       41248.068      10628.232      10913.491      11319.445      1310.1846      311.32308      19676.53      -12911.137     -858.3302       146337.94      52.69697       52.69697       52.69697       1.0471049     -1196.2261     -536.72018     -2295.4542    
    167000   167000         774.45865      28.108565      66978.987      66918.738      25160.496      41758.242      10663.885      10970.393      11555.479      1408.1158      353.79462      19709.224     -12902.649     -854.62018      146973.21      52.773115      52.773115      52.773115      1.042579      -698.36222      362.06404      420.62388    
    168000   168000         761.36112     -656.44946      65457.03       66877.653      24734.985      42142.668      10837.794      11042.947      11605.152      1433.9828      421.40127      19697.825     -12896.434     -846.46594      148389.04      52.942033      52.942033      52.942033      1.0326314      425.88104     -445.91526     -1949.3142    
    169000   169000         768.58906      464.20082      67513.569      66522.017      24969.805      41552.211      10248.859      11154.024      11633.921      1420.1443      313.92717      19688.022     -12906.685     -857.58574      146464.97      52.712214      52.712214      52.712214      1.0461968     -184.2569       1534.8922      41.967183    
    170000   170000         758.91758     -472.43195      65366.248      66375.04       24655.599      41719.44       10858.325      10903.083      11453.849      1386.3553      355.44787      19668.169     -12905.788     -857.87649      146415.33      52.706258      52.706258      52.706258      1.0465515     -783.55129     -282.86874     -350.87582    
    171000   171000         777.95173     -218.61791      66438.552      66907.41       25273.978      41633.432      10482.566      10896.266      11723.019      1356.0971      401.84068      19678.353     -12904.71      -854.1461       147054.78      52.782876      52.782876      52.782876      1.0420006     -1437.746       135.57171      646.32055    
    172000   172000         762.44103      735.71792      68029.079      66451.534      24770.069      41681.465      10636.478      10964.876      11414.09       1423.0047      462.24311      19682.511     -12901.737     -854.31242      147026.15      52.779451      52.779451      52.779451      1.0422035     -211.38651      304.75828      2113.782     
    173000   173000         769.84684     -855.69957      65123.449      66942.56       25010.668      41931.892      10747.124      11012.745      11714.376      1389.7348      304.52224      19670.152     -12906.763     -861.68684      145767.89      52.628455      52.628455      52.628455      1.0511998     -850.3797      -1099.0503     -617.66873    
    174000   174000         764.16612     -872.09768      64699.819      66560.794      24826.113      41734.681      10827.948      11072.952      11482.715      1335.9389      264.22787      19662.134     -12911.235     -858.44345      146318.63      52.694652      52.694652      52.694652      1.0472431     -3434.9666     -627.74579      1446.4194    
[...]
    955000   955000         769.83213      1269.9242      69467.193      66768.487      25010.19       41758.297      10758.499      11265.612      11216.478      1374.706       362.64977      19676.514     -12896.162     -862.00413      145714.23      52.621997      52.621997      52.621997      1.0515869      813.07269      1335.884       1660.8158    
    956000   956000         768.51388      818.65564      68534.349      66774.006      24967.363      41806.643      10808.569      11187.179      11059.606      1372.3141      576.92793      19702.263     -12900.215     -851.90489      147441.66      52.829123      52.829123      52.829123      1.0392665      939.14754      968.41466      548.40471    
    957000   957000         771.61934      711.26471      68307.421      66778.808      25068.252      41710.556      10707.891      10970.508      11352.238      1389.4554      481.93104      19700.933     -12892.401     -852.35596      147363.63      52.819802      52.819802      52.819802      1.0398168      2200.7229      300.91182     -367.84063    
    958000   958000         771.70753     -469.50165      65778.069      66783.475      25071.118      41712.358      10838.078      10962.117      11351.327      1361.6468      391.50583      19701.424     -12893.741     -855.42705      146834.58      52.756517      52.756517      52.756517      1.0435633     -1293.284       163.77446     -278.99542    
    959000   959000         772.7644      -700.66971      65234.054      66719.063      25105.453      41613.61       10712.556      11232.549      11233.574      1357.2974      293.55512      19688.115     -12904.037     -864.31402      145324.81      52.575077      52.575077      52.575077      1.0544048     -841.03159     -1117.6555     -143.32202    
    960000   960000         781.21333      963.35942      68787.43       66743.493      25379.94       41363.553      10406.325      11127.408      11376.137      1370.3479      298.92271      19692.256     -12907.844     -863.39226      145479.96      52.593781      52.593781      52.593781      1.0532803      1221.4326      1538.5053      130.14038    
    961000   961000         758.44464     -2249.7764      61723.483      66579.63       24640.235      41939.396      10685.494      11030.074      11611.193      1398.2736      439.27763      19676.161     -12901.078     -848.66198      148005.06      52.896328      52.896328      52.896328      1.0353104     -3563.1719     -1178.7059     -2007.4514    
    962000   962000         773.79166     -720.45596      65051.297      66586.409      25138.826      41447.582      10528.192      11128.002      11411.109      1392.2773      186.86548      19696.939     -12895.803     -859.71521      146102.18      52.668656      52.668656      52.668656      1.0487946     -1842.1973     -343.13185      23.961218    
    963000   963000         771.51882     -736.42426      65672.062      67249.748      25064.987      42184.761      10837.556      11117.131      11528.672      1411.3536      485.58425      19702.392     -12897.928     -855.05666      146898.18      52.764133      52.764133      52.764133      1.0431115      57.941623     -873.26416     -1393.9502    
    964000   964000         764.65813      1221.2059      69019.152      66421.258      24842.098      41579.161      10648.945      11024.763      11257.86       1374.0853      475.12331      19694.927     -12896.543     -861.10241      145866.82      52.640359      52.640359      52.640359      1.0504869      851.44612      1099.2496      1712.9221    
    965000   965000         771.96397     -261.75068      66281.291      66841.092      25079.449      41761.643      10618.752      11117.248      11496.6        1343.2543      406.63419      19682.87      -12903.716     -856.52747      146645.93      52.733914      52.733914      52.733914      1.0449057     -673.61222     -957.34586      845.70605    
    966000   966000         766.37854      1131.6705      69354.843      66936.735      24897.99       42038.745      10783.544      11223.309      11358.999      1423.2475      454.23057      19690.41      -12894.995     -857.29721      146514.26      52.718127      52.718127      52.718127      1.0458448      1205.9457      1151.4685      1037.5972    
    967000   967000         767.94964      1741.12        69996.631      66248.637      24949.032      41299.605      10678.158      10718.576      11345.367      1381.5877      393.46286      19688.793     -12906.339     -850.97555      147602.68      52.848348      52.848348      52.848348      1.0381328      1816.0493      2307.2752      1100.0354    
    968000   968000         773.52716      560.07614      68056.504      66861.561      25130.233      41731.328      10690.473      11241.855      11290.561      1390.2619      350.15928      19670.739     -12902.721     -858.59278      146293.18      52.691597      52.691597      52.691597      1.0474253      272.58356      120.71915      1286.9257    
    969000   969000         770.86723      869.22438      68175.687      66323.201      25043.818      41279.383      10414.836      10922.411      11493.131      1363.4889      307.59736      19682.798     -12904.879     -859.53612      146132.63      52.672314      52.672314      52.672314      1.0485761      1665.8033      732.95316      208.9167     
    970000   970000         764.4776      -1319.1819      63802.48       66648.906      24836.233      41812.673      10730.869      10996.667      11473.123      1402.3071      404.50905      19705.257     -12900.059     -848.96934      147951.48      52.889944      52.889944      52.889944      1.0356853     -1744.602      -489.77733     -1723.1663    
    971000   971000         772.74999      492.69533      67935.975      66891.463      25104.985      41786.478      10818.031      11018.011      11403.26       1409.1664      367.8585       19679.265     -12909.113     -864.07694      145364.68      52.579885      52.579885      52.579885      1.0541156     -95.04507       794.07439      779.05669    
    972000   972000         768.9789      -440.08463      65335.947      66266.871      24982.47       41284.401      10607.208      10858.554      11397.818      1351.8252      331.65508      19657.232     -12919.891     -865.9825       145044.81      52.54129       52.54129       52.54129       1.0564402      1454.3054     -2402.9847     -371.57463    
    973000   973000         772.61149      151.10108      67182.773      66860.53       25100.485      41760.045      10698.088      10965.716      11584.179      1393.3212      316.50636      19700.51      -12898.276     -858.95703      146231.15      52.684148      52.684148      52.684148      1.0478696      499.76416      379.51105     -425.97197    
    974000   974000         770.14917      168.45154      66949.287      66592.597      25020.49       41572.107      10853.629      10984.578      11298.017      1367.0332      312.88172      19666.146     -12910.179     -865.10827      145191.39      52.558983      52.558983      52.558983      1.0553737     -818.20237     -50.592609      1374.1496    
    975000   975000         761.97667     -50.125425      65729.922      65836.883      24754.983      41081.901      10234.247      11012.774      11405.588      1354.312       260.9686       19708.51      -12894.499     -858.45759      146316.22      52.694363      52.694363      52.694363      1.0472604     -1115.4051     -42.675264      1007.7041    
    976000   976000         776.93853     -1177.5408      64454.137      66969.869      25241.062      41728.808      10898.381      10885.327      11407.432      1409.6253      340.42974      19685.531     -12897.918     -857.43017      146491.55      52.715402      52.715402      52.715402      1.046007      -1812.2246     -591.15155     -1129.2463    
    977000   977000         758.64069      567.61836      67510.087      66311.999      24646.604      41665.395      10626.838      10954.315      11607.746      1407.8252      301.08264      19680.036     -12912.447     -867.87064      144729.25      52.50316       52.50316       52.50316       1.0587436      1592.192       25.979655      84.683433    
    978000   978000         774.87109      100.0291       66546.864      66334.144      25173.895      41160.25       10441.259      11056.351      11335.11       1329.5077      202.35053      19701.916     -12906.244     -861.40356      145815.82      52.634223      52.634223      52.634223      1.0508542      702.78759      576.98431     -979.6846     
    979000   979000         772.46104      111.02246      66973.415      66735.929      25095.597      41640.331      10545.288      11079.048      11559.76       1420.8402      281.32242      19673.14      -12919.066     -856.36469      146673.81      52.737255      52.737255      52.737255      1.0447072     -761.44125      1188.3608     -93.852186    
    980000   980000         780.82952      1818.735       70878.409      66986.677      25367.471      41619.205      10817.681      10985.172      11180.402      1433.0332      429.69696      19687.686     -12914.465     -856.07865      146722.82      52.743128      52.743128      52.743128      1.0443582      1934.5483      2930.0383      591.61832    
    981000   981000         762.47734     -706.96416      64260.294      65765.458      24771.249      40994.209      10543.588      10734.464      11425.69       1345.2535      168.15007      19690.969     -12913.906     -860.40059      145985.8       52.654667      52.654667      52.654667      1.0496307     -2084.504       745.07685     -781.46535    
    982000   982000         772.10068     -216.77407      66146.038      66607.151      25083.89       41523.261      10625.28       11016.284      11318.496      1400.4206      406.44441      19667.026     -12910.69      -861.16694      145855.89      52.639044      52.639044      52.639044      1.0505656     -215.08681     -1219.0208      783.78543    
    983000   983000         767.21184      164.37298      67093.219      66742.986      24925.062      41817.924      10721.698      11039.097      11487.437      1417.6375      350.9919       19711.516     -12910.454     -859.72822      146099.97      52.66839       52.66839       52.66839       1.0488104     -967.91056      335.2505       1125.779     
    984000   984000         768.64713      1541.1268      70051.464      66751.345      24971.692      41779.654      10734.434      11221.1        11286.729      1335.5869      391.04494      19706.457     -12895.699     -855.45277      146830.16      52.755988      52.755988      52.755988      1.0435947     -339.00818      2790.8503      2171.5383    
    985000   985000         780.79136     -610.42636      65754.274      67066.764      25366.232      41700.533      10568.1        11138.497      11422.47       1374.471       439.8036       19663.126     -12905.935     -851.96995      147430.4       52.827778      52.827778      52.827778      1.0393459      475.2765      -1856.1168     -450.43877    
    986000   986000         761.59109      487.03977      67314.73       66273.131      24742.456      41530.675      10696.826      11166.49       11263.385      1337.6969      282.49812      19685.054     -12901.275     -856.54698      146642.59      52.733514      52.733514      52.733514      1.0449295      463.93438      634.94753      362.2374     
    987000   987000         771.4428       2632.6093      72181.934      66652.751      25062.517      41590.235      10735.587      11203.675      11069.706      1377.6907      376.91078      19724.191     -12897.527     -872.19318      144011.98      52.416282      52.416282      52.416282      1.0640168      3289.5387      2667.4551      1940.8341    
    988000   988000         779.52814     -689.09579      65597.486      67047.236      25325.192      41722.043      10810.851      11175.688      11394.329      1367.1727      195.2304       19674.885     -12896.113     -870.71029      144257.25      52.446021      52.446021      52.446021      1.0622078      918.87393     -1906.181      -1079.9803    
    989000   989000         766.07335     -877.48633      64327.467      66194.071      24888.075      41305.995      10614.363      10938.682      11389.34       1391.635       179.00577      19692.608     -12899.638     -861.14327      145859.9       52.639526      52.639526      52.639526      1.0505367     -602.93603     -1911.0515     -118.47147    
    990000   990000         765.60394      361.10001      67312.229      66550.881      24872.825      41678.056      10508.102      11140.692      11514.492      1440.9763      324.45247      19663.215     -12913.874     -868.82323      144570.57      52.483964      52.483964      52.483964      1.0599057     -244.53704      106.90042      1220.9367    
    991000   991000         771.14269     -652.37905      65475.751      66849.02       25052.767      41796.254      10701.306      10935.288      11780.128      1423.3782      171.12422      19690.617     -12905.587     -870.22479      144337.73      52.455773      52.455773      52.455773      1.0616155     -785.24789     -1635.8047      463.91542    
    992000   992000         765.75986     -832.63335      64854.526      66626.824      24877.891      41748.933      10769.155      11077.723      11510.395      1390.4365      216.40436      19692.619     -12907.8       -860.60573      145951         52.650483      52.650483      52.650483      1.0498809     -1290.9048     -1485.7991      278.80375    
    993000   993000         770.60863     -783.30652      64636.232      66303.887      25035.417      41268.47       10519.871      10884.507      11506.033      1354.458       224.49982      19684.289     -12905.188     -860.42429      145981.78      52.654184      52.654184      52.654184      1.0496596     -1528.0235     -595.46204     -226.43405    
    994000   994000         775.92858     -416.59602      65811.289      66689.626      25208.25       41481.375      10611.178      11032.252      11484.613      1412.47        157.22658      19684.857     -12901.22      -868.84355      144567.19      52.483555      52.483555      52.483555      1.0599305     -246.8857       333.93648     -1336.8388    
    995000   995000         781.73362      1026.3694      69459.404      67272.038      25396.844      41875.195      10815.046      11022.461      11592.312      1370.1131      292.20032      19690.743     -12907.681     -859.54683      146130.81      52.672095      52.672095      52.672095      1.0485892      361.44155      1248.3949      1469.2717    
    996000   996000         767.56037     -693.4977       65028.389      66501.812      24936.385      41565.427      10643.65       11041.959      11327.842      1392.1996      389.05166      19677.593     -12906.869     -862.19353      145682.22      52.618143      52.618143      52.618143      1.051818      -2794.5854     -247.75029      961.84258    
    997000   997000         776.98321      669.2899       68502.851      67076.788      25242.513      41834.275      10950.211      11016.472      11427.73       1347.9491      311.39235      19697.427     -12916.906     -859.73138      146099.44      52.668326      52.668326      52.668326      1.0488143      1110.806      -335.8036       1232.8673    
    998000   998000         769.13221     -622.911        65383.152      66706.132      24987.451      41718.681      11071.179      10868.653      11395.514      1374.5899      265.31968      19661.254     -12917.828     -862.50155      145630.2       52.611879      52.611879      52.611879      1.0521937     -1187.4642     -829.41566      148.14682    
    999000   999000         753.11779     -1618.5464      62530.922      65988.274      24467.177      41521.097      11028.75       10789.826      11404.296      1363.7212      193.69337      19656.928     -12916.118     -857.56843      146467.93      52.712568      52.712568      52.712568      1.0461756     -278.97234     -427.41848     -4149.2484    
   1000000   1000000        775.28447      1919.5792      70739.852      66670.131      25187.325      41482.807      10959.684      11144.987      10924.667      1374.1816      323.76218      19670.237     -12914.712     -864.02974      145372.62      52.580843      52.580843      52.580843      1.054058       2111.6158      2412.7134      1234.4084    
Loop time of 5624.38 on 1 procs for 1000000 steps with 10900 atoms

Performance: 15.362 ns/day, 1.562 hours/ns, 177.797 timesteps/s, 1.938 Matom-step/s
100.0% CPU use with 1 MPI tasks x 1 OpenMP threads

MPI task timing breakdown:
Section |  min time  |  avg time  |  max time  |%varavg| %total
---------------------------------------------------------------
Pair    | 2517.6     | 2517.6     | 2517.6     |   0.0 | 44.76
Bond    | 760.22     | 760.22     | 760.22     |   0.0 | 13.52
Kspace  | 1097.4     | 1097.4     | 1097.4     |   0.0 | 19.51
Neigh   | 655.41     | 655.41     | 655.41     |   0.0 | 11.65
Comm    | 79.586     | 79.586     | 79.586     |   0.0 |  1.42
Output  | 21.826     | 21.826     | 21.826     |   0.0 |  0.39
Modify  | 321.68     | 321.68     | 321.68     |   0.0 |  5.72
Other   |            | 170.6      |            |       |  3.03

Nlocal:          10900 ave       10900 max       10900 min
Histogram: 1 0 0 0 0 0 0 0 0 0
Nghost:          21553 ave       21553 max       21553 min
Histogram: 1 0 0 0 0 0 0 0 0 0
Neighs:              0 ave           0 max           0 min
Histogram: 1 0 0 0 0 0 0 0 0 0
FullNghs:  5.20195e+06 ave 5.20195e+06 max 5.20195e+06 min
Histogram: 1 0 0 0 0 0 0 0 0 0

Total # of neighbors = 5201952
Ave neighs/atom = 477.2433
Ave special neighs/atom = 5.6385321
Neighbor list builds = 83643
Dangerous builds = 0

# --- Cleanup ---
unfix npt_fix

undump dump_npt

# --- Write Output ---
write_dump all custom npt_production_last.dump id type mol x y z xu yu zu vx vy vz modify sort id
write_data /home/arz2/PolyJarvis/data/PEEK2/lammps/npt_production/npt_production_out.data
System init for write_data ...
PPPM Kokkos initialization ...
  using 12-bit tables for long-range coulomb
  G vector (1/distance) = 0.3060503
  grid = 40 40 40
  stencil order = 5
  estimated absolute RMS force accuracy = 0.00037241485
  estimated relative force accuracy = 1.1215163e-06
  using double precision cuFFT
  3d grid and FFT values/proc = 103823 64000
Generated 21 of 21 mixed pair_coeff terms from sixthpower/sixthpower mixing rule

print "STAGE COMPLETE: NPT T=770.0->770.0K P=1.0->1.0atm steps=1000000"
STAGE COMPLETE: NPT T=770.0->770.0K P=1.0->1.0atm steps=1000000
quit
 |            | 170.6      |            |       |  3.03

Nlocal:          10900 ave       10900 max       10900 min
Histogram: 1 0 0 0 0 0 0 0 0 0
Nghost:          21553 ave       21553 max       21553 min
Histogram: 1 0 0 0 0 0 0 0 0 0
Neighs:              0 ave           0 max           0 min
Histogram: 1 0 0 0 0 0 0 0 0 0
FullNghs:  5.20195e+06 ave 5.20195e+06 max 5.20195e+06 min
Histogram: 1 0 0 0 0 0 0 0 0 0

Total # of neighbors = 5201952
Ave neighs/atom = 477.2433
Ave special neighs/atom = 5.6385321
Neighbor list builds = 83643
Dangerous builds = 0
System init for write_data ...
PPPM Kokkos initialization ...
  using 12-bit tables for long-range coulomb
  G vector (1/distance) = 0.3060503
  grid = 40 40 40
  stencil order = 5
  estimated absolute RMS force accuracy = 0.00037241485
  estimated relative force accuracy = 1.1215163e-06
  using double precision cuFFT
  3d grid and FFT values/proc = 103823 64000
Generated 21 of 21 mixed pair_coeff terms from sixthpower/sixthpower mixing rule
STAGE COMPLETE: NPT T=770.0->770.0K P=1.0->1.0atm steps=1000000
