units real
atom_style full
boundary p p p

# --- Force Field Styles ---
pair_style lj/class2/coul/long 9.5 9.5
kspace_style pppm 1e-6
dielectric 1.000000
bond_style class2
angle_style class2
dihedral_style class2
improper_style class2
special_bonds lj/coul 0 0 1
pair_modify mix sixthpower tail yes
neighbor 2.0 bin
neigh_modify delay 0 every 1 check yes
neigh_modify one 4000
# KOKKOS: package loaded via -pk kokkos on the command line

read_data /home/alexzhao/PolyJarvis/data/PEG4/lammps/equil/npt_cool_melt/npt_cool_melt_out.data
Reading data file ...
  orthogonal box = (3.3050011 3.3050011 3.3050011) to (46.016132 46.016132 46.016132)
  1 by 1 by 1 MPI processor grid
  reading atoms ...
  7020 atoms
  reading velocities ...
  7020 velocities
  scanning bonds ...
  4 = max bonds/atom
  scanning angles ...
  10 = max angles/atom
  scanning dihedrals ...
  16 = max dihedrals/atom
  scanning impropers ...
  7 = max impropers/atom
  orthogonal box = (3.3050011 3.3050011 3.3050011) to (46.016132 46.016132 46.016132)
  1 by 1 by 1 MPI processor grid
  reading bonds ...
  7010 bonds
  reading angles ...
  13000 angles
  reading dihedrals ...
  14970 dihedrals
  reading impropers ...
  8000 impropers
Finding 1-2 1-3 1-4 neighbors ...
  special bond factors lj:    0        0        1       
  special bond factors coul:  0        0        1       
     4 = max # of 1-2 neighbors
     6 = max # of 1-3 neighbors
     8 = max # of special neighbors
  special bonds CPU = 0.005 seconds
  read_data CPU = 0.277 seconds
include /home/alexzhao/PolyJarvis/data/PEG4/lammps/equil/emc_build.params
# LAMMPS parameters created by EMC v9.4.4, build Jul 31 2025 20:33:44

# Variables

variable	seed		index	409966
variable	ntotal		index	7020
variable	fshape		index	1
variable	output		index	emc_build
variable	field		index	pcff/pcff
variable	location1	index	~/emc/field/
variable	nav		index	0.6022141179
variable	temperature	index	300
variable	radius		index	5
variable	nrelax		index	100
variable	weight_nonbond	index	0.0001
variable	weight_bond	index	0.0001
variable	weight_focus	index	1
variable	cutoff		index	9.5
variable	charge_cutoff	index	9.5
variable	kappa		index	4
variable	density1	index	0.61
variable	lprevious	index	0
variable	lphase		index	49.3211329242
variable	f_poly		index	10
variable	chem_repeat	index	*CCO*
variable	chem_cap	index	*[H]
variable	lg_repeat	index	7
variable	lg_cap		index	1
variable	norm_poly	index	100
variable	l_poly		index	702
variable	mg_repeat	index	16.04303
variable	mg_cap		index	0
variable	m_poly		index	1604.303
variable	n_poly		index	10
variable	mtotal		index	44073.7394
variable	nphase1		index	7020
variable	mphase1		index	44073.7394
variable	vphase1		index	119977.313144
variable	lbox		index	49.3211329242
variable	lphase1		index	49.3211329242
variable	lxx		index	49.3211329242
variable	lyy		index	49.3211329242
variable	lzz		index	49.3211329242
variable	lzy		index	0
variable	lzx		index	0
variable	lyx		index	0
variable	vtotal		index	119977.313144
variable	nl_poly		index	10

# Types

variable	type_c		index	1
variable	type_hc		index	2
variable	type_ho		index	3
variable	type_oc		index	4
variable	type_oh		index	5

variable	type_bond_c_c	index	1
variable	type_bond_c_hc	index	2
variable	type_bond_c_oc	index	3
variable	type_bond_c_oh	index	4
variable	type_bond_ho_oh	index	5

variable	type_angle_c_c_hc index	1
variable	type_angle_c_c_oc index	2
variable	type_angle_c_c_oh index	3
variable	type_angle_c_oc_c index	4
variable	type_angle_c_oh_ho index	5
variable	type_angle_hc_c_hc index	6
variable	type_angle_hc_c_oc index	7
variable	type_angle_hc_c_oh index	8

# Clusters

variable	n0_poly		index	1
variable	n1_poly		index	10
variable	nl_poly		index	10

# Flags

variable	flag_charged	index	1

# Masses

mass		1    12.01115  # c
mass		2     1.00797  # hc
mass		3     1.00797  # ho
mass		4    15.99940  # oc
mass		5    15.99940  # oh

# Potentials

pair_modify	mix sixthpower tail yes
special_bonds	lj/coul 0 0 1

# Pair Coeffs

pair_coeff	 1  1    0.05400    4.01000  # c,c
pair_coeff	 2  2    0.02000    2.99500  # hc,hc
pair_coeff	 3  3    0.01300    1.09800  # ho,ho
pair_coeff	 4  4    0.24000    3.53500  # oc,oc
pair_coeff	 5  5    0.24000    3.53500  # oh,oh

# Bond Coeffs

bond_coeff	1    1.53000  299.67000 -501.77000  679.81000  # c,c
bond_coeff	2    1.10100  345.00000 -691.89000  844.60000  # c,hc
bond_coeff	3    1.42000  400.39540 -835.19510 1313.01420  # c,oc
bond_coeff	4    1.42000  400.39540 -835.19510 1313.01420  # c,oh
bond_coeff	5    0.96500  532.50620 -1282.90500 2004.76580  # ho,oh

# Angle Coeffs

angle_coeff	1  110.77000   41.45300  -10.60400    5.12900  # c,c,hc
angle_coeff	2  111.27000   54.53810   -8.36420  -13.08380  # c,c,oc
angle_coeff	3  111.27000   54.53810   -8.36420  -13.08380  # c,c,oh
angle_coeff	4  104.50000   35.74540  -10.00670   -6.27290  # c,oc,c
angle_coeff	5  105.80000   52.70610  -12.10900   -9.86810  # c,oh,ho
angle_coeff	6  107.66000   39.64100  -12.92100   -2.43180  # hc,c,hc
angle_coeff	7  108.72800   58.54460  -10.80880  -12.40060  # hc,c,oc
angle_coeff	8  108.72800   58.54460  -10.80880  -12.40060  # hc,c,oh

# BondBond Coeffs

angle_coeff	1 bb    3.38720    1.53000    1.10100  # c,c,hc
angle_coeff	2 bb   11.43180    1.53000    1.42000  # c,c,oc
angle_coeff	3 bb   11.43180    1.53000    1.42000  # c,c,oh
angle_coeff	4 bb   -7.11310    1.42000    1.42000  # c,oc,c
angle_coeff	5 bb   -9.68790    1.42000    0.96500  # c,oh,ho
angle_coeff	6 bb    5.33160    1.10100    1.10100  # hc,c,hc
angle_coeff	7 bb   23.19790    1.10100    1.42000  # hc,c,oc
angle_coeff	8 bb   23.19790    1.10100    1.42000  # hc,c,oh

# BondAngle Coeffs

angle_coeff	1 ba   20.75400   11.42100    1.53000    1.10100  # c,c,hc
angle_coeff	2 ba    2.68680   20.40330    1.53000    1.42000  # c,c,oc
angle_coeff	3 ba    2.68680   20.40330    1.53000    1.42000  # c,c,oh
angle_coeff	4 ba   -2.81120   -2.81120    1.42000    1.42000  # c,oc,c
angle_coeff	5 ba   28.58000   18.92770    1.42000    0.96500  # c,oh,ho
angle_coeff	6 ba   18.10300   18.10300    1.10100    1.10100  # hc,c,hc
angle_coeff	7 ba    4.61890   55.32700    1.10100    1.42000  # hc,c,oc
angle_coeff	8 ba    4.61890   55.32700    1.10100    1.42000  # hc,c,oh

# Dihedral Coeffs

dihedral_coeff	1   -0.52030    0.00000   -0.30280    0.00000   -0.34500    0.00000  # c,c,oc,c
dihedral_coeff	2   -0.67320    0.00000   -0.47780    0.00000   -0.16700    0.00000  # c,c,oh,ho
dihedral_coeff	3    0.53020    0.00000    0.00000    0.00000   -0.39660    0.00000  # c,oc,c,hc
dihedral_coeff	4   -0.14320    0.00000    0.06170    0.00000   -0.10830    0.00000  # hc,c,c,hc
dihedral_coeff	5   -0.14350    0.00000    0.25300    0.00000   -0.09050    0.00000  # hc,c,c,oc
dihedral_coeff	6   -0.14350    0.00000    0.25300    0.00000   -0.09050    0.00000  # hc,c,c,oh
dihedral_coeff	7    0.18630    0.00000   -0.43380    0.00000   -0.21210    0.00000  # hc,c,oh,ho
dihedral_coeff	8   -0.18200    0.00000   -0.10840    0.00000   -0.70470    0.00000  # oc,c,c,oc
dihedral_coeff	9   -0.18200    0.00000   -0.10840    0.00000   -0.70470    0.00000  # oc,c,c,oh

# MiddleBondTorsion Coeffs

dihedral_coeff	1 mbt   -5.92880   -2.70070   -0.31750    1.42000  # c,c,oc,c
dihedral_coeff	2 mbt    1.24720    0.00000    0.74850    1.42000  # c,c,oh,ho
dihedral_coeff	3 mbt   -6.80070   -4.65460   -1.41010    1.42000  # c,oc,c,hc
dihedral_coeff	4 mbt  -14.26100   -0.53220   -0.48640    1.53000  # hc,c,c,hc
dihedral_coeff	5 mbt  -16.79750   -1.22960   -0.27500    1.53000  # hc,c,c,oc
dihedral_coeff	6 mbt  -16.79750   -1.22960   -0.27500    1.53000  # hc,c,c,oh
dihedral_coeff	7 mbt    0.00000    0.92410   -0.58890    1.42000  # hc,c,oh,ho
dihedral_coeff	8 mbt  -17.25850   -3.61570   -0.83640    1.53000  # oc,c,c,oc
dihedral_coeff	9 mbt  -17.25850   -3.61570   -0.83640    1.53000  # oc,c,c,oh

# EndBondTorsion Coeffs

dihedral_coeff	1 ebt   -0.24560    1.05170   -0.77950    0.47410    1.26350    0.55760    1.53000    1.42000  # c,c,oc,c
dihedral_coeff	2 ebt   -0.58000    0.90040    0.00000    0.00000    0.53430    0.90250    1.53000    0.96500  # c,c,oh,ho
dihedral_coeff	3 ebt   -0.16200    0.15640   -1.14080   -0.60540    1.33390    0.96480    1.42000    1.10100  # c,oc,c,hc
dihedral_coeff	4 ebt    0.21300    0.31200    0.07770    0.21300    0.31200    0.07770    1.10100    1.10100  # hc,c,c,hc
dihedral_coeff	5 ebt    0.96810    0.95510    0.04360    0.59030    0.66690    0.85840    1.10100    1.42000  # hc,c,c,oc
dihedral_coeff	6 ebt    0.96810    0.95510    0.04360    0.59030    0.66690    0.85840    1.10100    1.42000  # hc,c,c,oh
dihedral_coeff	7 ebt   -1.75540    1.31450    0.22630    0.24930    0.68030    0.00000    1.10100    0.96500  # hc,c,oh,ho
dihedral_coeff	8 ebt    1.01650    0.75530   -0.46090    1.01650    0.75530   -0.46090    1.42000    1.42000  # oc,c,c,oc
dihedral_coeff	9 ebt    1.01650    0.75530   -0.46090    1.01650    0.75530   -0.46090    1.42000    1.42000  # oc,c,c,oh

# AngleTorsion Coeffs

dihedral_coeff	1 at   -2.74660    1.48770   -0.89550    0.56760    0.94500    0.07030  111.27000  104.50000  # c,c,oc,c
dihedral_coeff	2 at   -3.59030    2.52250    0.48880    0.87260   -0.35770    0.38880  111.27000  105.80000  # c,c,oh,ho
dihedral_coeff	3 at   -0.77770    0.43400   -0.66530   -1.82340    1.63930    0.51440  104.50000  108.72800  # c,oc,c,hc
dihedral_coeff	4 at   -0.80850    0.55690   -0.24660   -0.80850    0.55690   -0.24660  110.77000  110.77000  # hc,c,c,hc
dihedral_coeff	5 at    2.36680    2.49200   -1.01220   -0.18920    0.49180    0.72730  110.77000  111.27000  # hc,c,c,oc
dihedral_coeff	6 at    2.36680    2.49200   -1.01220   -0.18920    0.49180    0.72730  110.77000  111.27000  # hc,c,c,oh
dihedral_coeff	7 at   -3.40600    1.63960    0.07370    0.00000   -0.28100   -0.59440  108.72800  105.80000  # hc,c,oh,ho
dihedral_coeff	8 at    0.55110    0.97370   -0.66730    0.55110    0.97370   -0.66730  111.27000  111.27000  # oc,c,c,oc
dihedral_coeff	9 at    0.55110    0.97370   -0.66730    0.55110    0.97370   -0.66730  111.27000  111.27000  # oc,c,c,oh

# AngleAngleTorsion Coeffs

dihedral_coeff	1 aat  -19.00590  111.27000  104.50000  # c,c,oc,c
dihedral_coeff	2 aat  -12.10380  111.27000  105.80000  # c,c,oh,ho
dihedral_coeff	3 aat  -16.44380  104.50000  108.72800  # c,oc,c,hc
dihedral_coeff	4 aat  -12.56400  110.77000  110.77000  # hc,c,c,hc
dihedral_coeff	5 aat  -20.20060  110.77000  111.27000  # hc,c,c,oc
dihedral_coeff	6 aat  -20.20060  110.77000  111.27000  # hc,c,c,oh
dihedral_coeff	7 aat  -10.50930  108.72800  105.80000  # hc,c,oh,ho
dihedral_coeff	8 aat  -14.04840  111.27000  111.27000  # oc,c,c,oc
dihedral_coeff	9 aat  -14.04840  111.27000  111.27000  # oc,c,c,oh

# BondBond13 Coeffs

dihedral_coeff	1 bb13    0.00000    1.53000    1.42000  # c,c,oc,c
dihedral_coeff	2 bb13    0.00000    1.53000    0.96500  # c,c,oh,ho
dihedral_coeff	3 bb13    0.00000    1.42000    1.10100  # c,oc,c,hc
dihedral_coeff	4 bb13    0.00000    1.10100    1.10100  # hc,c,c,hc
dihedral_coeff	5 bb13    0.00000    1.10100    1.42000  # hc,c,c,oc
dihedral_coeff	6 bb13    0.00000    1.10100    1.42000  # hc,c,c,oh
dihedral_coeff	7 bb13    0.00000    1.10100    0.96500  # hc,c,oh,ho
dihedral_coeff	8 bb13    0.00000    1.42000    1.42000  # oc,c,c,oc
dihedral_coeff	9 bb13    0.00000    1.42000    1.42000  # oc,c,c,oh

# Improper Coeffs

improper_coeff	1    0.00000    0.00000  # c,c,hc,hc
improper_coeff	2    0.00000    0.00000  # c,c,hc,oc
improper_coeff	3    0.00000    0.00000  # c,c,oc,hc
improper_coeff	4    0.00000    0.00000  # c,c,oh,hc
improper_coeff	5    0.00000    0.00000  # c,hc,hc,hc
improper_coeff	6    0.00000    0.00000  # c,hc,hc,oc
improper_coeff	7    0.00000    0.00000  # c,hc,hc,oh

# AngleAngle Coeffs

improper_coeff	1 aa    0.27380   -0.48250    0.27380  110.77000  110.77000  107.66000  # c,c,hc,hc
improper_coeff	2 aa    3.91770    2.59260    0.16890  110.77000  111.27000  108.72800  # c,c,hc,oc
improper_coeff	3 aa    0.16890    2.59260    3.91770  111.27000  110.77000  108.72800  # c,c,oc,hc
improper_coeff	4 aa    0.16890    2.59260    3.91770  111.27000  110.77000  108.72800  # c,c,oh,hc
improper_coeff	5 aa   -0.31570   -0.31570   -0.31570  107.66000  107.66000  107.66000  # c,hc,hc,hc
improper_coeff	6 aa    2.42590    2.42590    2.12830  107.66000  108.72800  108.72800  # c,hc,hc,oc
improper_coeff	7 aa    2.42590    2.42590    2.12830  107.66000  108.72800  108.72800  # c,hc,hc,oh


# --- Thermo Output ---
thermo_style custom step time temp press enthalpy etotal ke pe ebond eangle edihed eimp evdwl ecoul elong etail vol lx ly lz density pxx pyy pzz
thermo_modify flush yes
thermo 1000

# --- Trajectory ---
dump dump_npt all custom 1000 npt_melt.dump id type mol x y z ix iy iz vx vy vz

# --- Restart Checkpointing ---
restart 10000 npt_1.rst npt_2.rst

# --- Initial Velocities (optional) ---
# Velocities read from data file

# --- SHAKE Constraints ---
# SHAKE disabled

# --- NPT Thermostat + Barostat (Nose-Hoover) ---
# T_damp = 100.0 fs  (heat bath coupling)
# P_damp = 1000.0 fs  (pressure bath coupling, ~10x T_damp typical)
# Ramp: T=500.0->500.0K  P=1.0->1.0atm
timestep 1.0
fix npt_fix all npt temp 500.0 500.0 100.0 iso 1.0 1.0 1000.0

run 1000000
PPPM Kokkos initialization ...
  using 12-bit tables for long-range coulomb
  G vector (1/distance) = 0.29925133
  grid = 30 30 30
  stencil order = 5
  estimated absolute RMS force accuracy = 0.00034721082
  estimated relative force accuracy = 1.0456151e-06
  using double precision cuFFT
  3d grid and FFT values/proc = 50653 27000
Generated 10 of 10 mixed pair_coeff terms from sixthpower/sixthpower mixing rule
Neighbor list info ...
  update: every = 1 steps, delay = 0 steps, check = yes
  max neighbors/atom: 4000, page size: 100000
  master list distance cutoff = 11.5
  ghost atom cutoff = 11.5
  binsize = 11.5, bins = 4 4 4
  1 neighbor lists, perpetual/occasional/extra = 1 0 0
  (1) pair lj/class2/coul/long/kk, perpetual
      attributes: full, newton off, kokkos_device
      pair build: full/bin/kk/device
      stencil: full/bin/3d
      bin: kk/device
Per MPI rank memory allocation (min/avg/max) = 31.64 | 31.64 | 31.64 Mbytes
   Step          Time           Temp          Press         Enthalpy        TotEng         KinEng         PotEng         E_bond        E_angle        E_dihed        E_impro         E_vdwl         E_coul         E_long         E_tail         Volume           Lx             Ly             Lz          Density          Pxx            Pyy            Pzz      
         0   0              502.59828     -817.71794      13278.237      14207.423      10515.515      3691.9085      3998.0637      7427.1632     -7927.854      -89.617799     -1992.2955      7047.6584     -4771.2095     -412.02023      77915.383      42.711131      42.711131      42.711131      0.93930309    -382.79882     -1756.8581     -313.49686    
      1000   1000           493.0166      -505.64694      13325.778      13905.287      10315.044      3590.2424      3893.7387      7326.0572     -7857.7814     -86.919776     -1957.0461      7047.8236     -4775.6297     -408.51242      78584.426      42.833033      42.833033      42.833033      0.93130616     1836.6724     -1154.9574     -2198.6558    
      2000   2000           503.59139     -78.52393       13954.744      14043.472      10536.293      3507.1786      4008.8569      7256.0908     -7973.0518     -85.844359     -1988.0519      7062.6596     -4773.4806     -414.34306      77478.585      42.631167      42.631167      42.631167      0.94459856    -345.97288     -1722.9257      1833.3268    
      3000   3000           497.3466       992.32356      15292.601      14149.697      10405.638      3744.059       3950.4915      7412.0912     -7896.7942     -84.466785     -1900.5161      7052.4128     -4789.1595     -406.50054      78973.361      42.903581      42.903581      42.903581      0.92671958    -74.327706      2571.9732      479.32516    
      4000   4000           500.66412      1207.9487      15332.727      13968.113      10475.048      3493.0651      3820.8938      7549.6197     -8028.4891     -85.778397     -1975.0998      7004.2429     -4792.3239     -414.43473      77461.447      42.628024      42.628024      42.628024      0.94480755     1812.7937     -322.87339      2133.9256    
      5000   5000           497.82832      1074.7838      15249.033      14035.037      10415.716      3619.3204      3882.8606      7532.3277     -7934.9637     -84.3997       -1974.6701      6993.167      -4795.0014     -414.49686      77449.835      42.625894      42.625894      42.625894      0.9449492      757.16699      3260.8773     -793.69294    
      6000   6000           487.37593      316.13857      14258.811      13898.562      10197.028      3701.5342      3996.652       7463.8308     -7888.4227     -89.179094     -2019.7139      7028.4551     -4790.0881     -410.8595       78135.504      42.751314      42.751314      42.751314      0.93665691     897.83739     -425.8209       476.39921    
      7000   7000           493.24062     -1044.568       12618.748      13799.594      10319.731      3479.8625      3929.8341      7377.6495     -7876.1867     -85.097507     -2092.903       7020.5802     -4794.014      -414.15335      77514.075      42.637676      42.637676      42.637676      0.94416608    -556.83745     -1036.7569     -1540.1096    
      8000   8000           502.02097      1616.3004      16008.756      14152.699      10503.436      3649.2627      3933.2276      7339.4544     -7850.7696     -84.280907     -1936.563       7034.4181     -4786.2238     -407.70715      78739.639      42.861214      42.861214      42.861214      0.92947035     390.89842      1235.9648      3222.0379    
      9000   9000           508.62728      422.45194      14752.73       14272.26       10641.655      3630.6048      3996.4275      7342.5871     -7896.8986     -86.518391     -1977.7315      7036.5814     -4783.8427     -411.65038      77985.385      42.723918      42.723918      42.723918      0.93845994    -981.8646       698.99906      1550.2213    
     10000   10000          506.61103     -108.58512      13964.006      14087.062      10599.471      3487.5909      3947.3435      7394.732      -7945.6887     -83.203654     -2047.5426      7017.3644     -4795.4141     -413.13017      77706.049      42.672846      42.672846      42.672846      0.94183349     520.36661      306.27557     -1152.3975    
     11000   11000          493.31973     -852.32706      12960.141      13925.889      10321.386      3604.5027      3996.4181      7369.2329     -7909.1176     -81.774055     -2011.586       7025.6375     -4784.3081     -413.19983      77692.951      42.670448      42.670448      42.670448      0.94199228    -1826.6812     -629.94164     -100.35834    
     12000   12000          500.22465      330.00911      14437.78       14063.156      10465.853      3597.3033      4022.0668      7309.8364     -7938.893      -81.960464     -1960.5665      7033.4848     -4786.6646     -412.42819      77838.311      42.697043      42.697043      42.697043      0.94023315     934.92739     -769.95322      825.05315    
     13000   13000          498.77914      714.22209      14898.828      14086.355      10435.61       3650.7451      3996.0759      7282.7585     -7818.5217     -80.601918     -1972.4823      7022.0412     -4778.5245     -411.56798      78000.999      42.726769      42.726769      42.726769      0.93827208     1193.71        468.97113      479.98518    
     14000   14000          504.22046     -39.742499      14036.774      14082.037      10549.455      3532.582       3931.6443      7188.8413     -7826.4046     -87.318176     -1919.4015      7025.544      -4780.3234     -411.08312      78092.998      42.743561      42.743561      42.743561      0.93716673    -662.94925      1596.7461     -1053.0244    
     15000   15000          498.39176     -1180.409       12622.102      13943.265      10427.505      3515.7603      4006.1263      7398.366      -7874.3178     -87.413775     -2146.4975      7007.9336     -4788.4366     -418.30567      76744.629      42.496125      42.496125      42.496125      0.95363233    -2984.2595     -1280.9161      723.94857    
     16000   16000          499.97313     -318.56961      13628.167      13991.427      10460.591      3530.8361      3896.1303      7415.4341     -7928.335      -87.416939     -2004.1849      7022.5184     -4783.3097     -410.58657      78187.441      42.760785      42.760785      42.760785      0.93603472     1797.4913     -172.50986     -2580.6903    
     17000   17000          502.88139     -17.164966      14064.902      14084.485      10521.438      3563.0464      4013.6295      7304.7151     -7884.7897     -84.698124     -2014.4704      7020.1765     -4791.5164     -410.39188      78224.534      42.767546      42.767546      42.767546      0.93559087     357.64918     -713.86887      304.7248     
     18000   18000          501.01052     -398.68089      13711.139      14157.405      10482.295      3675.1096      4075.4778      7469.6467     -7907.6615     -88.710254     -2103.0629      7019.2778     -4789.858      -418.26316      76752.429      42.497565      42.497565      42.497565      0.95353542    -108.32024     -193.38297     -894.33947    
     19000   19000          501.14203      953.44624      15165.942      14083.386      10485.047      3598.3387      3983.8528      7322.8063     -7826.599      -81.8441       -2032.6932      7020.8998     -4788.0839     -412.34741      77853.56       42.699831      42.699831      42.699831      0.94004898     1570.7068      1626.1634     -336.53142    
     20000   20000          499.72282     -101.77616      13764.92       13879.021      10455.354      3423.6673      3935.303       7367.4332     -7990.1681     -87.131572     -2047.622       7028.6569     -4782.804      -417.61508      76871.539      42.519537      42.519537      42.519537      0.95205795    -57.31365      -195.56162     -52.453221    
     21000   21000          502.53192      1296.8544      15422.257      13946.399      10514.127      3432.2728      3977.1815      7174.6114     -7921.9857     -80.101356     -1967.0621      7030.9852     -4781.3562     -411.4002       78032.81       42.732577      42.732577      42.732577      0.93788958     1838.5281      442.23613      1609.7989    
     22000   22000          501.83748      862.92683      15119.267      14137.059      10499.597      3637.4619      3943.0031      7364.618      -7839.9138     -91.397666     -1970.5056      7020.5053     -4788.8475     -411.32804      78046.499      42.735076      42.735076      42.735076      0.93772508     1061.056       1701.006      -173.28158    
     23000   23000          505.54712      874.55337      15267.399      14274.487      10577.211      3697.2752      4066.2239      7418.1031     -7902.2099     -85.713819     -2031.8018      7016.3336     -4783.6599     -412.3757       77848.219      42.698855      42.698855      42.698855      0.94011347     161.6218       2581.9786     -119.94027    
     24000   24000          493.94251     -76.164147      13831.532      13918.69       10334.416      3584.274       3958.9579      7368.0424     -7898.8829     -90.01692      -2019.4243      7045.4705     -4779.8726     -409.1273       78466.319      42.811564      42.811564      42.811564      0.93270795     2234.7942     -768.93606     -1694.3506    
     25000   25000          489.93922     -1455.7633      12179.163      13842.191      10250.658      3591.5329      4005.9364      7222.2808     -7815.3852     -85.941588     -2013.7622      7058.6065     -4780.2019     -409.83475      78330.873      42.786916      42.786916      42.786916      0.93432074    -2459.9304     -1206.3106     -701.04896    
     26000   26000          496.32557      119.66153      14364.763      14230.343      10384.275      3846.0677      4020.5383      7551.2301     -7832.3546     -85.218951     -2035.9457      7015.5588     -4787.7401     -416.78089      77025.397      42.547885      42.547885      42.547885      0.95015622    -194.04774      68.964791      484.06752    
     27000   27000          497.71087      865.88659      15205.871      14223.683      10413.259      3810.4236      3980.4063      7605.3666     -7893.5545     -87.724247     -2022.698       7018.049      -4789.4217     -412.74707      77778.175      42.686045      42.686045      42.686045      0.94096011     996.40726      452.46438      1148.7881    
     28000   28000          497.84292      839.17539      14894.677      13937.651      10416.022      3521.6291      3900.1145      7303.4845     -7915.0853     -86.669572     -1929.8092      7031.492      -4781.8977     -410.53141      78197.947      42.7627        42.7627        42.7627        0.93590897    -515.15416      410.46587      2622.2144    
     29000   29000          501.99153      487.10015      14589.765      14038.495      10502.82       3535.6749      3965.1195      7330.8903     -7851.3818     -86.119176     -2064.3872      7030.574      -4789.0207     -413.68694      77601.467      42.653693      42.653693      42.653693      0.94310279     803.82506      961.0472      -303.57181    
     30000   30000          504.3169       291.01241      14676.727      14341.176      10551.472      3789.7035      3983.2426      7484.1693     -7896.0301     -81.669024     -1950.2373      7025.5459     -4775.3178     -406.04101      79062.738      42.91976       42.91976       42.91976       0.92567196    -396.36033      286.48571      982.91184    
     31000   31000          502.77715     -807.78475      13231.723      14157.639      10519.257      3638.3817      4047.808       7337.0439     -7925.3282     -88.825905     -1974.2627      7026.6216     -4784.675      -408.45268      78595.919      42.835121      42.835121      42.835121      0.93116998     987.38419     -367.56714     -3043.1713    
     32000   32000          496.87404      392.78012      14405.383      13957.066      10395.751      3561.3157      3903.1866      7391.7349     -7857.485      -84.442598     -2042.2895      7036.0964     -4785.4852     -410.18742      78263.525      42.77465       42.77465       42.77465       0.93512476     1869.2361     -257.53556     -433.36015    
     33000   33000          505.76929     -1307.2171      12696.906      14201.182      10581.86       3619.3224      3950.0892      7345.3046     -7952.2065     -86.341273     -1907.0072      7044.726      -4775.2425     -406.8533       78904.886      42.891177      42.891177      42.891177      0.9275238     -2926.9741      843.97705     -1838.6542    
     34000   34000          500.37722     -657.5306       13177.022      13924.739      10469.045      3455.6943      3880.7325      7438.0035     -7968.6654     -82.77411      -2065.6637      7038.4067     -4784.3451     -411.71434      77973.27       42.721706      42.721706      42.721706      0.93860575    -1916.4198     -339.88966      283.71764    
     35000   35000          501.14432      185.40695      14213.17       14001.159      10485.095      3516.064       3914.4278      7244.1299     -7852.7404     -84.359718     -1967.1072      7041.091      -4779.3774     -409.43512      78407.328      42.800833      42.800833      42.800833      0.93340969    -949.88908     -179.03437      1685.1443    
     36000   36000          500.35611      1764.669       16118.84       14126.27       10468.604      3657.666       4002.1454      7435.3312     -7959.8563     -85.852956     -2019.7131      7064.924      -4779.3121     -414.63627      77423.795      42.621116      42.621116      42.621116      0.94526702     2005.1265      514.38751      2774.4929    
     37000   37000          493.99068     -5.7460049      14152.989      14159.65       10335.424      3824.2263      3899.0346      7539.6035     -7909.5703     -85.510962     -1911.5457      7071.9935     -4779.7784     -403.87118      79487.507      42.996486      42.996486      42.996486      0.92072531     487.14707     -142.12779     -362.2573     
     38000   38000          492.70662     -433.58486      13368.47       13866.494      10308.558      3557.9351      3900.0419      7406.8447     -7941.8887     -84.713519     -1978.1697      7038.3766     -4782.5562     -407.60697      78758.99       42.864725      42.864725      42.864725      0.92924197    -1083.4444     -863.6864       646.3762     
     39000   39000          501.47758      502.83512      14515.309      13943.162      10492.067      3451.0946      3972.6971      7168.657      -7854.7511     -85.3395       -2001.9766      7037.2615     -4785.4539     -411.46765      78020.019      42.730242      42.730242      42.730242      0.93804335     951.28262      1209.7253     -652.5026     
     40000   40000          501.07656     -35.958506      14335.533      14377.207      10483.677      3893.5302      4043.6023      7390.7701     -7781.1372     -82.769718     -1933.6         7028.9561     -4772.2913     -403.97572      79466.937      42.992776      42.992776      42.992776      0.92096364    -844.60231      799.64702     -62.920229    
     41000   41000          507.92508     -309.14109      13943.46       14294.986      10626.964      3668.0222      4058.6349      7231.5733     -7767.4109     -85.019376     -2003.3879      7017.9687     -4784.3366     -411.73434      77969.483      42.721014      42.721014      42.721014      0.93865134     250.99048     -463.24005     -715.17369    
     42000   42000          490.92393      613.13309      14433.26       13731.7        10271.261      3460.4393      3886.9588      7176.0914     -7820.5622     -83.704042     -1941.0215      7028.0227     -4785.3459     -409.17327      78457.505      42.809961      42.809961      42.809961      0.93281274     2545.5999      816.86353     -1523.0642    
     43000   43000          498.58595      725.78166      14918.589      14098.8        10431.568      3667.2322      3992.3683      7371.9785     -7831.9012     -80.724054     -2018.4569      7024.0775     -4790.11       -414.49714      77449.783      42.625884      42.625884      42.625884      0.94494983     1156.2031      626.31577      394.82606    
     44000   44000          492.86867      951.52584      14850.236      13766.187      10311.949      3454.2379      3855.5024      7286.3379     -7907.2789     -80.531025     -1936.1748      7027.3933     -4791.0109     -410.95032      78118.235      42.748165      42.748165      42.748165      0.93686397     1270.1111      406.97988      1177.4866    
     45000   45000          507.15226      1625.9508      15920.966      14082.022      10610.795      3471.2272      3909.1746      7273.005      -7825.9115     -82.76038      -2047.2276      7029.33       -4784.3829     -413.95821      77550.616      42.644375      42.644375      42.644375      0.9437212      3225.3134      517.35637      1135.1826    
     46000   46000          505.4387      -771.76923      13331.958      14212.423      10574.943      3637.48        3986.9383      7351.1008     -7869.4479     -83.053354     -1988.4438      7029.1201     -4788.7342     -410.38658      78225.545      42.76773       42.76773       42.76773       0.93557877     1296.1885     -1852.4859     -1759.0103    
     47000   47000          503.72075     -154.94064      14049.927      14227.613      10539          3688.6134      3912.3423      7383.7031     -7816.0319     -83.935971     -1937.3168      7016.5261     -4786.6734     -408.25297      78634.367      42.842105      42.842105      42.842105      0.93071468    -445.58572      1170.013      -1189.2492    
     48000   48000          510.28658      22.034016      14347.228      14322.299      10676.372      3645.927       3949.7485      7306.2011     -7844.2552     -83.201321     -1932.1004      7028.3786     -4778.8442     -413.81798      77576.894      42.649191      42.649191      42.649191      0.94340152     142.8707      -545.28755      468.5189     
     49000   49000          504.70805      1240.5185      15665.906      14242.022      10559.656      3682.3663      3970.2881      7405.4086     -7967.4843     -84.818563     -1890.3908      7030.2596     -4780.8963     -407.89318      78703.727      42.854697      42.854697      42.854697      0.92989446     2202.8597      1375.781       142.9149     
     50000   50000          485.8494       531.50108      14517.597      13907.012      10165.09       3741.9225      4090.123       7218.4605     -7820.6498     -85.696501     -1901.4877      7021.7288     -4780.5557     -407.54524      78770.921      42.86689       42.86689       42.86689       0.92910123     823.21418     -4.2089644      775.49802    
     51000   51000          500.32775      403.53778      14394.519      13938.31       10468.01       3470.2993      3894.1277      7381.276      -7915.2649     -83.154996     -2047.8416      7019.4521     -4778.295      -414.13126      77518.209      42.638434      42.638434      42.638434      0.94411572     1476.8856     -135.8054      -130.46688    
     52000   52000          491.70143      1439.8912      15471.692      13837.358      10287.528      3549.8302      4022.7621      7201.0665     -7869.1603     -80.264137     -1962.4362      7023.2345     -4785.3723     -412.48341      77827.89       42.695138      42.695138      42.695138      0.94035903     316.26135      1770.4387      2232.9735    
     53000   53000          503.02279      654.66228      14928.312      14179.405      10524.397      3655.0084      4040.8129      7371.5192     -7880.9383     -81.799869     -2022.889       7019.15       -4790.8465     -409.26747      78439.446      42.806676      42.806676      42.806676      0.93302749     767.91332      527.40797      668.66555    
     54000   54000          500.50727      166.36307      14207.738      14018.483      10471.766      3546.7174      4043.8978      7235.9373     -7919.6226     -80.637425     -1956.5298      7013.4339     -4789.7616     -411.55555      78003.355      42.727199      42.727199      42.727199      0.93824374    -1511.6401      2708.4365     -697.70713    
     55000   55000          502.23138      435.80039      14669.614      14175.551      10507.838      3667.713       3996.0998      7330.2376     -7835.287      -83.977758     -1988.9202      7034.6024     -4785.0418     -412.97445      77735.35       42.678209      42.678209      42.678209      0.94147849     1099.6628      740.02373     -532.28536    
     56000   56000          500.65194     -1980.5247      11829.664      14078.096      10474.793      3603.303       4052.8037      7445.4237     -7934.3558     -86.724364     -2099.9426      7011.5448     -4785.4464     -412.3995       77843.726      42.698033      42.698033      42.698033      0.94016774    -691.34473     -2231.2362     -3018.9932    
     57000   57000          500.11831      109.91678      14078.689      13953.901      10463.628      3490.2727      3990.2649      7369.9175     -7998.6587     -87.584566     -2025.436       7026.7654     -4784.9959     -412.38978      77845.56       42.698369      42.698369      42.698369      0.94014558     611.74672     -749.08733      467.09094    
     58000   58000          503.02165      1487.361       16023.252      14328.815      10524.373      3804.4422      4012.5045      7439.0012     -7820.5672     -83.995206     -1995.3778      7034.3956     -4781.5189     -410.96847      78114.785      42.747535      42.747535      42.747535      0.93690534     1054.3588      2625.1856      782.53861    
     59000   59000          499.99281      389.84164      14393.37       13952.446      10461.002      3491.4438      3958.3541      7253.7251     -7839.8418     -81.773473     -2029.168       7012.6669     -4782.5191     -413.9446       77553.164      42.644842      42.644842      42.644842      0.94369018    -559.7124       2140.2826     -411.04528    
     60000   60000          492.97845      395.90023      14428.603      13973.607      10314.246      3659.3615      3959.1139      7236.1729     -7828.1799     -83.27973      -1894.4151      7049.5053     -4779.5558     -407.37679      78803.492      42.872797      42.872797      42.872797      0.92871721     418.17823     -382.80002      1152.3225    
     61000   61000          504.96578     -431.24658      13863.66       14353.766      10565.048      3788.7174      4094.4734      7392.6052     -7870.5829     -85.725517     -1993.6424      7033.2749     -4781.6852     -411.95849      77927.06       42.713264      42.713264      42.713264      0.93916234    -624.04982     -1349.8442      680.15426    
     62000   62000          496.00148     -1573.1034      12296.999      14102.272      10377.495      3724.7774      4085.3884      7482.8137     -7992.1772     -85.393391     -2049.3746      7061.7783     -4778.2578     -407.9735       78688.232      42.851885      42.851885      42.851885      0.93007757    -1437.9039     -1566.5415     -1714.8648    
     63000   63000          506.42708     -743.74467      13405.938      14259.286      10595.622      3663.6641      3986.2938      7307.7983     -7848.066      -83.796149     -1943.7615      7030.0933     -4784.8977     -408.05181      78673.132      42.849144      42.849144      42.849144      0.93025609     13.47206      -160.52973     -2084.1763    
     64000   64000          503.28659     -1102.9226      12726.14       13992.939      10529.916      3463.0231      3877.1119      7293.0783     -7913.8607     -86.558464     -1967.2266      7037.6818     -4777.2032     -407.61942      78756.586      42.864289      42.864289      42.864289      0.92927035    -414.83065     -2688.4053     -205.53192    
     65000   65000          503.97434      1146.9035      15356.521      14049.335      10544.305      3505.0302      3886.9695      7327.7828     -7915.8459     -84.035536     -1965.286       7035.4604     -4780.015      -410.77824      78150.959      42.754133      42.754133      42.754133      0.93647168     546.7409       1495.5582      1398.4113    
     66000   66000          503.22114     -252.04057      13908.661      14196.309      10528.547      3667.7626      3985.6898      7385.0533     -7932.6063     -81.572366     -1930.6937      7024.9561     -4783.0642     -410.22961      78255.477      42.773184      42.773184      42.773184      0.93522093    -740.57595     -163.82016      148.27439    
     67000   67000          493.65337     -1384.7989      12229.183      13791.199      10328.367      3462.8321      3911.0915      7284.0036     -7848.4825     -82.902276     -2055.5427      7041.6679     -4787.0035     -415.06753      77343.351      42.60635       42.60635       42.60635       0.94625018    -764.4576      -2867.9048     -522.03422    
     68000   68000          501.31961      1043.5947      15381.737      14204.209      10488.762      3715.4465      4000.5746      7442.387      -7781.1349     -89.274634     -2084.1899      7013.2229     -4786.1386     -414.93302      77368.424      42.610953      42.610953      42.610953      0.94594352     2118.4782      783.90874      228.39707    
     69000   69000          498.64714      1483.3644      15505.37       13834.929      10432.848      3402.0811      3910.1066      7252.8758     -7880.621      -87.566825     -2011.6202      7011.0372     -4792.1304     -415.75201      77216.016      42.582955      42.582955      42.582955      0.94781062     1163.6924      766.19758      2520.2031    
     70000   70000          498.64         1737.1703      15965.572      13983.164      10432.699      3550.4652      3939.8383      7460.9385     -7982.3277     -88.430323     -1988.917       7009.7276     -4800.3641     -410.26734      78248.28       42.771873      42.771873      42.771873      0.93530694     2039.8128      730.69997      2440.9981    
     71000   71000          508.32858      328.81102      14494.916      14121.31       10635.406      3485.9041      3915.2815      7333.5536     -7854.5099     -85.791018     -2044.5873      7011.7147     -4789.7576     -412.04986      77909.779      42.710107      42.710107      42.710107      0.93937065    -720.36144      292.30203      1414.4925    
     72000   72000          506.53963      898.43534      15392.86       14375.468      10597.977      3777.4909      4104.8631      7481.1858     -7949.9593     -85.83034      -1996.9099      7009.3053     -4785.1639     -413.44331      77647.196      42.66207       42.66207       42.66207       0.94254736    -545.2752       1372.321       1868.2602    
     73000   73000          500.72665      89.240819      13981.878      13880.834      10476.356      3404.4784      3957.5917      7284.8753     -7941.3437     -80.061772     -2039.8618      7009.961      -4786.6825     -413.49802      77636.922      42.660189      42.660189      42.660189      0.94267209     420.02186     -509.99601      357.6966     
     74000   74000          506.92284      219.85705      14647.416      14394.805      10605.995      3788.8102      4093.7758      7476.5595     -7935.2018     -90.899672     -2010.7122      7036.8518     -4781.5632     -407.47968      78783.593      42.869188      42.869188      42.869188      0.92895179     1521.199      -671.32556     -190.30233    
     75000   75000          501.00731     -136.53629      13866.046      14020.011      10482.228      3537.7829      3993.6927      7385.4793     -7948.6903     -81.294052     -2021.7495      7001.3124     -4790.9676     -415.1873       77321.039      42.602252      42.602252      42.602252      0.94652323     344.91293      142.7545      -897.27631    
     76000   76000          488.60383     -1085.2644      12524.673      13748.126      10222.719      3525.407       4014.6197      7335.9488     -7840.3365     -80.436828     -2137.5571      7022.4824     -4789.3134     -415.30388      77299.336      42.598266      42.598266      42.598266      0.94678899    -826.33657     -913.61413     -1515.8425    
     77000   77000          495.09753      1011.8771      14965.85       13819.155      10358.582      3460.5732      3855.3661      7359.2965     -7914.0727     -81.401008     -2000.5203      7030.5147     -4788.6101     -413.14015      77704.173      42.672503      42.672503      42.672503      0.94185623     1642.1824      1363.3579      30.09091     
     78000   78000          501.68514     -1055.4548      12784.167      13977.357      10496.41       3480.9475      3935.7503      7405.9783     -8001.8678     -82.780617     -2008.7298      7014.9405     -4782.3434     -414.14047      77516.486      42.638118      42.638118      42.638118      0.94413671    -1365.4212     -1337.5658     -463.37732    
     79000   79000          506.27438      120.83628      14514.668      14376.545      10592.427      3784.1172      4141.5289      7427.6116     -7931.7556     -83.236616     -2004.3704      7019.1594     -4784.82       -409.58699      78378.255      42.795542      42.795542      42.795542      0.93375593    -347.84244      26.32254       684.02873    
     80000   80000          496.37482      658.66002      14660.424      13913.336      10385.306      3528.0303      3986.5991      7386.3668     -7873.3821     -85.374984     -2078.7408      6983.1947     -4790.6323     -412.76923      77773.999      42.685281      42.685281      42.685281      0.94101063    -555.41647      1248.7201      1282.6765    
     81000   81000          505.09123     -561.78548      13576.515      14212.688      10567.673      3645.0146      4042.9179      7371.3298     -7892.7443     -86.489256     -2026.9639      7022.9789     -4786.0146     -413.44078      77647.67       42.662157      42.662157      42.662157      0.94254161    -185.85502     -175.09232     -1324.4091    
     82000   82000          494.9608       591.57264      14682.726      14010.801      10355.721      3655.0801      4088.9233      7308.9296     -7945.4929     -87.993727     -1947.1476      7027.4247     -4789.5633     -412.19717      77881.936      42.705018      42.705018      42.705018      0.93970647     1372.6148      124.16724      277.9359     
     83000   83000          494.56936      259.96895      13958.583      13661.209      10347.531      3313.6776      3876.9999      7306.9062     -8009.8143     -86.395115     -1998.6707      7010.1757     -4785.5241     -409.29502      78434.166      42.805716      42.805716      42.805716      0.9330903      2226.1146     -388.90058     -1057.3072    
     84000   84000          499.40507      686.80939      14855.698      14075.457      10448.705      3626.7514      3998.4844      7386.625      -7914.8387     -82.254867     -1997.6241      7018.6318     -4782.272      -412.1213       77896.273      42.707639      42.707639      42.707639      0.93953352    -152.6382       1316.4704      896.59595    
     85000   85000          510.77244     -451.91687      13780.631      14296.24       10686.537      3609.703       4033.3957      7325.4474     -7898.8415     -80.498666     -1993.5465      7009.8064     -4786.0599     -410.35139      78232.253      42.768952      42.768952      42.768952      0.93549856    -697.49486      110.30399     -768.55974    
     86000   86000          496.69214      1380.9785      15413.63       13852.724      10391.945      3460.7796      3883.8799      7323.1151     -7888.7266     -82.699278     -2011.7896      7022.6971     -4785.697      -414.21694      77502.175      42.635494      42.635494      42.635494      0.94431104     2865.3584      95.665275      1181.9118    
     87000   87000          502.65975     -549.87893      13531.397      14158.817      10516.801      3642.0163      3990.3945      7443.8846     -7982.6209     -80.375784     -1979.6416      7030.2052     -4779.8298     -410.32311      78237.644      42.769935      42.769935      42.769935      0.9354341      643.42439     -1387.5382     -905.52296    
     88000   88000          513.30975     -1705.9632      12458.453      14408.236      10739.623      3668.6128      4092.3996      7237.7116     -7814.7357     -84.042264     -2002.4277      7021.7757     -4782.0685     -409.63863      78368.375      42.793744      42.793744      42.793744      0.93387365    -1481.0174     -2382.3171     -1254.5551    
     89000   89000          501.02829      906.43612      15091.882      14070.997      10482.667      3588.3301      3930.7179      7479.8219     -7926.3484     -87.491519     -2069.7385      7043.1461     -4781.7774     -415.69817      77226.016      42.584793      42.584793      42.584793      0.94768789     1360.1241      989.52226      369.66199    
     90000   90000          497.50829      573.45289      14468.18       13814.871      10409.021      3405.85        3910.9989      7287.8674     -7954.3832     -83.51549      -2006.9621      7032.0736     -4780.229      -410.95731      78116.906      42.747922      42.747922      42.747922      0.93687991    -567.20816      1299.392       988.17478    
     91000   91000          507.30452      927.19976      15200.785      14159.937      10613.98       3545.9569      3989.7432      7307.659      -7915.2289     -81.638395     -2010.0059      7036.6055     -4781.1775     -417.06513      76972.902      42.538218      42.538218      42.538218      0.95080421     1088.9648      155.66356      1536.971     
     92000   92000          511.0198       702.82759      15180.103      14385.088      10691.713      3693.3753      4033.1423      7338.3179     -7851.797      -81.563676     -2000.6121      7040.6063     -4784.7184     -413.89575      77562.318      42.64652       42.64652       42.64652       0.94357881     93.752571     -157.10005      2171.8302    
     93000   93000          503.34941      349.79804      14361.65       13962.274      10531.23       3431.0439      3877.4109      7262.15       -7923.0715     -77.168932     -1957.1598      7032.4995     -4783.6163     -410.06495      78286.899      42.778908      42.778908      42.778908      0.93484555     814.41047     -199.23149      434.21514    
     94000   94000          496.38315      1941.9038      15975.499      13803.565      10385.48       3418.0848      3911.4762      7295.7291     -7858.2292     -84.597963     -2082.087       7030.5962     -4794.8024     -418.59944      76690.77       42.486181      42.486181      42.486181      0.95430206     397.92655      2525.3582      2902.4267    
     95000   95000          499.32705     -640.26536      13273.844      13995.4        10447.073      3548.3265      3979.8599      7475.2449     -7965.9926     -86.11266      -2079.5089      7013.7822     -4788.9463     -415.43966      77274.07       42.593624      42.593624      42.593624      0.94709855     409.11551     -512.37934     -1817.5323    
     96000   96000          496.72482      14.221197      13944.695      13928.569      10392.628      3535.9403      3893.464       7379.6425     -7875.7946     -83.03213      -2011.3371      7015.4811     -4782.4835     -412.87248      77754.549      42.681722      42.681722      42.681722      0.94124602     791.49994     -1596.7204      847.88406    
     97000   97000          500.47906     -985.91102      12902.364      14015.932      10471.176      3544.7564      4061.0171      7319.134      -7889.3687     -83.21139      -2080.7787      7004.3035     -4786.3394     -414.51337      77446.75       42.625328      42.625328      42.625328      0.94498684    -53.479025     -1456.3301     -1447.9239    
     98000   98000          507.51844     -12.02592       14233.306      14246.903      10618.456      3628.4474      4116.4741      7300.8582     -7864.6416     -82.210078     -2091.1994      7026.2544     -4777.0881     -414.09049      77525.841      42.639833      42.639833      42.639833      0.94402277     583.34193     -1325.2342      705.81447    
     99000   99000          504.72475     -417.48981      13617.855      14098.715      10560.005      3538.7093      3968.4156      7364.5649     -7936.7334     -86.966829     -1990.908       7005.7879     -4785.4508     -406.48571      78976.241      42.904102      42.904102      42.904102      0.92668578     1475.5029     -1082.5939     -1645.3784    
    100000   100000         500.97672     -469.67772      13451.869      13982.105      10481.588      3500.5165      3998.9263      7294.5552     -7887.4455     -88.360058     -2046.4485      7011.4315     -4782.1425     -414.71411      77409.262      42.618449      42.618449      42.618449      0.94544448    -585.78265      1065.5944     -1888.8449    
    101000   101000         503.56543     -494.03434      13509.533      14075.109      10535.75       3539.359       4030.3703      7288.2873     -7924.1719     -83.611546     -2003.44        7015.9676     -4784.0427     -408.96305      78497.833      42.817295      42.817295      42.817295      0.9323335      797.38046     -1681.3379     -598.14552    
    102000   102000         492.06718     -76.974924      13809.562      13896.836      10295.18       3601.6559      3986.9616      7366.3598     -7902.4168     -86.572207     -2009.6038      7024.8213     -4777.894      -412.93746      77742.315      42.679484      42.679484      42.679484      0.94139414     719.9008      -1382.5458      431.72021    
    103000   103000         490.75997     -1695.9275      11782.716      13690.913      10267.83       3423.083       3997.5637      7295.212      -7937.8933     -83.101607     -2075.9062      7013.4147     -4786.2063     -416.10382      77150.73       42.570951      42.570951      42.570951      0.94861266    -755.75727     -2559.8828     -1772.1424    
    104000   104000         508.45762      1524.7346      15859.712      14143.81       10638.106      3505.7043      3983.257       7308.8429     -7874.9172     -82.391392     -2099.7179      7048.7412     -4778.1103     -416.02488      77165.369      42.573643      42.573643      42.573643      0.94843271     2806.4252      915.41446      852.36415    
    105000   105000         512.58293      759.46533      15036.109      14182.699      10724.417      3458.2827      3897.2944      7339.6346     -7873.5499     -88.804509     -2066.5594      7034.5885     -4784.321      -416.64681      77050.184      42.552449      42.552449      42.552449      0.94985055     600.45705      656.66479      1021.2741    
    106000   106000         497.37102     -1256.4805      12676.254      14097.932      10406.148      3691.7831      4118.2887      7340.9491     -7844.7013     -86.290475     -2071.888       7021.6896     -4786.2645     -413.78256      77583.534      42.650408      42.650408      42.650408      0.94332078    -1412.0793     -475.70792     -1881.6542    
    107000   107000         496.82869     -197.91946      13600.968      13825.291      10394.802      3430.4888      3928.6287      7301.8608     -7924.512      -81.824406     -2010.0897      7000.971      -4784.5457     -413.07854      77715.762      42.674624      42.674624      42.674624      0.94171578     642.94851     -565.76048     -670.94642    
    108000   108000         508.87055     -796.87075      13206.901      14103.863      10646.745      3457.1178      3969.3187      7336.7916     -7950.951      -87.216744     -2048.1941      7025.6733     -4788.304      -415.9409       77180.95       42.576508      42.576508      42.576508      0.94824124    -989.58394     -918.30521     -482.72311    
    109000   109000         494.22379     -257.35727      13654.375      13943.999      10340.301      3603.6979      4079.3088      7386.6932     -8025.0248     -88.411586     -1992.185       7029.6782     -4786.3609     -416.02438      77165.462      42.57366       42.57366       42.57366       0.94843156     386.74922     -880.32341     -278.49763    
    110000   110000         497.84456      605.50636      14772.802      14085.511      10416.056      3669.4549      3963.0241      7411.8847     -7897.2422     -88.055496     -1961.3225      7024.0042     -4782.8379     -412.47302      77829.852      42.695496      42.695496      42.695496      0.94033533     2051.8085     -795.98511      560.69566    
    111000   111000         501.57869     -636.18066      13173.693      13893.21       10494.183      3399.027       3961.8708      7223.139      -7870.8293     -79.240051     -2073.5969      7023.0877     -4785.4042     -413.95887      77550.492      42.644352      42.644352      42.644352      0.9437227     -726.71903     -102.75914     -1079.0638    
    112000   112000         491.6562       760.18516      14997.44       14130.564      10286.581      3843.9822      4173.6469      7470.3198     -7967.5746     -86.618042     -1968.2446      7009.6096     -4787.157      -410.56291      78191.947      42.761606      42.761606      42.761606      0.93598078     1588.4066     -1630.2018      2322.3507    
    113000   113000         498.51519     -190.19699      13537.541      13753.002      10430.087      3322.9145      3874.4175      7229.8292     -7973.2914     -89.596105     -1962.3098      7028.568      -4784.7029     -413.28894      77676.199      42.667381      42.667381      42.667381      0.94219543    -1203.5712      186.56792      446.41235    
    114000   114000         498.50621      1329.005       15503.406      13980.787      10429.899      3550.8875      3991.5999      7210.0033     -7872.1485     -88.279692     -1929.9497      7023.5231     -4783.8609     -408.65148      78557.684      42.828174      42.828174      42.828174      0.93162318     1554.9247      787.64605      1644.4441    
    115000   115000         502.17185      1262.7555      15591.309      14137.097      10506.593      3630.5045      3918.231       7431.9082     -7889.33       -83.806623     -1957.9308      7006.0371     -4794.6044     -406.54564      78964.6        42.901994      42.901994      42.901994      0.9268224      290.02277      1395.1641      2103.0795    
    116000   116000         499.06283      40.19389       14208.406      14162.709      10441.545      3721.1641      4014.2053      7465.3519     -7840.6346     -81.927472     -2041.5148      6999.5194     -4793.8355     -411.80937      77955.277      42.718419      42.718419      42.718419      0.9388224     -83.142755      297.36212     -93.637694    
    117000   117000         500.13206      903.52167      14968.287      13940.83       10463.916      3476.9143      3831.8818      7344.6874     -7850.3883     -83.670614     -1975.3014      7003.3883     -4793.6829     -411.7112       77973.865      42.721814      42.721814      42.721814      0.93859858     2924.1412     -465.75916      252.18295    
    118000   118000         508.78273      122.35718      14467.094      14327.913      10644.908      3683.0053      4107.2337      7372.5504     -7873.0823     -87.800794     -2041.9352      7003.7378     -4797.6983     -411.59236      77996.378      42.725925      42.725925      42.725925      0.93832767    -423.73799     -721.57983      1512.3894    
    119000   119000         498.62015      416.54187      14521          14042.965      10432.283      3610.6819      4016.5039      7319.7736     -7910.1557     -88.296756     -1981.7992      7031.2878     -4776.6318     -407.95905      78691.019      42.852391      42.852391      42.852391      0.93004463     900.56339      93.269328      255.79291    
    120000   120000         506.43962     -230.93729      13905.584      14169.543      10595.885      3573.6585      3929.268       7425.0167     -7952.1723     -85.073145     -2007.2803      7042.2609     -4778.3613     -409.6141       78373.068      42.794598      42.794598      42.794598      0.93381772    -34.681631     -1337.0373      678.90706    
    121000   121000         504.28989      922.07803      15047.927      14004.91       10550.907      3454.0023      4009.6909      7284.3845     -7958.3426     -88.406045     -2034.886       7023.1287     -4781.5672     -413.89845      77561.811      42.646427      42.646427      42.646427      0.94358497     2284.5358      775.00685     -293.30856    
    122000   122000         495.53173      254.17494      14077.282      13786.458      10367.666      3418.7917      3974.0499      7236.4723     -7959.8793     -82.106801     -1989.1607      7022.248      -4782.8318     -409.18553      78455.154      42.809533      42.809533      42.809533      0.93284068     199.90602      338.72274      223.89607    
    123000   123000         499.16222      97.595081      14012.258      13901.017      10443.625      3457.392       3919.1129      7210.0906     -7883.3357     -78.574523     -1970.1089      7039.8568     -4779.6491     -410.75209      78155.935      42.75504       42.75504       42.75504       0.93641205    -424.44545      326.28888      390.94181    
    124000   124000         497.11566     -834.05684      13102.74       14057.169      10400.806      3656.3634      4026.1631      7318.7551     -7921.9894     -89.728041     -1943.3906      7034.5309     -4767.9777     -409.13776      78464.314      42.811199      42.811199      42.811199      0.93273179    -300.77674     -1471.1485     -730.24525    
    125000   125000         496.91119     -232.05164      13738.054      14003.755      10396.528      3607.2271      3984.871       7517.2306     -8054.7188     -91.079345     -2022.8416      7047.5019     -4773.7366     -408.89308      78511.266      42.819737      42.819737      42.819737      0.93217398    -1469.4504     -1.8318511      775.12733    
    126000   126000         492.56124      717.7556       14794.495      13981.57       10305.517      3676.0536      4003.7481      7368.7257     -7843.2927     -88.587249     -1998.124       7020.0319     -4786.4482     -413.37455      77660.112      42.664436      42.664436      42.664436      0.9423906     -1003.6835      2184.942       972.00832    
    127000   127000         500.37408     -46.544671      13949.167      14001.803      10468.979      3532.8238      3920.6457      7373.8526     -7914.0666     -86.154244     -1989.2754      7011.7978     -4783.9762     -413.99894      77542.984      42.642976      42.642976      42.642976      0.94381407     363.84818     -541.54003      38.057837    
    128000   128000         497.40111     -646.22827      13420.965      14153.668      10406.778      3746.8895      3992.4831      7476.6898     -7857.2522     -85.397434     -2037.0876      7033.3052     -4775.8514     -412.92928      77743.854      42.679765      42.679765      42.679765      0.9413755     -1590.1677     -652.13916      303.62203    
    129000   129000         509.52279      1529.3975      15855.208      14128.716      10660.392      3468.3243      3977.4094      7278.3839     -7952.209      -79.02518      -2021.5376      7043.231      -4777.9281     -414.7377       77404.861      42.617641      42.617641      42.617641      0.94549824     454.02936      2131.1545      2003.0086    
    130000   130000         492.02609     -135.77899      13853.765      14007.784      10294.32       3713.4634      4073.0497      7261.1159     -7822.391      -88.301162     -1944.1018      7021.7806     -4787.6888     -412.74078      77779.36       42.686262      42.686262      42.686262      0.94094577    -521.40462      1424.8276     -1310.7599    
    131000   131000         491.86797      1398.7084      15309.365      13732.115      10291.012      3441.1029      3929.9303      7229.2301     -7860.7085     -83.422879     -1999.2454      7012.9274     -4787.6081     -415.18758      77320.988      42.602243      42.602243      42.602243      0.94652386     2466.7152      315.09047      1414.3197    
    132000   132000         501.59292      124.97091      14149.015      14006.583      10494.48       3512.1025      3931.4094      7263.6076     -7824.7508     -80.903962     -2022.7352      7029.724      -4784.2486     -410.78982      78148.757      42.753731      42.753731      42.753731      0.93649807    -235.7815       1574.7802     -964.08596    
    133000   133000         498.93113      697.38507      14734.784      13947.363      10438.79       3508.5736      3931.6773      7409.7673     -7978.7978     -88.089018     -1998.0604      7019.9742     -4787.898      -414.6514       77420.969      42.620598      42.620598      42.620598      0.94530152    -176.0772       2804.8754     -536.64302    
    134000   134000         502.34917     -678.15873      13347.112      14115.627      10510.303      3605.3238      3999.8276      7396.3491     -7879.4748     -85.038731     -2069.6877      7026.5795     -4783.2314     -413.13983      77704.234      42.672514      42.672514      42.672514      0.9418555     -304.0289       479.10017     -2209.5475    
    135000   135000         499.98199      400.76647      14246.094      13795.266      10460.776      3334.49        3916.2144      7332.5659     -7969.424      -80.401273     -2090.2288      7016.5986     -4790.8347     -416.19607      77133.629      42.567805      42.567805      42.567805      0.94882298    -927.57738      1382.0123      747.86451    
    136000   136000         499.13552      202.09801      14355.601      14122.524      10443.066      3679.4577      3984.5924      7385.11       -7929.7648     -86.610802     -1928.3945      7033.9491     -4779.4236     -405.95659      79079.177      42.922734      42.922734      42.922734      0.92547953     856.41161     -1241.0108      990.89321    
    137000   137000         498.28649     -349.95185      13568.323      13967.594      10425.302      3542.2914      3920.7564      7446.0582     -7879.0997     -87.550814     -2087.1275      7017.6107     -4788.3558     -410.35354      78231.842      42.768877      42.768877      42.768877      0.93550347     500.01987     -2789.598       1239.7226    
    138000   138000         496.00231     -552.30787      13469.881      14100.869      10377.512      3723.357       4089.1886      7457.3395     -8009.7864     -87.301075     -1997.7962      7052.1019     -4780.3893     -409.80582      78336.402      42.787923      42.787923      42.787923      0.9342548     -414.08381     -1452.6021      209.76234    
    139000   139000         497.51043      2222.3911      16337.479      13847.478      10409.065      3438.4123      3945.3995      7377.6241     -7939.9805     -86.624138     -2103.6004      7025.5413     -4779.9476     -417.8675       76825.102      42.510973      42.510973      42.510973      0.95263342     657.29255      3752.3048      2257.5761    
    140000   140000         502.09948      1062.7992      15365.211      14161.853      10505.079      3656.7738      4046.9267      7458.9448     -7968.3118     -81.556711     -2020.4794      7006.5695     -4785.3193     -413.49848      77636.836      42.660173      42.660173      42.660173      0.94267314     115.99004      2304.3052      768.10247    
    141000   141000         503.49188      1273.9152      15460.501      14014.274      10534.211      3480.0634      3935.7861      7265.6985     -7921.1889     -84.743475     -1947.3413      7013.514      -4781.6615     -412.403        77843.065      42.697912      42.697912      42.697912      0.94017572     1857.3435      1785.3528      179.04918    
    142000   142000         497.86126     -816.62975      12893.489      13825.904      10416.406      3409.4984      4042.2154      7260.1286     -7952.3815     -86.233334     -2064.1378      7000.3255     -4790.4185     -410.04688      78290.349      42.779537      42.779537      42.779537      0.93480436    -288.07937     -2240.5546      78.744753    
    143000   143000         496.64348     -1499.8258      12276.32       13977.898      10390.927      3586.9715      4030.6885      7373.7415     -7926.1508     -87.118847     -2025.8365      7015.9977     -4794.35       -412.67341      77792.058      42.688584      42.688584      42.688584      0.94079218    -2375.0832     -901.96854     -1222.4255    
    144000   144000         497.687        761.36659      14575.614      13730.87       10412.76       3318.11        3900.5194      7339.488      -7914.6383     -88.933494     -2114.3761      6987.9649     -4791.9144     -421.97426      76077.421      42.372614      42.372614      42.372614      0.9619958     -900.3388       1749.6411      1434.7975    
    145000   145000         492.1979      -633.27291      13468.828      14193.166      10297.915      3895.2507      4092.1386      7430.8748     -7772.9532     -91.021532     -1974.1124      7000.1186     -4789.7942     -409.32403      78428.608      42.804704      42.804704      42.804704      0.93315643    -292.5618      -1404.4413     -202.81567    
    146000   146000         493.38547      769.47489      14642.343      13771.882      10322.762      3449.1206      3882.4562      7277.9277     -7806.1155     -87.037089     -2057.1925      7024.3997     -4785.318      -413.86872      77567.384      42.647448      42.647448      42.647448      0.94351718     1073.0975      752.24216      483.08507    
    147000   147000         497.67958     -501.78746      13427.09       13995.831      10412.604      3583.2271      3999.3426      7309.7227     -7929.9047     -80.999019     -1937.1242      7005.9971     -4783.8074     -413.06868      77717.618      42.674964      42.674964      42.674964      0.9416933     -202.23608     -1257.8631     -45.263235    
    148000   148000         505.67263      539.11442      14566.307      13960.869      10579.837      3381.0314      3885.3272      7317.6881     -7929.7089     -81.376932     -2035.0096      7010.4027     -4786.2911     -416.89722      77003.905      42.543928      42.543928      42.543928      0.9504214      1425.6524      606.01512     -414.32421    
    149000   149000         506.01835     -552.66009      13338.273      13956.344      10587.071      3369.2733      3946.3789      7243.2521     -7857.5931     -86.462746     -2099.2762      7008.4563     -4785.4819     -418.63669      76683.946      42.484921      42.484921      42.484921      0.95438698    -1854.9607      524.79503     -327.81455    
    150000   150000         503.36405     -317.8543       13763.555      14122.358      10531.537      3590.8214      3901.4854      7503.1831     -7862.5369     -89.18284      -2097.3049      7023.2933     -4788.1157     -414.75305      77401.995      42.617115      42.617115      42.617115      0.94553325     444.48419     -125.266       -1272.7811    
    151000   151000         496.05628      1216.9962      15263.507      13870.52       10378.641      3491.8791      3841.9576      7456.6283     -7988.4858     -83.789859     -1968.0559      7015.1764     -4781.5517     -409.03447      78484.128      42.814803      42.814803      42.814803      0.93249631     2227.7643      1400.878       22.346362    
    152000   152000         499.60256      1012.5718      15312.481      14159.866      10452.837      3707.0283      3932.1109      7503.4551     -7901.6892     -86.656557     -1969.7743      7017.762      -4788.1796     -411.30034      78051.755      42.736035      42.736035      42.736035      0.93766193     1594.0982      2135.1002     -691.48309    
    153000   153000         495.98743     -1421.6526      12367.765      13999.149      10377.201      3621.9486      4009.0691      7302.7441     -7863.3418     -80.816215     -1984.5071      7024.8142     -4786.0137     -407.99495      78684.095      42.851134      42.851134      42.851134      0.93012647     788.54293     -1116.3649     -3937.1358    
    154000   154000         511.1326       56.644513      14551.083      14485.892      10694.073      3791.8192      4188.8653      7441.4505     -7985.9154     -87.861252     -1989.2602      7015.9374     -4791.3972     -406.80394      78914.462      42.892912      42.892912      42.892912      0.92741125     1451.379      -275.74262     -1005.7028    
    155000   155000         503.58633      950.65397      15030.506      13953.032      10536.187      3416.8447      3883.1449      7225.7213     -7883.1783     -79.864622     -1956.8808      7015.3769     -4787.4746     -413.07911      77715.656      42.674605      42.674605      42.674605      0.94171707     1337.2609      23.781611      1490.9194    
    156000   156000         498.27539     -550.18014      13327.319      13959.161      10425.07       3534.0913      3815.91        7354.4238     -7880.339      -79.376999     -1932.9076      7037.3693     -4780.9882     -407.67492      78745.863      42.862344      42.862344      42.862344      0.92939689    -1584.0061      519.9346      -586.4689     
    157000   157000         500.89039      1072.8735      14901.899      13692.672      10479.782      3212.8901      3864.8665      7194.8664     -7967.0212     -84.92934      -2048.7739      7035.1761     -4781.2945     -415.39217      77282.904      42.595247      42.595247      42.595247      0.94699029     1247.0448     -143.38118      2114.957     
    158000   158000         500.80345     -425.28776      13642.726      14124.62       10477.963      3646.657       4006.2417      7424.9847     -7915.4154     -88.466976     -2029.533       7035.6551     -4786.809      -413.18919      77694.951      42.670814      42.670814      42.670814      0.94196802     66.059667     -1134.7799     -207.14304    
    159000   159000         503.74073     -110.29861      13793.999      13919.442      10539.418      3380.0242      3892.9427      7251.0547     -7890.4084     -83.156772     -2027.3424      7020.1954     -4783.261      -411.66291      77983.013      42.723485      42.723485      42.723485      0.93848849    -324.67266      1344.478      -1350.7012    
    160000   160000         496.41564     -799.04939      13095.094      14005.599      10386.16       3619.4396      3958.1693      7477.3265     -7948.1347     -91.986361     -1995.955       7003.8048     -4783.7849     -410.87399      78132.747      42.750812      42.750812      42.750812      0.93668996     95.691336     -2228.9342     -263.90532    
    161000   161000         504.54203      850.76138      15132.029      14157.83       10556.183      3601.6472      3992.567       7314.5484     -7907.1761     -79.138843     -1931.0675      7000.6013     -4788.6871     -408.86271      78517.098      42.820797      42.820797      42.820797      0.93210475     1136.7135      274.10564      1141.465     
    162000   162000         495.72928      598.50668      14702.824      14018.335      10371.8        3646.5357      4081.5107      7215.9456     -7877.739      -81.773061     -1927.7223      7025.3041     -4788.9903     -409.37404      78419.026      42.802961      42.802961      42.802961      0.93327045     1394.2727      712.87243     -311.6251     
    163000   163000         498.65614     -216.26019      13752.048      13994.872      10433.036      3561.8356      4104.9956      7237.4221     -7866.3064     -84.718225     -2050.4566      7012.4628     -4791.5636     -416.96876      76990.693      42.541494      42.541494      42.541494      0.95058451    -623.55564      233.81618     -259.04112    
    164000   164000         504.12346      984.26203      15291.141      14173.407      10547.425      3625.9819      3944.2918      7615.9856     -7921.7295     -82.126088     -2172.588       7024.7369     -4782.5889     -412.27767      77866.73       42.702239      42.702239      42.702239      0.93988999    -181.30948      286.3564       2847.7392    
    165000   165000         498.31116     -495.31293      13363.292      13919.702      10425.818      3493.8838      3962.9635      7303.1832     -7857.4852     -82.092224     -2087.0455      7036.6564     -4782.2965     -416.77544      77026.404      42.548071      42.548071      42.548071      0.95014379     223.03721     -949.07344     -759.90258    
    166000   166000         501.5701      -208.06569      13756.584      13989.641      10494.003      3495.6382      3880.4627      7442.4118     -7849.0849     -88.408951     -2103.3582      7008.4708     -4794.8552     -417.98085      76804.268      42.50713       42.50713       42.50713       0.95289183     328.87641      166.25328     -1119.3268    
    167000   167000         511.48967      161.49624      14462.781      14280.308      10701.543      3578.7651      4066.042       7265.2215     -7872.9679     -83.157458     -2046.9193      7039.7279     -4789.1818     -414.36352      77474.758      42.630466      42.630466      42.630466      0.94464522     381.45206      329.12757     -226.09092    
    168000   168000         496.54981      801.24808      14801.881      13897.856      10388.967      3508.8888      3822.7637      7501.093      -7960.8927     -82.89654      -2013.7245      7029.9455     -4787.3998     -414.95794      77363.778      42.6101        42.6101        42.6101        0.94600033     188.30518      2714.1296     -498.69054    
    169000   169000         501.9929       763.83378      15166.229      14289.134      10502.849      3786.2852      4014.0333      7437.6197     -7846.8665     -88.30445      -1962.8871      7018.2468     -4785.5565     -407.72726      78735.754      42.86051       42.86051       42.86051       0.92951621     1641.1444      1097.5253     -447.16837    
    170000   170000         497.01101     -833.66583      13086.638      14033.993      10398.616      3635.3764      4009.5107      7455.5151     -7984.2594     -85.352165     -1998.9145      7016.2315     -4777.3549     -411.99979      77919.247      42.711837      42.711837      42.711837      0.9392565      665.8022      -1915.3944     -1251.4053    
    171000   171000         500.50855      1571.3792      15956.691      14161.147      10471.793      3689.3541      4057.0987      7449.9121     -7970.7902     -88.214615     -2022.8377      7044.1287     -4779.9429     -409.73466      78350.008      42.7904        42.7904        42.7904        0.93409256     380.88957      2970.0182      1363.2299    
    172000   172000         499.62548     -2028.1214      11827.16       14143.113      10453.317      3689.7959      4018.5612      7414.5653     -7885.654      -85.583587     -2012.2483      7023.2153     -4783.0601     -409.99813      78299.659      42.781232      42.781232      42.781232      0.93469321    -2643.522      -2258.2025     -1182.6398    
    173000   173000         498.92124      392.33018      14519.685      14070.78       10438.583      3632.1973      4000.5997      7392.3254     -7924.5485     -86.657004     -1981.2233      7015.0815     -4783.3804     -409.18019      78456.177      42.809719      42.809719      42.809719      0.93282852     633.52696      64.149779      479.31381    
    174000   174000         510.84165     -579.96744      13680.887      14343.908      10687.985      3655.9227      4035.2162      7210.4827     -7852.4554     -79.666796     -1932.0596      7053.9037     -4779.4982     -409.53774      78387.681      42.797257      42.797257      42.797257      0.93364364    -1203.1708     -923.87319      387.14171    
    175000   175000         504.33572      315.43355      14521.405      14164.07       10551.866      3612.2041      3994.7722      7306.7419     -7883.4999     -91.177889     -1975.2004      7040.9477     -4780.3796     -413.28556      77676.834      42.667497      42.667497      42.667497      0.94218773     233.0661       2554.3341     -1841.0995    
    176000   176000         498.58268      1565.6736      15644.569      13859.889      10431.499      3428.3898      3875.3247      7286.9356     -7954.0264     -83.317607     -1947.4778      7037.6971     -4786.7458     -410.73195      78159.767      42.755739      42.755739      42.755739      0.93636615     1262.8625      1679.9886      1754.1696    
    177000   177000         498.24916      458.91674      14667.615      14143.381      10424.521      3718.8592      3956.7039      7569.3338     -7957.0058     -89.621656     -2003.3563      7028.4577     -4785.6524     -409.85126      78327.717      42.786342      42.786342      42.786342      0.93435839    -497.15248     -76.301022      1950.2037    
    178000   178000         490.90581      191.11958      14063.102      13845.365      10270.882      3574.4837      4023.1775      7171.9662     -7853.5882     -78.043348     -1935.031       7030.3528     -4784.3503     -410.95283      78117.758      42.748078      42.748078      42.748078      0.93686968     409.93112      494.13161     -330.70398    
    179000   179000         503.54305      1011.6154      15237.244      14074.799      10535.282      3539.5178      3912.2278      7366.4831     -7918.48       -86.408131     -1978.9563      7027.2075     -4782.5562     -407.43727      78791.795      42.870676      42.870676      42.870676      0.92885509     1338.7393      17.083182      1679.0239    
    180000   180000         501.32497     -943.93499      12921.312      13986.723      10488.874      3497.8485      3902.3562      7315.1432     -7836.234      -87.862116     -2026.4608      7014.5847     -4783.6786     -414.80359      77392.565      42.615385      42.615385      42.615385      0.94564845    -1536.8393      527.4801      -1822.4458    
    181000   181000         499.23686      2299.9412      16417.138      13808.132      10445.186      3362.946       3825.4897      7208.0473     -7875.1372     -84.441074     -1987.7121      7058.5594     -4781.8601     -412.72362      77782.594      42.686853      42.686853      42.686853      0.94090664     2260.5804      2082.6337      2556.6093    
    182000   182000         497.49621      1339.0031      15523.236      13980.338      10408.768      3571.5701      3944.54        7327.696      -7972.2906     -82.580231     -1921.6143      7058.4761     -4782.6569     -406.31419      79009.58       42.910139      42.910139      42.910139      0.92629475     918.51677     -428.38108      3526.8736    
[...]
    955000   955000         493.49794     -476.27426      13378.599      13921.058      10325.115      3595.9437      4016.0109      7272.1396     -7806.3302     -85.54598      -2026.6803      7017.8879     -4791.5383     -411.06176      78097.057      42.744301      42.744301      42.744301      0.93711802    -59.536814      452.32832     -1821.6143    
    956000   956000         498.48541     -986.80257      12858.453      13968.68       10429.464      3539.2159      4048.3615      7244.769      -7853.0822     -82.300202     -2054.5103      7026.5094     -4790.5313     -416.13678      77144.62       42.569827      42.569827      42.569827      0.9486878     -745.10168     -927.09062     -1288.2154    
    957000   957000         495.76174      346.30011      14275.745      13883.076      10372.479      3510.5977      4006.8743      7208.606      -7846.194      -85.990234     -2013.6927      7026.9331     -4785.9389     -412.89966      77749.431      42.680786      42.680786      42.680786      0.94130798    -2140.5229      2438.5239      740.89928    
    958000   958000         491.68641     -253.62914      13591.736      13880.941      10287.213      3593.7279      3998.2608      7328.8247     -7899.3727     -87.49394      -1980.3468      7017.0777     -4783.2219     -410.59225      78186.36       42.760588      42.760588      42.760588      0.93604767    -394.78086      300.64515     -666.7517     
    959000   959000         506.49397     -235.69332      13929.165      14196.861      10597.022      3599.8387      4034.1455      7382.4127     -7843.7834     -83.400504     -2105.8743      7009.4921     -4793.1533     -412.2148       77878.605      42.704409      42.704409      42.704409      0.93974667    -965.35128      412.95565     -154.68433    
    960000   960000         503.43267      2012.074       16301.474      14018.441      10532.972      3485.4692      3918.328       7249.4419     -7816.5971     -85.938143     -2005.9675      7019.1708     -4792.9688     -412.61922      77802.274      42.690453      42.690453      42.690453      0.94066865     2905.5189      1893.4571      1237.2461    
    961000   961000         495.49375      200.90158      14296.276      14068.882      10366.872      3702.0103      4040.6608      7332.2181     -7856.2788     -85.743208     -1950.9899      7009.6345     -4787.4912     -413.63958      77610.353      42.655322      42.655322      42.655322      0.9429948      1770.6677     -957.10855     -210.85441    
    962000   962000         500.72036     -1893.3583      11816.129      13959.516      10476.224      3483.2914      4046.8242      7291.4192     -7895.1993     -80.343459     -2111.2064      7022.516      -4790.7189     -413.57092      77623.238      42.657682      42.657682      42.657682      0.94283828    -2130.8351     -3258.3171     -290.92284    
    963000   963000         495.89212      332.43799      14420.678      14039.903      10375.206      3664.6967      4032.7437      7186.4687     -7818.9735     -82.013126     -1921.5476      7045.573      -4777.5545     -408.75188      78538.387      42.824667      42.824667      42.824667      0.93185208     583.05127     -1086.2829      1500.5456    
    964000   964000         501.26799      1118.3285      15226.333      13966.352      10487.682      3478.6696      3993.7264      7379.3955     -8027.8405     -83.096885     -2028.9574      7029.6844     -4784.2419     -415.54965      77253.617      42.589866      42.589866      42.589866      0.94734929     1266.6756      2509.3958     -421.08595    
    965000   965000         496.38966     -549.75567      13308.485      13932.71       10385.616      3547.0936      3970.252       7420.5906     -7928.2372     -83.697122     -2071.0393      7022.6862     -4783.4614     -412.33155      77856.555      42.700379      42.700379      42.700379      0.94001282    -2378.3702      782.65873     -53.555586    
    966000   966000         502.49177     -906.5556       13186.658      14206.07       10513.286      3692.7832      4057.4672      7338.9166     -7832.486      -85.41444      -2025.8548      7028.5999     -4788.4453     -416.35384      77104.402      42.562428      42.562428      42.562428      0.94918264    -384.08677     -986.53876     -1349.0413    
    967000   967000         497.23665     -537.85846      13240.232      13851.962      10403.337      3448.6243      3942.4461      7209.739      -7810.9353     -81.617817     -2072.5929      7045.0333     -4783.448      -411.64818      77985.803      42.723994      42.723994      42.723994      0.93845491    -817.87146     -81.913873     -713.79003    
    968000   968000         500.24751      1101.4024      15262.336      14023.113      10466.331      3556.782       3970.44        7342.3614     -7852.2675     -83.77614      -2037.995       7007.1071     -4789.088      -416.11596      77148.48       42.570537      42.570537      42.570537      0.94864034     125.89832      2387.1965      791.11246    
    969000   969000         509.41061     -1390.9078      12711.973      14297.334      10658.044      3639.2896      3994.0341      7352.0375     -7880.7457     -77.257629     -2007.1137      7041.5847     -4783.2498     -410.75974      78154.48       42.754775      42.754775      42.754775      0.93642949    -1350.9982     -1229.7305     -1591.9946    
    970000   970000         496.43335     -379.73749      13383.447      13814.221      10386.53       3427.6902      3955.5093      7089.078      -7807.7482     -83.64856      -1956.0541      7020.5127     -4789.9589     -412.71665      77783.907      42.687093      42.687093      42.687093      0.94089076    -672.72019     -47.543421     -418.94884    
    971000   971000         498.61297     -518.58452      13473.676      14063.244      10432.133      3631.1112      3976.0904      7355.5897     -7810.4478     -85.667592     -2051.3651      7030.8546     -4783.943      -411.81559      77954.1        42.718204      42.718204      42.718204      0.93883657     396.21546     -1231.83       -720.13898    
    972000   972000         504.80213     -1016.6067      13167.3        14325.709      10561.625      3764.0844      4131.4964      7393.7009     -7887.2287     -87.7683       -2016.6069      7017.2631     -4786.7722     -410.87392      78132.76       42.750814      42.750814      42.750814      0.9366898     -367.10307     -699.69578     -1983.0214    
    973000   973000         497.96913      288.45496      14257.676      13932.397      10418.662      3513.7343      3968.1706      7346.7586     -7813.8181     -86.239718     -2104.6831      6997.7213     -4794.1753     -415.18212      77322.003      42.602429      42.602429      42.602429      0.94651143     356.31274      373.01682      136.03532    
    974000   974000         500.77084      46.200085      14016.086      13963.85       10477.281      3486.5693      3921.4316      7316.8501     -7828.4367     -79.56022      -2081.1945      7018.9002     -4781.4211     -414.08176      77527.475      42.640133      42.640133      42.640133      0.94400288     407.03727      612.36767     -880.80468    
    975000   975000         499.25617     -625.8399       13494.788      14214.167      10445.59       3768.5773      4038.2509      7448.8423     -7888.9214     -94.274619     -1964.1349      7013.635      -4784.82       -407.30786      78816.828      42.875216      42.875216      42.875216      0.92856007    -858.1503      -1094.6927      75.323263    
    976000   976000         505.10472     -309.8835       13634.15       13983.018      10567.955      3415.0622      3981.6225      7246.4663     -7865.4642     -84.310335     -2080.0727      7003.0812     -4786.2605     -415.86829      77194.425      42.578986      42.578986      42.578986      0.94807572     191.10055     -3160.2883      2039.5373    
    977000   977000         491.30217      531.54975      14293.649      13694.039      10279.174      3414.8652      3928.0883      7169.2798     -7840.8678     -87.247814     -1992.6705      7022.8639     -4784.5806     -415.04283      77347.954      42.607195      42.607195      42.607195      0.94619386     931.77511     -469.05335      1131.9275    
    978000   978000         493.53799     -2063.0358      11657.931      14009.279      10325.953      3683.3262      4105.3193      7408.1574     -7917.5763     -87.112867     -2019.4393      6986.285      -4792.3071     -410.77831      78150.947      42.754131      42.754131      42.754131      0.93647182    -1442.8757     -2320.4984     -2425.7334    
    979000   979000         493.97367      718.00119      14586.668      13772.556      10335.068      3437.4878      3878.6314      7388.0506     -7968.0309     -83.720805     -1985.5186      7003.4687     -4795.3925     -412.91283      77746.95       42.680332      42.680332      42.680332      0.94133801     94.888654      918.41593      1140.699     
    980000   980000         497.41384     -1180.8943      12538.691      13862.099      10407.044      3455.0544      3966.8315      7390.3399     -7937.2219     -80.254702     -2081.9663      6991.6119     -4794.286      -417.76765      76843.465      42.51436       42.51436       42.51436       0.95240577     519.55499     -3288.1934     -774.04441    
    981000   981000         501.92738      1830.6741      16203.898      14139.418      10501.478      3637.9396      4007.6746      7293.8929     -7887.7087     -84.627572     -1922.1706      7019.8483     -4788.9694     -415.16228      77325.699      42.603108      42.603108      42.603108      0.94646619     1449.4556      2102.2305      1940.3361    
    982000   982000         501.37402     -1680.8874      12193.365      14085.398      10489.901      3595.4977      4051.7826      7337.339      -7888.1917     -88.257218     -2060.5009      7031.7693     -4788.4434     -415.93704      77181.666      42.57664       42.57664       42.57664       0.94823244    -1219.3254     -633.11016     -3190.2265    
    983000   983000         496.48908     -566.44451      13258.698      13896.493      10387.696      3508.797       3898.6506      7380.9811     -7877.8538     -82.626413     -2056.6578      7032.2107     -4785.9074     -415.80894      77205.443      42.581011      42.581011      42.581011      0.94794042     357.69413      809.95511     -2866.9828    
    984000   984000         501.5325      -470.33539      13401.174      13937.417      10493.216      3444.2003      3952.9355      7264.8473     -7943.2785     -83.075345     -2001.0769      7035.606      -4781.7578     -410.64232      78176.826      42.75885       42.75885       42.75885       0.93616182    -238.98634     -849.94628     -322.07355    
    985000   985000         500.88459     -371.28709      13744.294      14163.05       10479.661      3683.389       3981.8951      7406.0919     -7877.3791     -87.4028       -1998.0783      7041.3875     -4783.1255     -415.11382      77334.727      42.604766      42.604766      42.604766      0.9463557      322.11653     -953.16106     -482.81674    
    986000   986000         504.03708      275.03821      14384.674      14072.941      10545.618      3527.3232      4037.4567      7174.1573     -7855.126      -82.678555     -2000.3253      7030.0629     -4776.2238     -413.07449      77716.525      42.674764      42.674764      42.674764      0.94170654     552.02405      2143.2616     -1870.171     
    987000   987000         500.75796     -934.89602      12997.516      14051.742      10477.011      3574.7306      3960.4963      7347.3425     -7873.765      -91.282775     -1996.6089      7013.6312     -4785.0827     -415.19043      77320.457      42.602145      42.602145      42.602145      0.94653036    -1729.9481     -826.04811     -248.6918     
    988000   988000         503.65113     -662.35531      13512.52       14270.949      10537.543      3733.4059      4016.2383      7347.9219     -7808.6381     -86.42285      -1969.1949      7018.1942     -4784.6926     -408.87833      78514.098      42.820252      42.820252      42.820252      0.93214036     73.576179     -844.70623     -1215.9359    
    989000   989000         497.68761      875.61579      14982.613      13988.462      10412.772      3575.6897      3974.4291      7263.02       -7849.6911     -83.733817     -1968.975       7021.88       -4781.2394     -412.36215      77850.777      42.699322      42.699322      42.699322      0.94008259     218.01076      431.58899      1977.2476    
    990000   990000         495.23976     -64.910069      13811.696      13886.318      10361.558      3524.7603      3943.0228      7210.3608     -7830.6745     -87.000832     -1948.9472      7027.7541     -4789.755      -407.25353      78827.343      42.877122      42.877122      42.877122      0.92843621    -122.08864      1265.0857     -1337.7273    
    991000   991000         498.96329     -1255.9955      12733.28       14168.23       10439.463      3728.7677      4106.9368      7313.6032     -7864.9246     -86.775727     -1964.8274      7012.7731     -4788.0176     -409.79698      78338.092      42.788231      42.788231      42.788231      0.93423464    -463.28591     -2866.9652     -437.7352     
    992000   992000         501.00449      1848.6646      16301.229      14173.451      10482.169      3691.2821      3926.9543      7429.5735     -7925.8601     -83.946857     -1917.5026      7043.5108     -4781.4469     -406.77044      78920.96       42.894089      42.894089      42.894089      0.92733489     1464.9571      1120.4537      2960.5829    
    993000   993000         499.8292       893.38444      15076.957      14061.545      10457.579      3603.9656      3911.8785      7343.4832     -7824.0815     -86.484179     -1996.1         7038.8607     -4783.5912     -411.92098      77934.155      42.714561      42.714561      42.714561      0.93907683    -813.58066      961.95009      2531.7839    
    994000   994000         499.84757     -125.7887       14077.485      14220.968      10457.964      3763.0042      3980.6037      7516.5699     -7827.7872     -94.119243     -2076.0508      7039.271      -4775.4831     -410.44863      78213.718      42.765575      42.765575      42.765575      0.93572024    -735.38449     -111.22734      469.24572    
    995000   995000         493.08966      426.65264      14222.748      13738.446      10316.573      3421.8732      3918.0615      7250.4554     -7903.2333     -90.070912     -1988.661       7020.7834     -4785.462      -412.45391      77833.456      42.696156      42.696156      42.696156      0.94029179    -906.27686      1758.996       427.23879    
    996000   996000         504.55701      468.77054      14602.207      14071.587      10556.496      3515.0912      3910.6848      7389.232      -7838.726      -85.559769     -2097.4244      7014.2608     -4777.3763     -413.61337      77615.271      42.656222      42.656222      42.656222      0.94293505     1347.7039      224.41143     -165.8037     
    997000   997000         500.86147      403.9128       14635.127      14176.585      10479.177      3697.4085      4044.2835      7376.7081     -7883.2261     -84.886743     -1977.201       7011.9443     -4790.2136     -412.40726      77842.261      42.697765      42.697765      42.697765      0.94018544     939.46331     -1267.3091      1539.5842    
    998000   998000         498.49053     -1147.4788      12760.191      14062.731      10429.571      3633.1592      3945.9672      7326.5185     -7804.2962     -78.502016     -1998.5448      7027.6264     -4785.6099     -412.45003      77834.189      42.69629       42.69629       42.69629       0.94028293    -2031.0251     -603.60763     -807.80358    
    999000   999000         497.7377      -355.5639       13394.51       13798.982      10413.82       3385.1616      3976.7313      7376.8296     -8027.1798     -85.161593     -2072.9702      7009.6334     -4792.7211     -411.57262      78000.12       42.726609      42.726609      42.726609      0.93828265     49.429897     -609.96804     -506.15355    
   1000000   1000000        502.19707     -688.78812      13279.346      14061.183      10507.121      3554.0626      3978.2186      7266.5855     -7833.1049     -83.084178     -1998.6049      7014.2061     -4790.1536     -412.46465      77831.43       42.695785      42.695785      42.695785      0.94031626    -1895.3427     -522.56519      351.54357    
Loop time of 2028.73 on 1 procs for 1000000 steps with 7020 atoms

Performance: 42.588 ns/day, 0.564 hours/ns, 492.920 timesteps/s, 3.460 Matom-step/s
99.9% CPU use with 1 MPI tasks x 1 OpenMP threads

MPI task timing breakdown:
Section |  min time  |  avg time  |  max time  |%varavg| %total
---------------------------------------------------------------
Pair    | 237.47     | 237.47     | 237.47     |   0.0 | 11.71
Bond    | 228.17     | 228.17     | 228.17     |   0.0 | 11.25
Kspace  | 953.51     | 953.51     | 953.51     |   0.0 | 47.00
Neigh   | 201.51     | 201.51     | 201.51     |   0.0 |  9.93
Comm    | 39.63      | 39.63      | 39.63      |   0.0 |  1.95
Output  | 11.192     | 11.192     | 11.192     |   0.0 |  0.55
Modify  | 316.35     | 316.35     | 316.35     |   0.0 | 15.59
Other   |            | 40.9       |            |       |  2.02

Nlocal:           7020 ave        7020 max        7020 min
Histogram: 1 0 0 0 0 0 0 0 0 0
Nghost:          18361 ave       18361 max       18361 min
Histogram: 1 0 0 0 0 0 0 0 0 0
Neighs:              0 ave           0 max           0 min
Histogram: 1 0 0 0 0 0 0 0 0 0
FullNghs:  4.03695e+06 ave 4.03695e+06 max 4.03695e+06 min
Histogram: 1 0 0 0 0 0 0 0 0 0

Total # of neighbors = 4036952
Ave neighs/atom = 575.06439
Ave special neighs/atom = 5.7008547
Neighbor list builds = 43409
Dangerous builds = 0

# --- Cleanup ---
unfix npt_fix

undump dump_npt

# --- Write Output ---
write_dump all custom npt_melt_last.dump id type mol x y z xu yu zu vx vy vz modify sort id
write_data /home/alexzhao/PolyJarvis/data/PEG4/lammps/equil/npt_melt/npt_melt_out.data
System init for write_data ...
PPPM Kokkos initialization ...
  using 12-bit tables for long-range coulomb
  G vector (1/distance) = 0.29927762
  grid = 30 30 30
  stencil order = 5
  estimated absolute RMS force accuracy = 0.00034685727
  estimated relative force accuracy = 1.0445504e-06
  using double precision cuFFT
  3d grid and FFT values/proc = 50653 27000
Generated 10 of 10 mixed pair_coeff terms from sixthpower/sixthpower mixing rule

print "STAGE COMPLETE: NPT T=500.0->500.0K P=1.0->1.0atm steps=1000000"
STAGE COMPLETE: NPT T=500.0->500.0K P=1.0->1.0atm steps=1000000
quit
    |       |  2.02

Nlocal:           7020 ave        7020 max        7020 min
Histogram: 1 0 0 0 0 0 0 0 0 0
Nghost:          18361 ave       18361 max       18361 min
Histogram: 1 0 0 0 0 0 0 0 0 0
Neighs:              0 ave           0 max           0 min
Histogram: 1 0 0 0 0 0 0 0 0 0
FullNghs:  4.03695e+06 ave 4.03695e+06 max 4.03695e+06 min
Histogram: 1 0 0 0 0 0 0 0 0 0

Total # of neighbors = 4036952
Ave neighs/atom = 575.06439
Ave special neighs/atom = 5.7008547
Neighbor list builds = 43409
Dangerous builds = 0
System init for write_data ...
PPPM Kokkos initialization ...
  using 12-bit tables for long-range coulomb
  G vector (1/distance) = 0.29927762
  grid = 30 30 30
  stencil order = 5
  estimated absolute RMS force accuracy = 0.00034685727
  estimated relative force accuracy = 1.0445504e-06
  using double precision cuFFT
  3d grid and FFT values/proc = 50653 27000
Generated 10 of 10 mixed pair_coeff terms from sixthpower/sixthpower mixing rule
STAGE COMPLETE: NPT T=500.0->500.0K P=1.0->1.0atm steps=1000000
