units real
atom_style full
boundary p p p

# --- Force Field Styles ---
pair_style lj/class2/coul/long 9.5 9.5
kspace_style pppm 1e-6
dielectric 1.000000
bond_style class2
angle_style class2
dihedral_style class2
improper_style class2
special_bonds lj/coul 0 0 1
pair_modify mix sixthpower tail yes
neighbor 2.0 bin
neigh_modify delay 0 every 1 check yes
neigh_modify one 4000
package gpu 1 neigh no

read_data /home/arz2/PolyJarvis/data/PVC1/lammps/equil/npt_prod300/npt_prod300_out.data
Reading data file ...
  orthogonal box = (6.2574526 6.2574526 6.2574526) to (42.128042 42.128042 42.128042)
  1 by 2 by 2 MPI processor grid
  reading atoms ...
  3620 atoms
  reading velocities ...
  3620 velocities
  scanning bonds ...
  4 = max bonds/atom
  scanning angles ...
  6 = max angles/atom
  scanning dihedrals ...
  12 = max dihedrals/atom
  scanning impropers ...
  4 = max impropers/atom
  orthogonal box = (6.2574526 6.2574526 6.2574526) to (42.128042 42.128042 42.128042)
  1 by 2 by 2 MPI processor grid
  reading bonds ...
  3610 bonds
  reading angles ...
  7200 angles
  reading dihedrals ...
  10710 dihedrals
  reading impropers ...
  4800 impropers
Finding 1-2 1-3 1-4 neighbors ...
  special bond factors lj:    0        0        1       
  special bond factors coul:  0        0        1       
     4 = max # of 1-2 neighbors
     6 = max # of 1-3 neighbors
    10 = max # of special neighbors
  special bonds CPU = 0.000 seconds
  read_data CPU = 0.113 seconds
include /home/arz2/PolyJarvis/data/PVC1/lammps/cell/emc_build.params
# LAMMPS parameters created by EMC v9.4.4, build Jul 31 2025 20:33:44

# Variables

variable	seed		index	-1
variable	ntotal		index	3620
variable	fshape		index	1
variable	output		index	emc_build
variable	field		index	pcff/pcff
variable	location1	index	/home/arz2/emc/field/
variable	nav		index	0.6022141179
variable	temperature	index	300
variable	radius		index	5
variable	nrelax		index	100
variable	weight_nonbond	index	0.0001
variable	weight_bond	index	0.0001
variable	weight_focus	index	1
variable	cutoff		index	9.5
variable	charge_cutoff	index	9.5
variable	kappa		index	4
variable	density1	index	0.55
variable	lprevious	index	0
variable	lphase		index	48.3854950346
variable	f_poly		index	10
variable	chem_repeat	index	*CC(Cl)*
variable	chem_cap	index	*[H]
variable	lg_repeat	index	6
variable	lg_cap		index	1
variable	norm_poly	index	100
variable	l_poly		index	362
variable	mg_repeat	index	50.48806
variable	mg_cap		index	1.00797
variable	m_poly		index	3031.29954
variable	n_poly		index	10
variable	mtotal		index	37519.6854
variable	nphase1		index	3620
variable	mphase1		index	37519.6854
variable	vphase1		index	113277.998291
variable	lbox		index	48.3854950346
variable	lphase1		index	48.3854950346
variable	lxx		index	48.3854950346
variable	lyy		index	48.3854950346
variable	lzz		index	48.3854950346
variable	lzy		index	0
variable	lzx		index	0
variable	lyx		index	0
variable	vtotal		index	113277.998291
variable	nl_poly		index	10

# Types

variable	type_c		index	1
variable	type_c1		index	2
variable	type_cl		index	3
variable	type_hc		index	4

variable	type_bond_c_c	index	1
variable	type_bond_c_c1	index	2
variable	type_bond_c_cl	index	3
variable	type_bond_c_hc	index	4
variable	type_bond_c1_cl	index	5
variable	type_bond_c1_hc	index	6

variable	type_angle_c_c_c1 index	1
variable	type_angle_c_c_cl index	2
variable	type_angle_c_c_hc index	3
variable	type_angle_c_c1_c index	4
variable	type_angle_c_c1_cl index	5
variable	type_angle_c_c1_hc index	6
variable	type_angle_c1_c_c1 index	7
variable	type_angle_c1_c_hc index	8
variable	type_angle_cl_c_hc index	9
variable	type_angle_cl_c1_hc index	10
variable	type_angle_hc_c_hc index	11

# Clusters

variable	n0_poly		index	1
variable	n1_poly		index	10
variable	nl_poly		index	10

# Flags

variable	flag_charged	index	1

# Masses

mass		1    12.01115  # c
mass		2    12.01115  # c1
mass		3    35.45300  # cl
mass		4     1.00797  # hc

# Potentials

pair_modify	mix sixthpower tail yes
special_bonds	lj/coul 0 0 1

# Pair Coeffs

pair_coeff	 1  1    0.05400    4.01000  # c,c
pair_coeff	 2  2    0.05400    4.01000  # c1,c1
pair_coeff	 3  3    0.22470    3.92000  # cl,cl
pair_coeff	 4  4    0.02000    2.99500  # hc,hc

# Bond Coeffs

bond_coeff	1    1.53000  299.67000 -501.77000  679.81000  # c,c
bond_coeff	2    1.53000  299.67000 -501.77000  679.81000  # c,c1
bond_coeff	3    1.79000  194.31900    0.00000    0.00000  # c,cl
bond_coeff	4    1.10100  345.00000 -691.89000  844.60000  # c,hc
bond_coeff	5    1.79000  194.31900    0.00000    0.00000  # c1,cl
bond_coeff	6    1.10100  345.00000 -691.89000  844.60000  # c1,hc

# Angle Coeffs

angle_coeff	 1  112.67000   39.51600   -7.44300   -9.55830  # c,c,c1
angle_coeff	 2  107.00000   61.17450    0.00000    0.00000  # c,c,cl
angle_coeff	 3  110.77000   41.45300  -10.60400    5.12900  # c,c,hc
angle_coeff	 4  112.67000   39.51600   -7.44300   -9.55830  # c,c1,c
angle_coeff	 5  107.00000   61.17450    0.00000    0.00000  # c,c1,cl
angle_coeff	 6  110.77000   41.45300  -10.60400    5.12900  # c,c1,hc
angle_coeff	 7  112.67000   39.51600   -7.44300   -9.55830  # c1,c,c1
angle_coeff	 8  110.77000   41.45300  -10.60400    5.12900  # c1,c,hc
angle_coeff	 9  107.99680   51.09870    0.00000    0.00000  # cl,c,hc
angle_coeff	10  107.99680   51.09870    0.00000    0.00000  # cl,c1,hc
angle_coeff	11  107.66000   39.64100  -12.92100   -2.43180  # hc,c,hc

# BondBond Coeffs

angle_coeff	 1 bb    0.00000    1.53000    1.53000  # c,c,c1
angle_coeff	 2 bb    0.00000    1.53000    1.79000  # c,c,cl
angle_coeff	 3 bb    3.38720    1.53000    1.10100  # c,c,hc
angle_coeff	 4 bb    0.00000    1.53000    1.53000  # c,c1,c
angle_coeff	 5 bb    0.00000    1.53000    1.79000  # c,c1,cl
angle_coeff	 6 bb    3.38720    1.53000    1.10100  # c,c1,hc
angle_coeff	 7 bb    0.00000    1.53000    1.53000  # c1,c,c1
angle_coeff	 8 bb    3.38720    1.53000    1.10100  # c1,c,hc
angle_coeff	 9 bb    0.00000    1.79000    1.10100  # cl,c,hc
angle_coeff	10 bb    0.00000    1.79000    1.10100  # cl,c1,hc
angle_coeff	11 bb    5.33160    1.10100    1.10100  # hc,c,hc

# BondAngle Coeffs

angle_coeff	 1 ba    8.01600    8.01600    1.53000    1.53000  # c,c,c1
angle_coeff	 2 ba    0.00000    0.00000    1.53000    1.79000  # c,c,cl
angle_coeff	 3 ba   20.75400   11.42100    1.53000    1.10100  # c,c,hc
angle_coeff	 4 ba    8.01600    8.01600    1.53000    1.53000  # c,c1,c
angle_coeff	 5 ba    0.00000    0.00000    1.53000    1.79000  # c,c1,cl
angle_coeff	 6 ba   20.75400   11.42100    1.53000    1.10100  # c,c1,hc
angle_coeff	 7 ba    8.01600    8.01600    1.53000    1.53000  # c1,c,c1
angle_coeff	 8 ba   20.75400   11.42100    1.53000    1.10100  # c1,c,hc
angle_coeff	 9 ba    0.00000    0.00000    1.79000    1.10100  # cl,c,hc
angle_coeff	10 ba    0.00000    0.00000    1.79000    1.10100  # cl,c1,hc
angle_coeff	11 ba   18.10300   18.10300    1.10100    1.10100  # hc,c,hc

# Dihedral Coeffs

dihedral_coeff	 1    0.00000    0.00000    0.05140    0.00000   -0.14300    0.00000  # c,c,c1,c
dihedral_coeff	 2    0.00000    0.00000    0.00000    0.00000    0.15000    0.00000  # c,c,c1,cl
dihedral_coeff	 3    0.00000    0.00000    0.03160    0.00000   -0.16810    0.00000  # c,c,c1,hc
dihedral_coeff	 4    0.00000    0.00000    0.05140    0.00000   -0.14300    0.00000  # c,c1,c,c1
dihedral_coeff	 5    0.00000    0.00000    0.03160    0.00000   -0.16810    0.00000  # c,c1,c,hc
dihedral_coeff	 6    0.00000    0.00000    0.00000    0.00000    0.15000    0.00000  # c1,c,c,cl
dihedral_coeff	 7    0.00000    0.00000    0.03160    0.00000   -0.16810    0.00000  # c1,c,c,hc
dihedral_coeff	 8    0.00000    0.00000    0.00000    0.00000    0.15000    0.00000  # c1,c,c1,cl
dihedral_coeff	 9    0.00000    0.00000    0.03160    0.00000   -0.16810    0.00000  # c1,c,c1,hc
dihedral_coeff	10    0.00000    0.00000    0.00000    0.00000   -0.10000    0.00000  # cl,c,c,hc
dihedral_coeff	11    0.00000    0.00000    0.00000    0.00000   -0.10000    0.00000  # cl,c1,c,hc
dihedral_coeff	12   -0.14320    0.00000    0.06170    0.00000   -0.10830    0.00000  # hc,c,c,hc
dihedral_coeff	13   -0.14320    0.00000    0.06170    0.00000   -0.10830    0.00000  # hc,c,c1,hc

# MiddleBondTorsion Coeffs

dihedral_coeff	 1 mbt  -17.78700   -7.18770    0.00000    1.53000  # c,c,c1,c
dihedral_coeff	 2 mbt    0.00000    0.00000    0.00000    1.53000  # c,c,c1,cl
dihedral_coeff	 3 mbt  -14.87900   -3.65810   -0.31380    1.53000  # c,c,c1,hc
dihedral_coeff	 4 mbt  -17.78700   -7.18770    0.00000    1.53000  # c,c1,c,c1
dihedral_coeff	 5 mbt  -14.87900   -3.65810   -0.31380    1.53000  # c,c1,c,hc
dihedral_coeff	 6 mbt    0.00000    0.00000    0.00000    1.53000  # c1,c,c,cl
dihedral_coeff	 7 mbt  -14.87900   -3.65810   -0.31380    1.53000  # c1,c,c,hc
dihedral_coeff	 8 mbt    0.00000    0.00000    0.00000    1.53000  # c1,c,c1,cl
dihedral_coeff	 9 mbt  -14.87900   -3.65810   -0.31380    1.53000  # c1,c,c1,hc
dihedral_coeff	10 mbt    0.00000    0.00000    0.00000    1.53000  # cl,c,c,hc
dihedral_coeff	11 mbt    0.00000    0.00000    0.00000    1.53000  # cl,c1,c,hc
dihedral_coeff	12 mbt  -14.26100   -0.53220   -0.48640    1.53000  # hc,c,c,hc
dihedral_coeff	13 mbt  -14.26100   -0.53220   -0.48640    1.53000  # hc,c,c1,hc

# EndBondTorsion Coeffs

dihedral_coeff	 1 ebt   -0.07320    0.00000    0.00000   -0.07320    0.00000    0.00000    1.53000    1.53000  # c,c,c1,c
dihedral_coeff	 2 ebt    0.00000    0.00000    0.00000    0.00000    0.00000    0.00000    1.53000    1.79000  # c,c,c1,cl
dihedral_coeff	 3 ebt    0.24860    0.24220   -0.09250    0.08140    0.05910    0.22190    1.53000    1.10100  # c,c,c1,hc
dihedral_coeff	 4 ebt   -0.07320    0.00000    0.00000   -0.07320    0.00000    0.00000    1.53000    1.53000  # c,c1,c,c1
dihedral_coeff	 5 ebt    0.24860    0.24220   -0.09250    0.08140    0.05910    0.22190    1.53000    1.10100  # c,c1,c,hc
dihedral_coeff	 6 ebt    0.00000    0.00000    0.00000    0.00000    0.00000    0.00000    1.53000    1.79000  # c1,c,c,cl
dihedral_coeff	 7 ebt    0.24860    0.24220   -0.09250    0.08140    0.05910    0.22190    1.53000    1.10100  # c1,c,c,hc
dihedral_coeff	 8 ebt    0.00000    0.00000    0.00000    0.00000    0.00000    0.00000    1.53000    1.79000  # c1,c,c1,cl
dihedral_coeff	 9 ebt    0.24860    0.24220   -0.09250    0.08140    0.05910    0.22190    1.53000    1.10100  # c1,c,c1,hc
dihedral_coeff	10 ebt    0.00000    0.00000    0.00000    0.00000    0.00000    0.00000    1.79000    1.10100  # cl,c,c,hc
dihedral_coeff	11 ebt    0.00000    0.00000    0.00000    0.00000    0.00000    0.00000    1.79000    1.10100  # cl,c1,c,hc
dihedral_coeff	12 ebt    0.21300    0.31200    0.07770    0.21300    0.31200    0.07770    1.10100    1.10100  # hc,c,c,hc
dihedral_coeff	13 ebt    0.21300    0.31200    0.07770    0.21300    0.31200    0.07770    1.10100    1.10100  # hc,c,c1,hc

# AngleTorsion Coeffs

dihedral_coeff	 1 at    0.38860   -0.31390    0.13890    0.38860   -0.31390    0.13890  112.67000  112.67000  # c,c,c1,c
dihedral_coeff	 2 at    0.00000    0.00000    0.00000    0.00000    0.00000    0.00000  112.67000  107.00000  # c,c,c1,cl
dihedral_coeff	 3 at   -0.24540    0.00000   -0.11360    0.31130    0.45160   -0.19880  112.67000  110.77000  # c,c,c1,hc
dihedral_coeff	 4 at    0.38860   -0.31390    0.13890    0.38860   -0.31390    0.13890  112.67000  112.67000  # c,c1,c,c1
dihedral_coeff	 5 at   -0.24540    0.00000   -0.11360    0.31130    0.45160   -0.19880  112.67000  110.77000  # c,c1,c,hc
dihedral_coeff	 6 at    0.00000    0.00000    0.00000    0.00000    0.00000    0.00000  112.67000  107.00000  # c1,c,c,cl
dihedral_coeff	 7 at   -0.24540    0.00000   -0.11360    0.31130    0.45160   -0.19880  112.67000  110.77000  # c1,c,c,hc
dihedral_coeff	 8 at    0.00000    0.00000    0.00000    0.00000    0.00000    0.00000  112.67000  107.00000  # c1,c,c1,cl
dihedral_coeff	 9 at   -0.24540    0.00000   -0.11360    0.31130    0.45160   -0.19880  112.67000  110.77000  # c1,c,c1,hc
dihedral_coeff	10 at    0.00000    0.00000    0.00000    0.00000    0.00000    0.00000  107.00000  110.77000  # cl,c,c,hc
dihedral_coeff	11 at    0.00000    0.00000    0.00000    0.00000    0.00000    0.00000  107.00000  110.77000  # cl,c1,c,hc
dihedral_coeff	12 at   -0.80850    0.55690   -0.24660   -0.80850    0.55690   -0.24660  110.77000  110.77000  # hc,c,c,hc
dihedral_coeff	13 at   -0.80850    0.55690   -0.24660   -0.80850    0.55690   -0.24660  110.77000  110.77000  # hc,c,c1,hc

# AngleAngleTorsion Coeffs

dihedral_coeff	 1 aat  -22.04500  112.67000  112.67000  # c,c,c1,c
dihedral_coeff	 2 aat    0.00000  112.67000  107.00000  # c,c,c1,cl
dihedral_coeff	 3 aat  -16.16400  112.67000  110.77000  # c,c,c1,hc
dihedral_coeff	 4 aat  -22.04500  112.67000  112.67000  # c,c1,c,c1
dihedral_coeff	 5 aat  -16.16400  112.67000  110.77000  # c,c1,c,hc
dihedral_coeff	 6 aat    0.00000  112.67000  107.00000  # c1,c,c,cl
dihedral_coeff	 7 aat  -16.16400  112.67000  110.77000  # c1,c,c,hc
dihedral_coeff	 8 aat    0.00000  112.67000  107.00000  # c1,c,c1,cl
dihedral_coeff	 9 aat  -16.16400  112.67000  110.77000  # c1,c,c1,hc
dihedral_coeff	10 aat    0.00000  107.00000  110.77000  # cl,c,c,hc
dihedral_coeff	11 aat    0.00000  107.00000  110.77000  # cl,c1,c,hc
dihedral_coeff	12 aat  -12.56400  110.77000  110.77000  # hc,c,c,hc
dihedral_coeff	13 aat  -12.56400  110.77000  110.77000  # hc,c,c1,hc

# BondBond13 Coeffs

dihedral_coeff	 1 bb13    0.00000    1.53000    1.53000  # c,c,c1,c
dihedral_coeff	 2 bb13    0.00000    1.53000    1.79000  # c,c,c1,cl
dihedral_coeff	 3 bb13    0.00000    1.53000    1.10100  # c,c,c1,hc
dihedral_coeff	 4 bb13    0.00000    1.53000    1.53000  # c,c1,c,c1
dihedral_coeff	 5 bb13    0.00000    1.53000    1.10100  # c,c1,c,hc
dihedral_coeff	 6 bb13    0.00000    1.53000    1.79000  # c1,c,c,cl
dihedral_coeff	 7 bb13    0.00000    1.53000    1.10100  # c1,c,c,hc
dihedral_coeff	 8 bb13    0.00000    1.53000    1.79000  # c1,c,c1,cl
dihedral_coeff	 9 bb13    0.00000    1.53000    1.10100  # c1,c,c1,hc
dihedral_coeff	10 bb13    0.00000    1.79000    1.10100  # cl,c,c,hc
dihedral_coeff	11 bb13    0.00000    1.79000    1.10100  # cl,c1,c,hc
dihedral_coeff	12 bb13    0.00000    1.10100    1.10100  # hc,c,c,hc
dihedral_coeff	13 bb13    0.00000    1.10100    1.10100  # hc,c,c1,hc

# Improper Coeffs

improper_coeff	 1    0.00000    0.00000  # c,c,cl,hc
improper_coeff	 2    0.00000    0.00000  # c,c,hc,c1
improper_coeff	 3    0.00000    0.00000  # c,c,hc,cl
improper_coeff	 4    0.00000    0.00000  # c,c,hc,hc
improper_coeff	 5    0.00000    0.00000  # c,c1,c1,hc
improper_coeff	 6    0.00000    0.00000  # c,c1,hc,hc
improper_coeff	 7    0.00000    0.00000  # c,cl,hc,hc
improper_coeff	 8    0.00000    0.00000  # c,hc,hc,hc
improper_coeff	 9    0.00000    0.00000  # c1,c,c,cl
improper_coeff	10    0.00000    0.00000  # c1,c,c,hc
improper_coeff	11    0.00000    0.00000  # c1,c,cl,hc

# AngleAngle Coeffs

improper_coeff	 1 aa    0.00000    0.00000    0.00000  107.00000  110.77000  107.99680  # c,c,cl,hc
improper_coeff	 2 aa    0.11840   -1.31990   -1.31990  110.77000  112.67000  110.77000  # c,c,hc,c1
improper_coeff	 3 aa    0.00000    0.00000    0.00000  110.77000  107.00000  107.99680  # c,c,hc,cl
improper_coeff	 4 aa    0.27380   -0.48250    0.27380  110.77000  110.77000  107.66000  # c,c,hc,hc
improper_coeff	 5 aa   -1.31990   -1.31990    0.11840  112.67000  110.77000  110.77000  # c,c1,c1,hc
improper_coeff	 6 aa    0.27380   -0.48250    0.27380  110.77000  110.77000  107.66000  # c,c1,hc,hc
improper_coeff	 7 aa    0.00000    0.00000    0.00000  107.99680  107.99680  107.66000  # c,cl,hc,hc
improper_coeff	 8 aa   -0.31570   -0.31570   -0.31570  107.66000  107.66000  107.66000  # c,hc,hc,hc
improper_coeff	 9 aa    0.00000    0.00000    0.00000  112.67000  107.00000  107.00000  # c1,c,c,cl
improper_coeff	10 aa   -1.31990   -1.31990    0.11840  112.67000  110.77000  110.77000  # c1,c,c,hc
improper_coeff	11 aa    0.00000    0.00000    0.00000  107.00000  110.77000  107.99680  # c1,c,cl,hc


# --- Thermo: stress tensor (pxx/pyy/pzz) required for elastic constant extraction ---
thermo_style custom step time temp press pxx pyy pzz lx ly lz vol density etotal
thermo_modify flush yes
thermo 100

# --- Trajectory (disabled by default — log is sufficient for elastic analysis) ---
# Dump disabled (thermo-only run)

# Velocities read from data file
fix shake_fix all shake 1e-4 1000 0 m 1.008
Finding SHAKE clusters ...
     590 = # of size 2 clusters
     600 = # of size 3 clusters
      10 = # of size 4 clusters
       0 = # of frozen angles
  find clusters CPU = 0.000 seconds

# ── Phase 1: NVT pre-equilibration ─────────────────────────────────────────
# Brief re-thermalisation at T_TARGET before applying strain.
timestep 1
fix nvt_eq all nvt temp 300 300 100
run 200000

CITE-CITE-CITE-CITE-CITE-CITE-CITE-CITE-CITE-CITE-CITE-CITE-CITE

Your simulation uses code contributions which should be cited:

- GPU package (short-range, long-range and three-body potentials): doi:10.1016/j.cpc.2010.12.021, doi:10.1016/j.cpc.2011.10.012, doi:10.1016/j.cpc.2013.08.002, doi:10.1016/j.commatsci.2014.10.068, doi:10.1016/j.cpc.2016.10.020, doi:10.3233/APC200086

@Article{Brown11,
 author = {W. M. Brown and P. Wang and S. J. Plimpton and A. N. Tharrington},
 title = {Implementing Molecular Dynamics on Hybrid High Performance Computers---Short Range Forces},
 journal = {Comput.\ Phys.\ Commun.},
 year =    2011,
 volume =  182,
 pages =   {898--911},
 doi =     {10.1016/j.cpc.2010.12.021}
}

@Article{Brown12,
 author = {W. M. Brown and A. Kohlmeyer and S. J. Plimpton and A. N. Tharrington},
 title = {Implementing Molecular Dynamics on Hybrid High Performance Computers - Particle-Particle Particle-Mesh},
 journal = {Comput.\ Phys.\ Commun.},
 year =    2012,
 volume =  183,
 doi =     {10.1016/j.cpc.2011.10.012},
 pages =   {449--459}
}

@Article{Brown13,
 author = {W. M. Brown and Y. Masako},
 title = {Implementing Molecular Dynamics on Hybrid High Performance Computers---Three-Body Potentials},
 journal = {Comput.\ Phys.\ Commun.},
 year =    2013,
 volume =  184,
 pages =   {2785--2793},
 doi =     {10.1016/j.cpc.2013.08.002},
}

@Article{Trung15,
 author = {T. D. Nguyen and S. J. Plimpton},
 title = {Accelerating Dissipative Particle Dynamics Simulations for Soft Matter Systems},
 journal = {Comput.\ Mater.\ Sci.},
 year =    2015,
 doi =     {10.1016/j.commatsci.2014.10.068},
 volume =  100,
 pages =   {173--180}
}

@Article{Trung17,
 author = {T. D. Nguyen},
 title = {{GPU}-Accelerated {T}ersoff Potentials for Massively Parallel
    Molecular Dynamics Simulations},
 journal = {Comput.\ Phys.\ Commun.},
 year =    2017,
 doi =     {10.1016/j.cpc.2016.10.020},
 volume =  212,
 pages =   {113--122}
}

@inproceedings{Nikolskiy19,
 author = {V. Nikolskiy and V. Stegailov},
 title = {{GPU} Acceleration of Four-Site Water Models in {LAMMPS}},
 booktitle = {Proceedings of the International Conference on Parallel
    Computing (ParCo 2019), Prague, Czech Republic},
 doi =     {10.3233/APC200086},
 year =    2019
}

CITE-CITE-CITE-CITE-CITE-CITE-CITE-CITE-CITE-CITE-CITE-CITE-CITE

PPPM initialization ...
  using 12-bit tables for long-range coulomb
  G vector (1/distance) = 0.29541673
  grid = 24 24 24
  stencil order = 5
  estimated absolute RMS force accuracy = 0.0003765432
  estimated relative force accuracy = 1.1339487e-06
  using double precision KISS FFT
  3d grid and FFT values/proc = 11191 3456
Generated 6 of 6 mixed pair_coeff terms from sixthpower/sixthpower mixing rule
Neighbor list info ...
  update: every = 1 steps, delay = 0 steps, check = yes
  max neighbors/atom: 4000, page size: 100000
  master list distance cutoff = 11.5
  ghost atom cutoff = 11.5
  binsize = 5.75, bins = 7 7 7
  1 neighbor lists, perpetual/occasional/extra = 1 0 0
  (1) pair lj/class2/coul/long/gpu, perpetual
      attributes: full, newton on
      pair build: full/bin
      stencil: full/bin/3d
      bin: standard
Per MPI rank memory allocation (min/avg/max) = 18.77 | 18.78 | 18.78 Mbytes
   Step          Time           Temp          Press           Pxx            Pyy            Pzz             Lx             Ly             Lz           Volume        Density         TotEng    
         0   0              359.56441     -1306.3055      9.2174429     -1803.2868     -2124.8471      35.87059       35.87059       35.87059       46154.66       1.3498723     -1074.3893    
       100   100            297.38484      203.30568      759.62432      378.89182     -528.59911      35.87059       35.87059       35.87059       46154.66       1.3498723     -1577.6588    
       200   200            295.5336       243.09373     -69.893216      2007.871      -1208.6966      35.87059       35.87059       35.87059       46154.66       1.3498723     -1650.0098    
       300   300            288.70703     -491.64597     -313.798       -774.4399      -386.69999      35.87059       35.87059       35.87059       46154.66       1.3498723     -1711.6389    
       400   400            300.05939      254.11147      1761.0572     -923.31236     -75.410472      35.87059       35.87059       35.87059       46154.66       1.3498723     -1644.5491    
       500   500            299.24058     -191.24794     -1382.7465      28.973905      780.02874      35.87059       35.87059       35.87059       46154.66       1.3498723     -1592.4346    
       600   600            304.8703      -1062.4684     -1202.6051     -867.16218     -1117.638       35.87059       35.87059       35.87059       46154.66       1.3498723     -1581.4795    
       700   700            308.46025     -721.56421     -649.05745      1559.5876     -3075.2228      35.87059       35.87059       35.87059       46154.66       1.3498723     -1557.6049    
       800   800            306.72825     -1019.4381     -775.5716      -286.5725      -1996.1702      35.87059       35.87059       35.87059       46154.66       1.3498723     -1551.3745    
       900   900            294.04243     -995.81855     -632.24627     -553.69542     -1801.514       35.87059       35.87059       35.87059       46154.66       1.3498723     -1622.0946    
      1000   1000           296.98904      52.434752     -869.60426      1577.9335     -551.02494      35.87059       35.87059       35.87059       46154.66       1.3498723     -1665.4349    
      1100   1100           301.91285     -1160.8275     -949.44762     -811.64888     -1721.3859      35.87059       35.87059       35.87059       46154.66       1.3498723     -1649.232     
      1200   1200           299.29024     -268.43073     -1167.378      -32.83875       394.92454      35.87059       35.87059       35.87059       46154.66       1.3498723     -1548.9225    
      1300   1300           304.35606     -452.34943     -1581.8096     -34.552304      259.31356      35.87059       35.87059       35.87059       46154.66       1.3498723     -1514.1657    
      1400   1400           307.33746     -510.70629     -1981.9463      18.268401      431.55906      35.87059       35.87059       35.87059       46154.66       1.3498723     -1554.796     
      1500   1500           306.45468      396.99661      433.41797      1476.4465     -718.87464      35.87059       35.87059       35.87059       46154.66       1.3498723     -1589.3146    
      1600   1600           301.76843     -710.31342     -821.01496      853.45172     -2163.377       35.87059       35.87059       35.87059       46154.66       1.3498723     -1622.7254    
      1700   1700           287.74279      721.50368      83.830559      396.44476      1684.2357      35.87059       35.87059       35.87059       46154.66       1.3498723     -1720.6555    
      1800   1800           287.88883     -497.29521     -951.53485     -364.28303     -176.06777      35.87059       35.87059       35.87059       46154.66       1.3498723     -1714.9922    
      1900   1900           299.06587     -806.13065     -735.90963     -400.11103     -1282.3713      35.87059       35.87059       35.87059       46154.66       1.3498723     -1617.2995    
      2000   2000           303.17824     -84.323076     -689.60355      1004.1887     -567.55438      35.87059       35.87059       35.87059       46154.66       1.3498723     -1589.5756    
      2100   2100           303.60274      815.88739      751.85101      970.2774       725.53377      35.87059       35.87059       35.87059       46154.66       1.3498723     -1579.632     
      2200   2200           301.21819     -603.37789     -216.34554     -1343.9145     -249.87364      35.87059       35.87059       35.87059       46154.66       1.3498723     -1564.0924    
      2300   2300           298.54282      259.80352     -134.36187     -248.85978      1162.6322      35.87059       35.87059       35.87059       46154.66       1.3498723     -1553.8489    
      2400   2400           302.31        -369.12878     -616.81313      484.94255     -975.51576      35.87059       35.87059       35.87059       46154.66       1.3498723     -1544.6561    
      2500   2500           298.83376     -847.24925     -987.68069     -227.53325     -1326.5338      35.87059       35.87059       35.87059       46154.66       1.3498723     -1585.667     
      2600   2600           298.23894      171.77347      474.07315      513.10724     -471.85999      35.87059       35.87059       35.87059       46154.66       1.3498723     -1639.9686    
      2700   2700           297.80862     -160.79398     -309.57412      586.34256     -759.15037      35.87059       35.87059       35.87059       46154.66       1.3498723     -1652.8853    
      2800   2800           294.11932     -91.199293      108.11369      1842.798      -2224.5096      35.87059       35.87059       35.87059       46154.66       1.3498723     -1615.0507    
      2900   2900           298.01394      436.12185     -452.25958      1931.9054     -171.28024      35.87059       35.87059       35.87059       46154.66       1.3498723     -1525.4316    
      3000   3000           306.59124      572.45494     -42.832032      186.19755      1573.9993      35.87059       35.87059       35.87059       46154.66       1.3498723     -1519.6427    
      3100   3100           299.31233      611.14809      136.45165      411.20761      1285.785       35.87059       35.87059       35.87059       46154.66       1.3498723     -1585.7203    
      3200   3200           298.35589      459.11179      416.38095     -109.29502      1070.2494      35.87059       35.87059       35.87059       46154.66       1.3498723     -1633.7742    
      3300   3300           303.92291      75.650296     -138.96347      148.08262      217.83173      35.87059       35.87059       35.87059       46154.66       1.3498723     -1627.8756    
      3400   3400           299.82775     -55.919189      102.23307     -526.10279      256.11216      35.87059       35.87059       35.87059       46154.66       1.3498723     -1624.3955    
      3500   3500           305.05008      68.045068     -312.81181      978.69891     -461.75189      35.87059       35.87059       35.87059       46154.66       1.3498723     -1604.4405    
      3600   3600           295.61616      335.87862     -91.500252      540.36673      558.76939      35.87059       35.87059       35.87059       46154.66       1.3498723     -1574.0065    
      3700   3700           310.15676     -1148.7091     -401.41012     -1603.3523     -1441.3647      35.87059       35.87059       35.87059       46154.66       1.3498723     -1486.4169    
      3800   3800           309.24593      107.4293      -113.99196     -137.58995      573.86983      35.87059       35.87059       35.87059       46154.66       1.3498723     -1442.6369    
      3900   3900           303.97949     -1192.3449      229.12037     -1620.8848     -2185.2703      35.87059       35.87059       35.87059       46154.66       1.3498723     -1516.989     
      4000   4000           297.40453     -422.6186      -1262.2144      240.3636      -246.00498      35.87059       35.87059       35.87059       46154.66       1.3498723     -1571.8672    
      4100   4100           291.56682     -733.80678     -231.71267     -933.66673     -1036.0409      35.87059       35.87059       35.87059       46154.66       1.3498723     -1601.3091    
      4200   4200           297.22135     -226.46423     -1031.4855      134.48581      217.60696      35.87059       35.87059       35.87059       46154.66       1.3498723     -1621.9902    
      4300   4300           298.86878     -401.57264     -728.30433     -243.58591     -232.82768      35.87059       35.87059       35.87059       46154.66       1.3498723     -1605.9204    
      4400   4400           299.92746      204.35565     -1792.8192      1471.4162      934.46998      35.87059       35.87059       35.87059       46154.66       1.3498723     -1526.9571    
      4500   4500           303.68222     -1384.7912     -919.22347     -1266.6393     -1968.5108      35.87059       35.87059       35.87059       46154.66       1.3498723     -1502.1314    
      4600   4600           299.06313     -763.76468      37.508862     -114.75078     -2214.0521      35.87059       35.87059       35.87059       46154.66       1.3498723     -1568.5674    
      4700   4700           301.66383     -124.00985      831.47175     -390.89        -812.6113       35.87059       35.87059       35.87059       46154.66       1.3498723     -1639.5919    
      4800   4800           299.7159       1420.1661      2814.239       1626.8785     -180.6193       35.87059       35.87059       35.87059       46154.66       1.3498723     -1632.4049    
      4900   4900           298.84831      487.49638     -527.06494      1470.362       519.19211      35.87059       35.87059       35.87059       46154.66       1.3498723     -1585.0841    
      5000   5000           298.55418     -162.37139     -827.12308      385.73536     -45.726453      35.87059       35.87059       35.87059       46154.66       1.3498723     -1532.0793    
      5100   5100           304.57144      237.84795      190.57625     -49.4557        572.42331      35.87059       35.87059       35.87059       46154.66       1.3498723     -1502.1697    
      5200   5200           302.00012     -534.00584     -900.56958      698.9278      -1400.3757      35.87059       35.87059       35.87059       46154.66       1.3498723     -1542.9405    
      5300   5300           288.31699     -258.77984     -1329.8962      266.83294      286.72372      35.87059       35.87059       35.87059       46154.66       1.3498723     -1681.7566    
      5400   5400           292.1773      -128.34853     -1211.7046     -473.43857      1300.0975      35.87059       35.87059       35.87059       46154.66       1.3498723     -1651.9443    
      5500   5500           298.91476      436.63733      1904.1669      489.8802      -1084.1351      35.87059       35.87059       35.87059       46154.66       1.3498723     -1556.951     
      5600   5600           301.18701      292.21069      1408.4223      329.38882     -861.179        35.87059       35.87059       35.87059       46154.66       1.3498723     -1515.1275    
      5700   5700           305.35626      185.36126      92.313501     -189.1836       652.95388      35.87059       35.87059       35.87059       46154.66       1.3498723     -1539.8205    
      5800   5800           297.98978     -579.11466      127.61654     -2166.66        301.69952      35.87059       35.87059       35.87059       46154.66       1.3498723     -1616.2449    
      5900   5900           291.84669      1005.8512      202.42242      1040.3305      1774.8006      35.87059       35.87059       35.87059       46154.66       1.3498723     -1629.4059    
      6000   6000           306.18639      49.959494     -611.9048       1361.1594     -599.37611      35.87059       35.87059       35.87059       46154.66       1.3498723     -1576.6138    
      6100   6100           310.75379     -209.60386     -19.120905     -108.08583     -501.60484      35.87059       35.87059       35.87059       46154.66       1.3498723     -1519.779     
      6200   6200           309.86978      536.97499      966.42942      265.02846      379.46709      35.87059       35.87059       35.87059       46154.66       1.3498723     -1447.6338    
      6300   6300           315.51943     -157.69022     -632.17755      1464.0203     -1304.9134      35.87059       35.87059       35.87059       46154.66       1.3498723     -1450.4977    
      6400   6400           301.88439     -43.426784     -1033.7599      986.59012     -83.110594      35.87059       35.87059       35.87059       46154.66       1.3498723     -1560.5383    
      6500   6500           298.23001     -649.78154     -137.66564     -1573.1242     -238.55481      35.87059       35.87059       35.87059       46154.66       1.3498723     -1626.7231    
      6600   6600           291.67539      1292.0325      1737.6932      1536.0285      602.37587      35.87059       35.87059       35.87059       46154.66       1.3498723     -1646.2409    
      6700   6700           301.48887     -208.1263      -485.37965      801.67644     -940.67569      35.87059       35.87059       35.87059       46154.66       1.3498723     -1572.0628    
      6800   6800           308.10336      1031.5918      710.8856       394.11989      1989.7698      35.87059       35.87059       35.87059       46154.66       1.3498723     -1526.9549    
      6900   6900           300.88347      81.486628     -89.766044      18.183465      316.04246      35.87059       35.87059       35.87059       46154.66       1.3498723     -1524.3327    
      7000   7000           296.62734      532.02328      628.38127      1712.3618     -744.6732       35.87059       35.87059       35.87059       46154.66       1.3498723     -1537.8789    
      7100   7100           300.91925      218.52685      541.95445     -458.60024      572.22634      35.87059       35.87059       35.87059       46154.66       1.3498723     -1570.0458    
      7200   7200           293.90145     -978.57651     -870.73419     -1196.4724     -868.52296      35.87059       35.87059       35.87059       46154.66       1.3498723     -1590.2071    
      7300   7300           295.95784     -441.38474     -178.85892     -933.89551     -211.3998       35.87059       35.87059       35.87059       46154.66       1.3498723     -1578.7142    
      7400   7400           297.24863      67.414659     -196.09912      39.904116      358.43899      35.87059       35.87059       35.87059       46154.66       1.3498723     -1560.9598    
      7500   7500           309.11971     -885.08581     -1852.2088     -1039.2627      236.21411      35.87059       35.87059       35.87059       46154.66       1.3498723     -1519.1332    
      7600   7600           302.66052      234.78486      801.09772      1041.8703     -1138.6135      35.87059       35.87059       35.87059       46154.66       1.3498723     -1499.5843    
      7700   7700           295.9355      -728.38566     -772.03749     -7.115019      -1406.0045      35.87059       35.87059       35.87059       46154.66       1.3498723     -1600.9435    
      7800   7800           296.35485     -113.13087     -38.538453     -260.34742     -40.506734      35.87059       35.87059       35.87059       46154.66       1.3498723     -1643.4552    
      7900   7900           300.3193      -104.18884     -868.72088      2111.962      -1555.8077      35.87059       35.87059       35.87059       46154.66       1.3498723     -1610.2156    
      8000   8000           302.78333     -90.651353      700.4295      -103.47155     -868.91201      35.87059       35.87059       35.87059       46154.66       1.3498723     -1550.9986    
      8100   8100           311.32559     -996.2147      -43.500762     -2750.8576     -194.28571      35.87059       35.87059       35.87059       46154.66       1.3498723     -1492.4334    
      8200   8200           300.88638      971.43648      691.41885      1564.5499      658.34064      35.87059       35.87059       35.87059       46154.66       1.3498723     -1542.4719    
      8300   8300           295.56938     -361.89882     -240.42882      679.32447     -1524.5921      35.87059       35.87059       35.87059       46154.66       1.3498723     -1644.0992    
      8400   8400           289.49355      596.96702      1469.6794     -315.60626      636.82795      35.87059       35.87059       35.87059       46154.66       1.3498723     -1626.9424    
      8500   8500           298.83733      107.48307      518.20294      274.44102     -470.19473      35.87059       35.87059       35.87059       46154.66       1.3498723     -1570.6329    
      8600   8600           301.39664     -391.76955     -1249.1716      661.08849     -587.22552      35.87059       35.87059       35.87059       46154.66       1.3498723     -1523.5401    
      8700   8700           296.9962       1087.1693      2222.5934      2067.1324     -1028.218       35.87059       35.87059       35.87059       46154.66       1.3498723     -1576.0982    
      8800   8800           295.94478     -1392.6886     -2709.8273     -1145.6993     -322.53901      35.87059       35.87059       35.87059       46154.66       1.3498723     -1677.1446    
      8900   8900           291.19446     -1144.5708     -934.43995      50.278509     -2549.551       35.87059       35.87059       35.87059       46154.66       1.3498723     -1665.7306    
      9000   9000           295.46652     -860.32553     -993.49967      48.544836     -1636.0218      35.87059       35.87059       35.87059       46154.66       1.3498723     -1595.5833    
      9100   9100           305.84395      228.68245      492.06721      309.66415     -115.68402      35.87059       35.87059       35.87059       46154.66       1.3498723     -1548.8592    
      9200   9200           296.71546     -386.70273     -456.86457     -263.86488     -439.37873      35.87059       35.87059       35.87059       46154.66       1.3498723     -1570.4267    
      9300   9300           299.30614     -338.65798     -1372.5825      1502.5873     -1145.9788      35.87059       35.87059       35.87059       46154.66       1.3498723     -1594.2066    
      9400   9400           300.30261     -46.828095     -223.92853     -411.07874      494.52299      35.87059       35.87059       35.87059       46154.66       1.3498723     -1633.2978    
      9500   9500           293.47237     -200.04243      362.86655     -1237.7779      274.78402      35.87059       35.87059       35.87059       46154.66       1.3498723     -1674.0437    
      9600   9600           297.54656     -397.21088     -365.01162     -2029.4694      1202.8484      35.87059       35.87059       35.87059       46154.66       1.3498723     -1619.5792    
      9700   9700           298.45363     -303.09947      661.08749     -40.460904     -1529.925       35.87059       35.87059       35.87059       46154.66       1.3498723     -1550.4109    
      9800   9800           307.69167     -919.05326     -1254.91       -230.3338      -1271.9159      35.87059       35.87059       35.87059       46154.66       1.3498723     -1540.1199    
      9900   9900           300.88964      256.12215      160.63017      1472.6182     -864.88194      35.87059       35.87059       35.87059       46154.66       1.3498723     -1569.8162    
     10000   10000          294.84541     -1189.2496     -381.32604     -1151.5844     -2034.8385      35.87059       35.87059       35.87059       46154.66       1.3498723     -1663.8556    
     10100   10100          294.69764     -674.53603     -589.34425     -415.56514     -1018.6987      35.87059       35.87059       35.87059       46154.66       1.3498723     -1702.5476    
     10200   10200          296.39856      145.77272     -223.2493      -523.67109      1184.2385      35.87059       35.87059       35.87059       46154.66       1.3498723     -1636.2246    
     10300   10300          298.64689     -573.82307     -1491.5503      263.76607     -493.68496      35.87059       35.87059       35.87059       46154.66       1.3498723     -1595.0442    
     10400   10400          302.63093     -670.09721      404.17112     -443.47482     -1970.9879      35.87059       35.87059       35.87059       46154.66       1.3498723     -1597.1391    
     10500   10500          294.49721     -433.81709     -256.35956     -105.21472     -939.87699      35.87059       35.87059       35.87059       46154.66       1.3498723     -1605.1986    
     10600   10600          298.86057     -1098.2137     -2118.1127     -568.27402     -608.25422      35.87059       35.87059       35.87059       46154.66       1.3498723     -1595.3856    
     10700   10700          298.51278     -385.73281     -361.25756      129.18042     -925.1213       35.87059       35.87059       35.87059       46154.66       1.3498723     -1543.366     
     10800   10800          306.71162      33.170174     -96.431089      222.59134     -26.649734      35.87059       35.87059       35.87059       46154.66       1.3498723     -1485.6376    
     10900   10900          303.81113     -470.8522      -843.43063      673.76894     -1242.8949      35.87059       35.87059       35.87059       46154.66       1.3498723     -1515.4274    
     11000   11000          294.69643     -881.73034     -840.99857     -315.20121     -1488.9912      35.87059       35.87059       35.87059       46154.66       1.3498723     -1609.6481    
     11100   11100          295.60902     -910.2805      -2138.823      -640.24496      48.226444      35.87059       35.87059       35.87059       46154.66       1.3498723     -1631.377     
     11200   11200          301.72627      581.03907      211.67138      359.99338      1171.4525      35.87059       35.87059       35.87059       46154.66       1.3498723     -1614.586     
     11300   11300          303.54679     -644.28735     -204.25181      470.98513     -2199.5954      35.87059       35.87059       35.87059       46154.66       1.3498723     -1590.8367    
     11400   11400          298.44327      639.75722      595.53607      984.5816       339.15399      35.87059       35.87059       35.87059       46154.66       1.3498723     -1588.6488    
     11500   11500          300.21533     -298.30279     -1464.8274      1834.4292     -1264.5102      35.87059       35.87059       35.87059       46154.66       1.3498723     -1554.9344    
     11600   11600          307.70686     -543.85668     -640.16216     -263.46677     -727.9411       35.87059       35.87059       35.87059       46154.66       1.3498723     -1498.0947    
     11700   11700          301.84006      67.241312      653.9206       316.25702     -768.45368      35.87059       35.87059       35.87059       46154.66       1.3498723     -1570.5972    
     11800   11800          299.73068      475.79068     -95.929606      1146.2193      377.08232      35.87059       35.87059       35.87059       46154.66       1.3498723     -1638.3478    
     11900   11900          300.1639       257.41361     -327.7621       874.20785      225.79509      35.87059       35.87059       35.87059       46154.66       1.3498723     -1645.8735    
     12000   12000          300.69457     -943.80002     -2075.6866     -286.48938     -469.22408      35.87059       35.87059       35.87059       46154.66       1.3498723     -1610.0382    
     12100   12100          302.14048     -1097.7027     -1260.4027     -605.56726     -1427.1382      35.87059       35.87059       35.87059       46154.66       1.3498723     -1515.5448    
     12200   12200          307.33714      226.49462     -103.65198      938.43023     -155.29439      35.87059       35.87059       35.87059       46154.66       1.3498723     -1500.451     
     12300   12300          301.10334     -284.06073     -354.07436     -137.97025     -360.13758      35.87059       35.87059       35.87059       46154.66       1.3498723     -1541.175     
     12400   12400          301.7436      -285.29482      178.98193     -689.33868     -345.52771      35.87059       35.87059       35.87059       46154.66       1.3498723     -1579.2343    
     12500   12500          297.61304      239.84346      541.63759     -104.91631      282.80911      35.87059       35.87059       35.87059       46154.66       1.3498723     -1611.965     
     12600   12600          300.9445       182.47884      910.72861      689.72926     -1053.0214      35.87059       35.87059       35.87059       46154.66       1.3498723     -1599.6753    
     12700   12700          299.41148      1004.9107     -554.38046      2063.1964      1505.9161      35.87059       35.87059       35.87059       46154.66       1.3498723     -1516.4701    
     12800   12800          310.02525     -283.38974     -1597.5428      1596.387      -849.01335      35.87059       35.87059       35.87059       46154.66       1.3498723     -1473.6675    
     12900   12900          303.86683      1072.7537      1299.1129      1945.8047     -26.656604      35.87059       35.87059       35.87059       46154.66       1.3498723     -1560.5968    
     13000   13000          299.6941      -188.81708     -7.2421709     -947.96659      388.75752      35.87059       35.87059       35.87059       46154.66       1.3498723     -1602.8258    
     13100   13100          298.99764     -932.40323     -1017.1751     -540.16841     -1239.8662      35.87059       35.87059       35.87059       46154.66       1.3498723     -1610.7147    
     13200   13200          300.95244      604.79487      994.47769      278.61771      541.28922      35.87059       35.87059       35.87059       46154.66       1.3498723     -1585.0335    
     13300   13300          304.90083     -374.7497      -1791.7433      747.16147     -79.66723       35.87059       35.87059       35.87059       46154.66       1.3498723     -1515.46      
     13400   13400          310.0951       182.55378     -1038.518       1311.7042      274.47513      35.87059       35.87059       35.87059       46154.66       1.3498723     -1468.2157    
     13500   13500          305.85361      1081.0935      1393.8009      1932.7234     -83.243717      35.87059       35.87059       35.87059       46154.66       1.3498723     -1540.4389    
     13600   13600          299.42188      453.44567      849.49911      938.60926     -427.77135      35.87059       35.87059       35.87059       46154.66       1.3498723     -1617.9401    
     13700   13700          304.59369     -631.89891      340.04673     -867.85795     -1367.8855      35.87059       35.87059       35.87059       46154.66       1.3498723     -1616.6859    
     13800   13800          299.08012      346.61649     -925.5739       1152.9617      812.46164      35.87059       35.87059       35.87059       46154.66       1.3498723     -1561.7711    
     13900   13900          310.46711      31.020462      284.64058      66.267325     -257.84652      35.87059       35.87059       35.87059       46154.66       1.3498723     -1505.0765    
     14000   14000          305.5808       604.53498      1294.79        835.90855     -317.09364      35.87059       35.87059       35.87059       46154.66       1.3498723     -1548.1285    
     14100   14100          301.23319     -112.27791     -821.35165     -955.98644      1440.5044      35.87059       35.87059       35.87059       46154.66       1.3498723     -1657.6711    
     14200   14200          297.09207      969.96304      529.21539      1324.0941      1056.5796      35.87059       35.87059       35.87059       46154.66       1.3498723     -1648.531     
     14300   14300          299.86875     -498.03691     -983.92984      340.55409     -850.73499      35.87059       35.87059       35.87059       46154.66       1.3498723     -1606.6635    
     14400   14400          300.03601     -487.37106     -978.79553      910.63811     -1393.9558      35.87059       35.87059       35.87059       46154.66       1.3498723     -1552.8295    
     14500   14500          305.49085      389.13529      335.88893      783.9837       47.533239      35.87059       35.87059       35.87059       46154.66       1.3498723     -1500.4659    
     14600   14600          308.94823     -321.88676     -1252.4824      26.176295      260.64585      35.87059       35.87059       35.87059       46154.66       1.3498723     -1461.1547    
     14700   14700          301.10426     -425.11372      265.19298     -375.35729     -1165.1769      35.87059       35.87059       35.87059       46154.66       1.3498723     -1532.7713    
     14800   14800          297.47648      31.869472      1284.4544     -684.35524     -504.49077      35.87059       35.87059       35.87059       46154.66       1.3498723     -1606.7337    
     14900   14900          299.55376     -570.52126     -242.081       -653.39148     -816.0913       35.87059       35.87059       35.87059       46154.66       1.3498723     -1614.962     
     15000   15000          303.08653     -496.62582     -1841.459       302.68835      48.893216      35.87059       35.87059       35.87059       46154.66       1.3498723     -1604.7067    
     15100   15100          304.44484     -339.62842      264.20112      405.24613     -1688.3325      35.87059       35.87059       35.87059       46154.66       1.3498723     -1571.2014    
     15200   15200          302.21068     -1289.1371     -1631.2824     -1029.0589     -1207.07        35.87059       35.87059       35.87059       46154.66       1.3498723     -1526.2579    
     15300   15300          300.30022      574.42963     -390.40209      452.94967      1660.7413      35.87059       35.87059       35.87059       46154.66       1.3498723     -1557.6093    
     15400   15400          294.91926     -1063.8008     -1853.8722     -80.096663     -1257.4334      35.87059       35.87059       35.87059       46154.66       1.3498723     -1635.4007    
     15500   15500          293.00659     -737.72372     -43.878555     -860.92419     -1308.3684      35.87059       35.87059       35.87059       46154.66       1.3498723     -1663.5359    
     15600   15600          297.34087      1127.8832      1266.1722      1264.494       852.98342      35.87059       35.87059       35.87059       46154.66       1.3498723     -1589.0642    
     15700   15700          300.95438     -535.79293     -664.19486     -223.12229     -720.06164      35.87059       35.87059       35.87059       46154.66       1.3498723     -1517.1467    
     15800   15800          303.41951     -704.90884     -1205.8806     -41.489421     -867.35653      35.87059       35.87059       35.87059       46154.66       1.3498723     -1540.0211    
     15900   15900          296.47573     -1042.7567     -843.19319     -1654.5898     -630.48706      35.87059       35.87059       35.87059       46154.66       1.3498723     -1603.9501    
     16000   16000          298.86799     -846.75516     -2704.6733      708.9477      -544.5399       35.87059       35.87059       35.87059       46154.66       1.3498723     -1644.167     
     16100   16100          298.66102      450.73581      86.252306      1001.7734      264.18176      35.87059       35.87059       35.87059       46154.66       1.3498723     -1617.8261    
     16200   16200          304.9378      -208.43475     -520.32461      216.87172     -321.85136      35.87059       35.87059       35.87059       46154.66       1.3498723     -1503.7731    
     16300   16300          305.18502      402.26637      337.96155      394.39014      474.44742      35.87059       35.87059       35.87059       46154.66       1.3498723     -1493.1106    
     16400   16400          303.75221     -1265.6529     -573.20025     -795.49451     -2428.2639      35.87059       35.87059       35.87059       46154.66       1.3498723     -1548.854     
     16500   16500          299.27344      746.05744     -916.45768      2067.3164      1087.3136      35.87059       35.87059       35.87059       46154.66       1.3498723     -1579.8258    
     16600   16600          300.0219       189.6243       937.54878      298.06849     -666.74437      35.87059       35.87059       35.87059       46154.66       1.3498723     -1585.2475    
     16700   16700          295.43505     -15.477914     -181.84728     -775.75627      911.16982      35.87059       35.87059       35.87059       46154.66       1.3498723     -1620.1672    
     16800   16800          292.98558     -479.08679      184.57529     -495.91641     -1125.9192      35.87059       35.87059       35.87059       46154.66       1.3498723     -1712.8134    
     16900   16900          291.1595      -697.39726     -2465.7594      202.96845      170.59919      35.87059       35.87059       35.87059       46154.66       1.3498723     -1712.8072    
     17000   17000          298.94874     -136.27153      732.11562     -226.79016     -914.14004      35.87059       35.87059       35.87059       46154.66       1.3498723     -1615.8508    
     17100   17100          300.25669     -552.87971     -664.11945     -28.558699     -965.96097      35.87059       35.87059       35.87059       46154.66       1.3498723     -1577.8462    
     17200   17200          296.0467      -1009.662      -1514.3254     -861.88939     -652.77123      35.87059       35.87059       35.87059       46154.66       1.3498723     -1562.4304    
     17300   17300          299.36917      111.43056     -687.21331     -1.2810902      1022.7861      35.87059       35.87059       35.87059       46154.66       1.3498723     -1536.1434    
     17400   17400          302.94201     -236.53099      373.52015      346.33003     -1429.4431      35.87059       35.87059       35.87059       46154.66       1.3498723     -1496.7661    
     17500   17500          301.43169     -1290.812      -573.82431     -1123.1349     -2175.4767      35.87059       35.87059       35.87059       46154.66       1.3498723     -1547.1512    
     17600   17600          296.52124     -294.27153     -509.40248      114.42062     -487.83274      35.87059       35.87059       35.87059       46154.66       1.3498723     -1624.2193    
     17700   17700          293.84562     -434.40757      888.26208     -1060.4812     -1131.0036      35.87059       35.87059       35.87059       46154.66       1.3498723     -1623.0896    
     17800   17800          300.65943     -109.07267     -806.22057      647.52266     -168.52011      35.87059       35.87059       35.87059       46154.66       1.3498723     -1575.538     
     17900   17900          307.4011       743.80958      1203.305       360.08725      668.03647      35.87059       35.87059       35.87059       46154.66       1.3498723     -1477.6382    
     18000   18000          307.29598     -627.47507     -1326.7361     -391.61085     -164.07823      35.87059       35.87059       35.87059       46154.66       1.3498723     -1460.6726    
     18100   18100          302.05564     -397.44188     -1297.3096      1023.9867     -919.00264      35.87059       35.87059       35.87059       46154.66       1.3498723     -1556.074     
     18200   18200          299.34544     -915.05649     -280.14673     -631.00174     -1834.021       35.87059       35.87059       35.87059       46154.66       1.3498723     -1581.2496    
     18300   18300          298.30138     -173.66618     -420.39343     -245.20698      144.60186      35.87059       35.87059       35.87059       46154.66       1.3498723     -1576.7011    
     18400   18400          302.37223     -116.68367     -1737.8434      1018.6818      369.11057      35.87059       35.87059       35.87059       46154.66       1.3498723     -1528.008     
     18500   18500          299.63522     -351.48858     -251.09623     -432.2212      -371.14832      35.87059       35.87059       35.87059       46154.66       1.3498723     -1539.1534    
     18600   18600          296.52381      96.48161      -374.36332      843.35287     -179.54472      35.87059       35.87059       35.87059       46154.66       1.3498723     -1620.0588    
     18700   18700          297.66399      172.59984      189.0402       980.59461     -651.83529      35.87059       35.87059       35.87059       46154.66       1.3498723     -1663.3407    
     18800   18800          298.04443     -400.24604     -508.73136      50.172517     -742.17927      35.87059       35.87059       35.87059       46154.66       1.3498723     -1637.7708    
     18900   18900          304.30424     -20.709374      89.631794      1272.0436     -1423.8035      35.87059       35.87059       35.87059       46154.66       1.3498723     -1606.977     
     19000   19000          300.09562     -840.49493     -1987.5133     -478.31757     -55.653954      35.87059       35.87059       35.87059       46154.66       1.3498723     -1596.4112    
     19100   19100          303.7152       19.397582     -737.66175      678.29326      117.56124      35.87059       35.87059       35.87059       46154.66       1.3498723     -1575.6564    
     19200   19200          301.06976      722.38397      909.78176      1340.8666     -83.496441      35.87059       35.87059       35.87059       46154.66       1.3498723     -1569.235     
     19300   19300          301.14614     -904.54975     -987.95586     -155.81105     -1569.8823      35.87059       35.87059       35.87059       46154.66       1.3498723     -1550.5677    
     19400   19400          298.94135     -321.4421      -639.97854      744.69807     -1069.0458      35.87059       35.87059       35.87059       46154.66       1.3498723     -1577.0963    
     19500   19500          298.21459     -245.48993     -1272.2449      56.971126      478.80402      35.87059       35.87059       35.87059       46154.66       1.3498723     -1642.0614    
     19600   19600          301.20631     -413.85637     -761.08244     -367.71946     -112.76722      35.87059       35.87059       35.87059       46154.66       1.3498723     -1665.892     
     19700   19700          305.80406      152.56014      940.65857     -416.08071     -66.897435      35.87059       35.87059       35.87059       46154.66       1.3498723     -1568.8268    
     19800   19800          308.50411     -112.04805     -378.69347      209.65333     -167.104        35.87059       35.87059       35.87059       46154.66       1.3498723     -1520.8406    
     19900   19900          302.21714      357.12068      1429.9956      57.081243     -415.71483      35.87059       35.87059       35.87059       46154.66       1.3498723     -1552.1613    
     20000   20000          297.17937     -394.1619       303.58273      126.88896     -1612.9574      35.87059       35.87059       35.87059       46154.66       1.3498723     -1607.2981    
     20100   20100          298.494        185.68793     -763.8448      -225.63639      1546.545       35.87059       35.87059       35.87059       46154.66       1.3498723     -1635.1141    
     20200   20200          297.40402      536.10723      357.59479      466.6719       784.055        35.87059       35.87059       35.87059       46154.66       1.3498723     -1612.7353    
     20300   20300          300.77625     -766.56022     -272.76672     -473.43048     -1553.4835      35.87059       35.87059       35.87059       46154.66       1.3498723     -1513.8167    
     20400   20400          303.81112      467.81543      916.85063      150.14379      336.45186      35.87059       35.87059       35.87059       46154.66       1.3498723     -1502.1124    
     20500   20500          296.05547     -1486.1502     -2530.7221     -535.91816     -1391.8103      35.87059       35.87059       35.87059       46154.66       1.3498723     -1587.7437    
     20600   20600          293.63071     -358.32917     -1058.0082     -241.04337      224.06405      35.87059       35.87059       35.87059       46154.66       1.3498723     -1627.5501    
     20700   20700          295.8494       286.04243     -704.81402      773.75817      789.18314      35.87059       35.87059       35.87059       46154.66       1.3498723     -1615.1035    
     20800   20800          300.41082     -162.72673      32.584569     -601.8736       81.108842      35.87059       35.87059       35.87059       46154.66       1.3498723     -1568.4992    
     20900   20900          307.83543     -1010.8138     -1229.416      -282.22965     -1520.7957      35.87059       35.87059       35.87059       46154.66       1.3498723     -1484.2124    
     21000   21000          306.99629     -1199.4555     -1513.1985     -442.26463     -1642.9034      35.87059       35.87059       35.87059       46154.66       1.3498723     -1416.3698    
     21100   21100          299.44975     -766.77902     -1615.1995     -130.78437     -554.35318      35.87059       35.87059       35.87059       46154.66       1.3498723     -1531.5037    
     21200   21200          304.33463      83.020968      1393.1507     -285.50261     -858.58514      35.87059       35.87059       35.87059       46154.66       1.3498723     -1583.8139    
     21300   21300          296.35477     -20.010522     -185.15872      534.94684     -409.81969      35.87059       35.87059       35.87059       46154.66       1.3498723     -1603.31      
     21400   21400          298.83765     -611.30453     -832.98282     -644.4966      -356.43417      35.87059       35.87059       35.87059       46154.66       1.3498723     -1617.9622    
     21500   21500          303.55577      6.2211225     -392.3202       1663.0551     -1252.0715      35.87059       35.87059       35.87059       46154.66       1.3498723     -1574.0755    
     21600   21600          304.7199      -626.94795      221.54678     -191.51874     -1910.8719      35.87059       35.87059       35.87059       46154.66       1.3498723     -1500.2906    
     21700   21700          306.76651      462.73975     -210.88258      1526.953       72.148809      35.87059       35.87059       35.87059       46154.66       1.3498723     -1510.1877    
     21800   21800          298.36148     -1150.9148     -194.2902      -2225.1864     -1033.2678      35.87059       35.87059       35.87059       46154.66       1.3498723     -1593.0628    
     21900   21900          302.56475      627.64001      505.08771      2097.7941     -719.96176      35.87059       35.87059       35.87059       46154.66       1.3498723     -1615.4657    
     22000   22000          306.194       -420.9038      -618.4663       545.65393     -1189.899       35.87059       35.87059       35.87059       46154.66       1.3498723     -1603.2022    
     22100   22100          302.55988     -147.77869     -210.73927     -918.49655      685.89974      35.87059       35.87059       35.87059       46154.66       1.3498723     -1578.4663    
     22200   22200          300.2423      -837.81064     -1166.8732     -357.48008     -989.07866      35.87059       35.87059       35.87059       46154.66       1.3498723     -1560.607     
     22300   22300          299.71974      370.99461      1685.0761      876.28051     -1448.3728      35.87059       35.87059       35.87059       46154.66       1.3498723     -1525.5295    
     22400   22400          307.22213     -106.84906      380.80374     -955.74352      254.3926       35.87059       35.87059       35.87059       46154.66       1.3498723     -1527.9789    
     22500   22500          297.13133     -636.92242     -965.25954     -135.54609     -809.96163      35.87059       35.87059       35.87059       46154.66       1.3498723     -1603.386     
     22600   22600          291.57281     -176.55855      174.705       -542.39518     -161.98548      35.87059       35.87059       35.87059       46154.66       1.3498723     -1649.8024    
     22700   22700          305.02403      192.94515     -205.48409      984.37228     -200.05275      35.87059       35.87059       35.87059       46154.66       1.3498723     -1620.8329    
     22800   22800          305.28811      813.16433      143.68597      346.88148      1948.9255      35.87059       35.87059       35.87059       46154.66       1.3498723     -1502.3086    
     22900   22900          306.44586      74.404362      97.459003      522.91087     -397.15679      35.87059       35.87059       35.87059       46154.66       1.3498723     -1486.713     
     23000   23000          294.88307      699.81673      1857.8232      807.79794     -566.17092      35.87059       35.87059       35.87059       46154.66       1.3498723     -1547.3714    
     23100   23100          299.57656     -930.3835      -883.50529     -426.89663     -1480.7486      35.87059       35.87059       35.87059       46154.66       1.3498723     -1594.3412    
     23200   23200          299.54253     -238.84524     -1064.6857      152.10877      196.04122      35.87059       35.87059       35.87059       46154.66       1.3498723     -1619.7256    
     23300   23300          295.41861     -1628.2185     -1776.155      -229.81437     -2878.6861      35.87059       35.87059       35.87059       46154.66       1.3498723     -1618.9965    
     23400   23400          295.88137     -14.532457      828.91791     -933.38714      60.871862      35.87059       35.87059       35.87059       46154.66       1.3498723     -1561.0689    
     23500   23500          305.47166     -144.55907     -638.91976      1529.0836     -1323.8411      35.87059       35.87059       35.87059       46154.66       1.3498723     -1510.3914    
     23600   23600          304.86605     -300.13723     -668.3729       541.96258     -774.00136      35.87059       35.87059       35.87059       46154.66       1.3498723     -1561.8505    
     23700   23700          297.50359      189.64182      561.63264      1111.0243     -1103.7315      35.87059       35.87059       35.87059       46154.66       1.3498723     -1633.3337    
     23800   23800          299.19807     -200.05481     -151.66698     -278.29538     -170.20207      35.87059       35.87059       35.87059       46154.66       1.3498723     -1614.7836    
     23900   23900          294.98921     -187.4085      -1311.377      -315.72684      1064.8783      35.87059       35.87059       35.87059       46154.66       1.3498723     -1581.1069    
     24000   24000          300.86997     -505.21694     -518.18109      586.97491     -1584.4446      35.87059       35.87059       35.87059       46154.66       1.3498723     -1525.4686    
     24100   24100          309.49157      553.2843       1186.2685      670.7774      -197.19296      35.87059       35.87059       35.87059       46154.66       1.3498723     -1413.2134    
     24200   24200          306.56975     -182.20888     -1363.4863      1699.3742     -882.51462      35.87059       35.87059       35.87059       46154.66       1.3498723     -1444.5015    
     24300   24300          302.14327      883.30129     -123.2349       2148.7714      624.36736      35.87059       35.87059       35.87059       46154.66       1.3498723     -1529.8928    
     24400   24400          304.15579     -1558.6284     -1071.5709     -1043.8903     -2560.4242      35.87059       35.87059       35.87059       46154.66       1.3498723     -1572.7922    
     24500   24500          296.01888     -487.75132     -559.60325     -85.722804     -817.92791      35.87059       35.87059       35.87059       46154.66       1.3498723     -1627.9257    
     24600   24600          294.37246     -650.8565      -142.79945     -684.29591     -1125.4741      35.87059       35.87059       35.87059       46154.66       1.3498723     -1641.3233    
     24700   24700          295.58978     -188.82248     -839.76         194.73581      78.556748      35.87059       35.87059       35.87059       46154.66       1.3498723     -1570.5624    
     24800   24800          303.05754     -297.10043     -550.82981     -51.863494     -288.608        35.87059       35.87059       35.87059       46154.66       1.3498723     -1495.9391    
     24900   24900          304.97639     -262.57646     -15.419136     -335.55052     -436.75971      35.87059       35.87059       35.87059       46154.66       1.3498723     -1519.1533    
     25000   25000          303.5401      -431.63122     -873.01705     -596.51977      174.64315      35.87059       35.87059       35.87059       46154.66       1.3498723     -1567.2356    
     25100   25100          306.25994     -677.96792     -687.89012      355.20255     -1701.2162      35.87059       35.87059       35.87059       46154.66       1.3498723     -1588.685     
     25200   25200          303.81301      766.63295     -49.646968      1718.4955      631.05027      35.87059       35.87059       35.87059       46154.66       1.3498723     -1597.7753    
     25300   25300          295.12364     -1219.1918     -1481.4356     -488.5185      -1687.6215      35.87059       35.87059       35.87059       46154.66       1.3498723     -1616.6136    
     25400   25400          299.87731      874.46682      440.08258      714.33625      1468.9816      35.87059       35.87059       35.87059       46154.66       1.3498723     -1627.5851    
     25500   25500          294.68195     -272.07353     -1470.1106     -82.099956      735.98993      35.87059       35.87059       35.87059       46154.66       1.3498723     -1611.7219    
     25600   25600          302.28082      536.9485      -421.91682      1173.3378      859.42452      35.87059       35.87059       35.87059       46154.66       1.3498723     -1576.4479    
     25700   25700          298.76903     -409.07549     -378.46852     -961.91222      113.15428      35.87059       35.87059       35.87059       46154.66       1.3498723     -1562.5118    
     25800   25800          308.64358     -891.68914      264.91702     -1443.4581     -1496.5263      35.87059       35.87059       35.87059       46154.66       1.3498723     -1542.4731    
     25900   25900          304.83932     -911.31365     -2919.9149      490.23249     -304.25852      35.87059       35.87059       35.87059       46154.66       1.3498723     -1592.8003    
     26000   26000          295.49409      87.123041      414.10659     -1621.8852      1469.1477      35.87059       35.87059       35.87059       46154.66       1.3498723     -1662.3016    
     26100   26100          295.78673     -398.02029     -1020.0527      478.61293     -652.62111      35.87059       35.87059       35.87059       46154.66       1.3498723     -1645.2398    
     26200   26200          311.65209     -557.04232      1025.2822     -86.978441     -2609.4307      35.87059       35.87059       35.87059       46154.66       1.3498723     -1555.9516    
     26300   26300          305.12224     -1179.9573     -144.24853     -1882.9075     -1512.7158      35.87059       35.87059       35.87059       46154.66       1.3498723     -1550.1606    
     26400   26400          296.87045      0.54907911     982.97289     -142.36509     -838.96056      35.87059       35.87059       35.87059       46154.66       1.3498723     -1571.0231    
     26500   26500          296.19243     -1611.3882     -2420.5503     -863.97818     -1549.6361      35.87059       35.87059       35.87059       46154.66       1.3498723     -1597.1303    
     26600   26600          293.60523      1025.3075      380.2629       479.7712       2215.8884      35.87059       35.87059       35.87059       46154.66       1.3498723     -1671.4772    
     26700   26700          294.01292     -1553.1932     -1492.3411     -910.71121     -2256.5273      35.87059       35.87059       35.87059       46154.66       1.3498723     -1687.6878    
     26800   26800          310.3398       511.50897      371.88794      308.94284      853.69614      35.87059       35.87059       35.87059       46154.66       1.3498723     -1571.6883    
     26900   26900          302.79519      392.24499     -627.76686      2304.2449     -499.74306      35.87059       35.87059       35.87059       46154.66       1.3498723     -1537.6364    
     27000   27000          301.31695     -1003.1269     -699.11376     -600.02291     -1710.244       35.87059       35.87059       35.87059       46154.66       1.3498723     -1548.6717    
     27100   27100          306.44464     -472.14477      0.57059059    -45.240728     -1371.7642      35.87059       35.87059       35.87059       46154.66       1.3498723     -1586.1846    
     27200   27200          292.00826     -797.03492      76.984765     -927.89598     -1540.1935      35.87059       35.87059       35.87059       46154.66       1.3498723     -1678.619     
     27300   27300          296.99914     -1092.5368     -973.066       -614.40371     -1690.1408      35.87059       35.87059       35.87059       46154.66       1.3498723     -1664.5874    
     27400   27400          291.56005      802.01231      16.498464      2291.5284      98.010093      35.87059       35.87059       35.87059       46154.66       1.3498723     -1608.6401    
     27500   27500          298.78194     -517.90056     -515.46368      84.861001     -1123.099       35.87059       35.87059       35.87059       46154.66       1.3498723     -1577.9679    
     27600   27600          296.95371     -97.622268     -399.14378      592.11146     -485.83448      35.87059       35.87059       35.87059       46154.66       1.3498723     -1572.3435    
     27700   27700          296.42918      1084.0152      1577.4322     -158.71904      1833.3324      35.87059       35.87059       35.87059       46154.66       1.3498723     -1561.3134    
     27800   27800          308.07519     -637.4895      -270.28657     -502.56413     -1139.6178      35.87059       35.87059       35.87059       46154.66       1.3498723     -1545.7432    
     27900   27900          304.92414     -951.84945     -2157.6714     -137.2388      -560.63817      35.87059       35.87059       35.87059       46154.66       1.3498723     -1564.857     
     28000   28000          295.77192     -779.26024     -546.641        262.80938     -2053.9491      35.87059       35.87059       35.87059       46154.66       1.3498723     -1633.4887    
     28100   28100          294.08503     -1080.5985     -913.58778     -570.96546     -1757.2422      35.87059       35.87059       35.87059       46154.66       1.3498723     -1654.7151    
     28200   28200          300.7116       1098.5513      1738.1347      339.97725      1217.5419      35.87059       35.87059       35.87059       46154.66       1.3498723     -1587.2417    
     28300   28300          308.3003      -202.35354     -957.52244      906.93894     -556.47712      35.87059       35.87059       35.87059       46154.66       1.3498723     -1525.4903    
     28400   28400          304.39348     -243.47024     -655.80185      1088.1552     -1162.7641      35.87059       35.87059       35.87059       46154.66       1.3498723     -1559.0831    
     28500   28500          297.36201      775.66032     -69.488026      1749.3873      647.08167      35.87059       35.87059       35.87059       46154.66       1.3498723     -1583.7727    
     28600   28600          298.51998     -605.02917     -316.49885      926.14288     -2424.7315      35.87059       35.87059       35.87059       46154.66       1.3498723     -1592.5255    
     28700   28700          297.92502     -553.91092     -609.45619      179.47267     -1231.7492      35.87059       35.87059       35.87059       46154.66       1.3498723     -1596.3977    
     28800   28800          298.45901     -460.96334      129.93377     -1135.3722     -377.45158      35.87059       35.87059       35.87059       46154.66       1.3498723     -1557.3575    
     28900   28900          310.462       -10.965733      267.33298      71.44745      -371.67763      35.87059       35.87059       35.87059       46154.66       1.3498723     -1484.8515    
     29000   29000          301.09793     -422.84674     -491.73894      223.44906     -1000.2503      35.87059       35.87059       35.87059       46154.66       1.3498723     -1535.3034    
     29100   29100          298.9759       1069.7535      299.06943      1195.7459      1714.4453      35.87059       35.87059       35.87059       46154.66       1.3498723     -1601.6075    
     29200   29200          296.19366      203.49086      409.95549      1028.0016     -827.4845       35.87059       35.87059       35.87059       46154.66       1.3498723     -1598.6077    
     29300   29300          291.91141      1088.9615      1912.6989      2009.2472     -655.06159      35.87059       35.87059       35.87059       46154.66       1.3498723     -1563.1632    
     29400   29400          297.52384     -41.109345     -1355.1962      1823.23       -591.36191      35.87059       35.87059       35.87059       46154.66       1.3498723     -1522.3292    
     29500   29500          303.40159     -604.59104     -1069.5753     -869.25728      125.05946      35.87059       35.87059       35.87059       46154.66       1.3498723     -1475.3177    
     29600   29600          306.4556       267.08602      1558.2226     -372.28921     -384.67532      35.87059       35.87059       35.87059       46154.66       1.3498723     -1488.7787    
     29700   29700          298.5653       1174.779       369.95198      2086.324       1068.0609      35.87059       35.87059       35.87059       46154.66       1.3498723     -1586.1001    
     29800   29800          299.46961      652.62342      118.78412      1387.7555      451.33067      35.87059       35.87059       35.87059       46154.66       1.3498723     -1623.1219    
     29900   29900          300.72464     -312.48291     -693.42346     -53.030238     -190.99503      35.87059       35.87059       35.87059       46154.66       1.3498723     -1631.9831    
     30000   30000          298.08117     -643.89284     -1584.5472      1081.8763     -1429.0076      35.87059       35.87059       35.87059       46154.66       1.3498723     -1577.7009    
     30100   30100          302.70552      193.82193     -667.02995      543.70646      704.78928      35.87059       35.87059       35.87059       46154.66       1.3498723     -1493.1819    
     30200   30200          305.45471      133.23418     -135.93454     -231.94786      767.58494      35.87059       35.87059       35.87059       46154.66       1.3498723     -1494.8927    
     30300   30300          300.01508     -375.21098     -1881.1569      1046.0144     -290.49045      35.87059       35.87059       35.87059       46154.66       1.3498723     -1565.7173    
     30400   30400          302.62124     -1033.7671     -920.27512     -1405.2609     -775.7654       35.87059       35.87059       35.87059       46154.66       1.3498723     -1601.1059    
     30500   30500          305.73023     -904.52321     -379.5633      -724.76529     -1609.241       35.87059       35.87059       35.87059       46154.66       1.3498723     -1591.6701    
     30600   30600          303.14906     -1054.4111     -1348.2011     -1099.6556     -715.37663      35.87059       35.87059       35.87059       46154.66       1.3498723     -1587.7793    
     30700   30700          298.73543     -555.12361     -1742.2595     -225.04698      301.93567      35.87059       35.87059       35.87059       46154.66       1.3498723     -1606.7481    
     30800   30800          299.46303     -71.246807      1018.7711     -1099.9458     -132.56576      35.87059       35.87059       35.87059       46154.66       1.3498723     -1652.7405    
     30900   30900          290.60047      16.459631     -1189.076       19.916387      1218.5385      35.87059       35.87059       35.87059       46154.66       1.3498723     -1664.4548    
[...]
    490800   490800         298.80352     -1415.9066     -2005.8909     -1192.3883     -1049.4408      36.913707      35.87059       35.87059       47496.837      1.3117273     -1484.2317    
    490900   490900         298.31292     -1320.3354     -1417.5619     -2203.2578     -340.18648      36.914065      35.87059       35.87059       47497.299      1.3117145     -1503.6918    
    491000   491000         291.94651     -350.89746     -169.46816     -233.88707     -649.33716      36.914424      35.87059       35.87059       47497.761      1.3117018     -1522.7012    
    491100   491100         298.44854     -108.12271     -83.110235     -238.17387     -3.0840225      36.914783      35.87059       35.87059       47498.222      1.3116891     -1504.1124    
    491200   491200         303.45858     -166.96969      182.31714      89.549831     -772.77604      36.915141      35.87059       35.87059       47498.684      1.3116763     -1461.6041    
    491300   491300         308.09501     -671.36156     -1877.9813     -585.26041      449.15707      36.9155        35.87059       35.87059       47499.145      1.3116636     -1459.1363    
    491400   491400         302.82211     -830.14604     -909.4257      -519.60451     -1061.4079      36.915859      35.87059       35.87059       47499.607      1.3116508     -1529.7256    
    491500   491500         297.28494     -2397.0235     -3395.3823     -2966.4943     -829.19404      36.916218      35.87059       35.87059       47500.068      1.3116381     -1581.8496    
    491600   491600         300.11148     -1250.5747     -2409.8104     -34.973162     -1306.9407      36.916576      35.87059       35.87059       47500.53       1.3116253     -1545.6521    
    491700   491700         300.89597     -493.41122     -1431.7164      570.54452     -619.06177      36.916935      35.87059       35.87059       47500.991      1.3116126     -1490.2069    
    491800   491800         301.05896     -1048.497      -1657.0315     -1803.8048      315.3453       36.917294      35.87059       35.87059       47501.453      1.3115998     -1472.3512    
    491900   491900         294.67777     -551.89214     -1985.9158      737.8179      -407.57856      36.917652      35.87059       35.87059       47501.914      1.3115871     -1478.904     
    492000   492000         300.73044     -1974.025      -3024.8735     -1310.3553     -1586.8463      36.918011      35.87059       35.87059       47502.376      1.3115743     -1482.8244    
    492100   492100         300.29386     -1438.4454     -2137.7759     -649.25781     -1528.3024      36.91837       35.87059       35.87059       47502.838      1.3115616     -1515.9618    
    492200   492200         299.99452     -2627.1489     -3437.158      -1197.856      -3246.4328      36.918729      35.87059       35.87059       47503.299      1.3115489     -1600.3985    
    492300   492300         292.88941     -1896.9765     -1698.188      -1020.3998     -2972.3416      36.919087      35.87059       35.87059       47503.761      1.3115361     -1634.8924    
    492400   492400         299.93061     -691.17865     -1083.1544     -517.77571     -472.60588      36.919446      35.87059       35.87059       47504.222      1.3115234     -1540.903     
    492500   492500         307.47921     -1551.6281     -534.39497     -2851.8348     -1268.6545      36.919805      35.87059       35.87059       47504.684      1.3115106     -1475.1247    
    492600   492600         303.74804     -1105.0578      62.722335     -1103.9893     -2273.9063      36.920163      35.87059       35.87059       47505.145      1.3114979     -1486.4333    
    492700   492700         303.77227     -155.07259      529.0249      -1532.9492      538.70657      36.920522      35.87059       35.87059       47505.607      1.3114852     -1539.6       
    492800   492800         294.95085     -1179.2387     -2360.5351     -1258.7592      81.578164      36.920881      35.87059       35.87059       47506.068      1.3114724     -1576.6636    
    492900   492900         302.36672     -260.31263     -1366.0065      943.51286     -358.44431      36.921239      35.87059       35.87059       47506.53       1.3114597     -1541.7186    
    493000   493000         305.42925     -312.52724     -232.71904      705.03262     -1409.8953      36.921598      35.87059       35.87059       47506.991      1.3114469     -1436.1756    
    493100   493100         302.15519     -189.1257      -1001.0268     -294.16277      727.81244      36.921957      35.87059       35.87059       47507.453      1.3114342     -1435.5466    
    493200   493200         299.56422     -648.24118     -831.6306      -1189.3142      76.221247      36.922316      35.87059       35.87059       47507.915      1.3114214     -1487.8474    
    493300   493300         300.48368     -985.38311     -2075.8793     -1189.7066      309.43658      36.922674      35.87059       35.87059       47508.376      1.3114087     -1506.8537    
    493400   493400         296.39786      482.90428      541.62265      585.01293      322.07726      36.923033      35.87059       35.87059       47508.838      1.311396      -1496.366     
    493500   493500         299.02679     -1288.5531     -2247.5989     -1333.1277     -284.93272      36.923392      35.87059       35.87059       47509.299      1.3113832     -1496.2293    
    493600   493600         299.76787     -1052.0091     -1151.5503     -270.34022     -1734.1367      36.92375       35.87059       35.87059       47509.761      1.3113705     -1520.8356    
    493700   493700         295.55395     -681.39414     -542.65156     -1624.4885      122.95763      36.924109      35.87059       35.87059       47510.222      1.3113577     -1561.3558    
    493800   493800         294.13916     -989.46609     -699.42328     -703.52195     -1565.453       36.924468      35.87059       35.87059       47510.684      1.311345      -1582.3417    
    493900   493900         299.0756      -1064.8971     -877.60041     -1357.8423     -959.24855      36.924827      35.87059       35.87059       47511.145      1.3113323     -1540.4255    
    494000   494000         304.60549     -1688.6446     -844.74532     -1741.2063     -2479.9821      36.925185      35.87059       35.87059       47511.607      1.3113195     -1463.417     
    494100   494100         299.66879     -1535.964      -1548.7323     -2428.396      -630.76355      36.925544      35.87059       35.87059       47512.068      1.3113068     -1436.2506    
    494200   494200         295.27001     -2267.7776     -5040.7147     -1324.4481     -438.17011      36.925903      35.87059       35.87059       47512.53       1.311294      -1485.4989    
    494300   494300         291.88487     -958.64931     -138.64937     -2853.4725      116.1739       36.926261      35.87059       35.87059       47512.992      1.3112813     -1578.6568    
    494400   494400         301.35733     -366.99932      51.841423     -895.65878     -257.18061      36.92662       35.87059       35.87059       47513.453      1.3112686     -1563.0137    
    494500   494500         296.66191     -877.22393     -1731.4971     -93.943454     -806.23122      36.926979      35.87059       35.87059       47513.915      1.3112558     -1524.9859    
    494600   494600         299.12324      335.44349      1192.8086      970.71841     -1157.1965      36.927337      35.87059       35.87059       47514.376      1.3112431     -1482.8535    
    494700   494700         308.86976     -339.75515     -583.24466      294.08967     -730.11046      36.927696      35.87059       35.87059       47514.838      1.3112304     -1435.4522    
    494800   494800         308.3742      -1562.0076     -325.6841      -2969.8419     -1390.4968      36.928055      35.87059       35.87059       47515.299      1.3112176     -1388.9029    
    494900   494900         304.72236     -1273.4343     -3026.5672      232.26658     -1026.0022      36.928414      35.87059       35.87059       47515.761      1.3112049     -1432.0788    
    495000   495000         302.26532     -987.14356     -632.79117     -1543.9644     -784.67506      36.928772      35.87059       35.87059       47516.222      1.3111922     -1518.9101    
    495100   495100         305.65599      172.35469     -456.24241     -703.28917      1676.5957      36.929131      35.87059       35.87059       47516.684      1.3111794     -1540.9364    
    495200   495200         289.95531     -879.45373     -298.65245     -1881.6306     -458.07813      36.92949       35.87059       35.87059       47517.145      1.3111667     -1552.9931    
    495300   495300         298.65619     -391.26809     -222.65224     -84.833376     -866.31865      36.929848      35.87059       35.87059       47517.607      1.3111539     -1488.3247    
    495400   495400         301.94196     -519.24955     -850.07489      25.560883     -733.23463      36.930207      35.87059       35.87059       47518.069      1.3111412     -1412.6812    
    495500   495500         302.3121      -1076.6279     -187.55933     -976.47226     -2065.852       36.930566      35.87059       35.87059       47518.53       1.3111285     -1430.955     
    495600   495600         298.62348     -850.00295     -601.86269     -800.35768     -1147.7885      36.930925      35.87059       35.87059       47518.992      1.3111157     -1503.3364    
    495700   495700         293.02762     -873.85687     -1187.8084     -1249.1457     -184.6165       36.931283      35.87059       35.87059       47519.453      1.311103      -1562.5652    
    495800   495800         294.79806     -1061.1346      192.69232     -1891.5918     -1484.5044      36.931642      35.87059       35.87059       47519.915      1.3110903     -1534.8833    
    495900   495900         298.94269     -434.83878     -908.59609      15.321032     -411.24127      36.932001      35.87059       35.87059       47520.376      1.3110775     -1490.0557    
    496000   496000         300.19395     -561.68799     -1636.352       954.69282     -1003.4048      36.932359      35.87059       35.87059       47520.838      1.3110648     -1463.6119    
    496100   496100         300.77426      241.03807     -1560.4259      832.61638      1450.9237      36.932718      35.87059       35.87059       47521.299      1.3110521     -1438.3705    
    496200   496200         304.07836     -1245.0984     -494.01174     -1175.6883     -2065.5952      36.933077      35.87059       35.87059       47521.761      1.3110393     -1400.9937    
    496300   496300         297.09721     -260.22692     -871.35617      1147.1396     -1056.4642      36.933435      35.87059       35.87059       47522.223      1.3110266     -1464.8845    
    496400   496400         301.52035     -479.85026     -1069.3555     -93.615815     -276.57944      36.933794      35.87059       35.87059       47522.684      1.3110139     -1526.281     
    496500   496500         295.77018     -498.69514      533.35641     -652.59443     -1376.8474      36.934153      35.87059       35.87059       47523.146      1.3110011     -1576.1254    
    496600   496600         298.7779      -1062.0193     -1425.2375     -502.43059     -1258.3897      36.934512      35.87059       35.87059       47523.607      1.3109884     -1601.2005    
    496700   496700         302.01179     -494.30571     -1486.1162      982.70583     -979.50673      36.93487       35.87059       35.87059       47524.069      1.3109757     -1524.9971    
    496800   496800         304.55878     -394.36655     -347.91968     -796.47323     -38.706748      36.935229      35.87059       35.87059       47524.53       1.3109629     -1449.2778    
    496900   496900         301.60311     -1159.6006     -1119.5952     -721.62424     -1637.5824      36.935588      35.87059       35.87059       47524.992      1.3109502     -1471.6654    
    497000   497000         294.59868     -910.47564     -242.07132     -1405.1829     -1084.1727      36.935946      35.87059       35.87059       47525.453      1.3109375     -1521.5115    
    497100   497100         295.20918     -1997.7531     -3017.042      -2189.7321     -786.48518      36.936305      35.87059       35.87059       47525.915      1.3109247     -1563.0445    
    497200   497200         291.50853     -1803.9243     -2872.1289     -647.85606     -1891.7881      36.936664      35.87059       35.87059       47526.376      1.310912      -1559.4356    
    497300   497300         308.4404      -267.4787      -248.97231      820.37951     -1373.8433      36.937023      35.87059       35.87059       47526.838      1.3108993     -1448.8019    
    497400   497400         303.97746     -1136.4919     -2894.7174     -237.78796     -276.97033      36.937381      35.87059       35.87059       47527.3        1.3108866     -1453.5711    
    497500   497500         296.64472      553.60559     -593.14598      1043.9021      1210.0607      36.93774       35.87059       35.87059       47527.761      1.3108738     -1526.3444    
    497600   497600         304.70232     -802.56936     -1090.9524     -418.91482     -897.84089      36.938099      35.87059       35.87059       47528.223      1.3108611     -1544.6236    
    497700   497700         299.81555     -1506.9368     -1020.0943     -1957.6468     -1543.0694      36.938457      35.87059       35.87059       47528.684      1.3108484     -1530.8994    
    497800   497800         301.46953     -1478.0149     -1233.94       -1824.3851     -1375.7196      36.938816      35.87059       35.87059       47529.146      1.3108356     -1485.7644    
    497900   497900         312.19984     -400.52774     -466.31962     -1248.1813      512.91768      36.939175      35.87059       35.87059       47529.607      1.3108229     -1382.2281    
    498000   498000         308.10054     -485.38231     -469.47821     -401.89821     -584.77052      36.939533      35.87059       35.87059       47530.069      1.3108102     -1402.98      
    498100   498100         297.61674     -481.36443     -1537.9121     -701.57523      795.39403      36.939892      35.87059       35.87059       47530.53       1.3107974     -1497.2937    
    498200   498200         301.24715     -241.01119      62.661243     -560.59551     -225.0993       36.940251      35.87059       35.87059       47530.992      1.3107847     -1518.2952    
    498300   498300         301.61035     -647.98686     -796.17432     -302.1665      -845.61977      36.94061       35.87059       35.87059       47531.453      1.310772      -1511.4604    
    498400   498400         307.87291     -1734.7641     -1390.4224     -2281.7487     -1532.1211      36.940968      35.87059       35.87059       47531.915      1.3107593     -1474.4114    
    498500   498500         305.9064      -614.76796     -124.50737     -1645.2835     -74.513033      36.941327      35.87059       35.87059       47532.377      1.3107465     -1405.7812    
    498600   498600         303.63944     -585.07552     -1240.9258     -317.38331     -196.91744      36.941686      35.87059       35.87059       47532.838      1.3107338     -1411.6114    
    498700   498700         295.48103     -398.2802      -976.74559      19.248732     -237.34376      36.942044      35.87059       35.87059       47533.3        1.3107211     -1533.4504    
    498800   498800         300.16012     -1263.1689     -2172.7884      179.16796     -1795.8861      36.942403      35.87059       35.87059       47533.761      1.3107084     -1547.565     
    498900   498900         293.17845     -543.25241     -556.63157     -468.9913      -604.13434      36.942762      35.87059       35.87059       47534.223      1.3106956     -1519.8504    
    499000   499000         306.64785      343.29921     -86.60081       395.34622      721.15221      36.943121      35.87059       35.87059       47534.684      1.3106829     -1450.5844    
    499100   499100         303.79256     -3.2388386     -1853.055       1665.3371      178.00136      36.943479      35.87059       35.87059       47535.146      1.3106702     -1441.854     
    499200   499200         297.25015      273.9446      -183.7297      -97.891344      1103.4548      36.943838      35.87059       35.87059       47535.607      1.3106574     -1555.4964    
    499300   499300         297.05379     -1071.5064     -1927.6041     -934.56643     -352.34867      36.944197      35.87059       35.87059       47536.069      1.3106447     -1575.5212    
    499400   499400         300.90196     -318.21372     -1017.3776      849.11991     -786.38346      36.944555      35.87059       35.87059       47536.53       1.310632      -1559.7449    
    499500   499500         300.77483     -545.99897     -315.20771     -215.28196     -1107.5072      36.944914      35.87059       35.87059       47536.992      1.3106193     -1492.5256    
    499600   499600         304.99017     -1960.2344     -3080.1507     -1348.485      -1452.0675      36.945273      35.87059       35.87059       47537.454      1.3106065     -1450.3233    
    499700   499700         299.15717     -1154.2981     -1959.8029     -864.04846     -639.04298      36.945631      35.87059       35.87059       47537.915      1.3105938     -1459.9905    
    499800   499800         301.69791      110.02849     -669.94428      1505.6029     -505.57312      36.94599       35.87059       35.87059       47538.377      1.3105811     -1476.0797    
    499900   499900         298.44368     -793.05549     -258.38078     -1295.8335     -824.95222      36.946349      35.87059       35.87059       47538.838      1.3105684     -1481.0763    
    500000   500000         298.94811     -526.13064     -1473.1264      794.74908     -900.01458      36.946708      35.87059       35.87059       47539.3        1.3105557     -1490.05      
Loop time of 1093.18 on 4 procs for 300000 steps with 3620 atoms

Performance: 23.711 ns/day, 1.012 hours/ns, 274.429 timesteps/s, 993.432 katom-step/s
94.7% CPU use with 4 MPI tasks x 1 OpenMP threads

MPI task timing breakdown:
Section |  min time  |  avg time  |  max time  |%varavg| %total
---------------------------------------------------------------
Pair    | 113.63     | 137.26     | 163.92     | 165.0 | 12.56
Bond    | 341.22     | 349.16     | 356.74     |  30.7 | 31.94
Kspace  | 265.25     | 273.2      | 281.48     |  36.1 | 24.99
Neigh   | 75.718     | 77.935     | 80.54      |  19.7 |  7.13
Comm    | 33.901     | 34.38      | 34.828     |   5.6 |  3.14
Output  | 0.18883    | 0.23069    | 0.31376    |  10.2 |  0.02
Modify  | 179.35     | 207.4      | 232.84     | 137.3 | 18.97
Other   |            | 13.63      |            |       |  1.25

Nlocal:            905 ave         918 max         879 min
Histogram: 1 0 0 0 0 0 1 0 0 2
Nghost:           6724 ave        6763 max        6695 min
Histogram: 1 1 0 0 0 1 0 0 0 1
Neighs:              0 ave           0 max           0 min
Histogram: 4 0 0 0 0 0 0 0 0 0
FullNghs:       436740 ave      443713 max      423915 min
Histogram: 1 0 0 0 0 0 1 0 0 2

Total # of neighbors = 1746960
Ave neighs/atom = 482.58564
Ave special neighs/atom = 5.9723757
Neighbor list builds = 6809
Dangerous builds = 0
unfix def
unfix nvt_def

unfix shake_fix



write_data 05_deform_out.data
System init for write_data ...
PPPM initialization ...
  using 12-bit tables for long-range coulomb
  G vector (1/distance) = 0.2956189
  grid = 25 24 24
  stencil order = 5
  estimated absolute RMS force accuracy = 0.00036598809
  estimated relative force accuracy = 1.1021623e-06
  using double precision KISS FFT
  3d grid and FFT values/proc = 11552 3600
Generated 6 of 6 mixed pair_coeff terms from sixthpower/sixthpower mixing rule

print "STAGE COMPLETE: npt_deform T=300K rate=1e-07/fs steps=300000"
STAGE COMPLETE: npt_deform T=300K rate=1e-07/fs steps=300000
quit
