LAMMPS data file via write_data, version 22 Jul 2025, timestep = 500000, units = real

4520 atoms
7 atom types
4510 bonds
10 bond types
8000 angles
18 angle types
9970 dihedrals
23 dihedral types
4500 impropers
11 improper types

3.87156415809023 41.761559271910095 xlo xhi
3.87156415809023 41.761559271910095 ylo yhi
3.87156415809023 41.761559271910095 zlo zhi

Masses

1 12.01115
2 12.01115
3 12.01115
4 1.00797
5 1.008
6 15.9994
7 15.9994

Pair Coeffs # lj/class2/coul/long/kk

1 0.054 4.01
2 0.054 4.01
3 0.12 3.81
4 0.02 2.995
5 0.013 1.11
6 0.267 3.3
7 0.24 3.42

Bond Coeffs # class2/kk

1 1.53 299.67 -501.77 679.81
2 1.53 299.67 -501.77 679.81
3 1.5202 253.707 -423.037 396.9
4 1.101 345 -691.89 844.6
5 1.5202 253.707 -423.037 396.9
6 1.101 345 -691.89 844.6
7 1.43 326.727 -608.531 689.033
8 1.202 851.14 -1918.49 2160.77
9 1.3683 367.148 -794.791 1055.23
10 0.952 534.299 -1287.19 1889.14

Angle Coeffs # class2/kk

1 108.53 51.9747 -9.4851 -10.9985
2 110.77 41.453 -10.604 5.129
3 108.53 51.9747 -9.4851 -10.9985
4 110.77 41.453 -10.604 5.129
5 107.41 63.3907 -13.4513 1.665
6 123.145 55.5431 -17.2123 0.1348
7 100.318 38.8631 -3.8323 -7.9802
8 110.77 41.453 -10.604 5.129
9 123.145 55.5431 -17.2123 0.1348
10 100.318 38.8631 -3.8323 -7.9802
11 113.288 61.2868 -28.9786 7.9929
12 107.734 40.6099 -28.8121 0
13 107.734 40.6099 -28.8121 0
14 109.5 60 0 0
15 112.874 53.2512 -14.9979 2.464
16 107.66 39.641 -12.921 -2.4318
17 107.688 65.4801 -10.3498 5.8866
18 120.797 95.3446 -32.2869 6.3778

BondBond Coeffs

1 5.4199 1.53 1.5202
2 3.3872 1.53 1.101
3 5.4199 1.53 1.5202
4 3.3872 1.53 1.101
5 23.2647 1.53 1.43
6 46.0685 1.5202 1.202
7 19.1069 1.5202 1.3683
8 3.3872 1.53 1.101
9 46.0685 1.5202 1.202
10 19.1069 1.5202 1.3683
11 45.4503 1.43 1.3683
12 0.7115 1.5202 1.101
13 0.7115 1.5202 1.101
14 0 1.5202 1.43
15 9.5671 1.3683 0.952
16 5.3316 1.101 1.101
17 5.6454 1.101 1.43
18 121.488 1.202 1.3683

BondAngle Coeffs

1 18.1678 15.8758 1.53 1.5202
2 20.754 11.421 1.53 1.101
3 18.1678 15.8758 1.53 1.5202
4 20.754 11.421 1.53 1.101
5 23.392 47.9487 1.53 1.43
6 34.9982 37.1298 1.5202 1.202
7 1.3435 4.6978 1.5202 1.3683
8 20.754 11.421 1.53 1.101
9 34.9982 37.1298 1.5202 1.202
10 1.3435 4.6978 1.5202 1.3683
11 41.9116 46.4608 1.43 1.3683
12 12.4632 9.1765 1.5202 1.101
13 12.4632 9.1765 1.5202 1.101
14 0 0 1.5202 1.43
15 37.9163 21.4364 1.3683 0.952
16 18.103 18.103 1.101 1.101
17 8.6864 57.4975 1.101 1.43
18 76.2614 71.8761 1.202 1.3683

Dihedral Coeffs # class2/kk

1 0.0442 0 0.0292 0 0.0562 0
2 1.8341 0 2.0603 0 -0.0195 0
3 0.0442 0 0.0292 0 0.0562 0
4 1.8341 0 2.0603 0 -0.0195 0
5 0 0 0 0 -0.1932 0
6 -2.5594 0 2.2013 0 0.0325 0
7 -2.5594 0 2.2013 0 0.0325 0
8 -2.9126 0 1.0199 0 -0.2077 0
9 0 0 2.2089 0 0 0
10 -0.0228 0 0.028 0 -0.1863 0
11 -0.0228 0 0.028 0 -0.1863 0
12 0 0 0 0 -0.1932 0
13 0 0 0 0 -0.1932 0
14 -0.1432 0 0.0617 0 -0.1083 0
15 -0.1432 0 0.0617 0 -0.1083 0
16 0 0 0 0 -0.25 0
17 -0.1804 0 0.0012 0 0.0371 0
18 -0.6359 0 1.4807 0 -0.0438 0
19 -0.1804 0 0.0012 0 0.0371 0
20 -0.6359 0 1.4807 0 -0.0438 0
21 0 0 2.2089 0 0 0
22 0 180 0 0 0 0
23 0 180 0 0 0 0

AngleAngleTorsion Coeffs

1 -8.019 108.53 123.145
2 0 108.53 100.318
3 -8.019 108.53 123.145
4 0 108.53 100.318
5 0 107.41 113.288
6 0 100.318 113.288
7 0 100.318 113.288
8 0 100.318 112.874
9 0 113.288 120.797
10 -5.3624 108.53 110.77
11 -5.3624 108.53 110.77
12 0 109.5 113.288
13 0 113.288 107.688
14 -12.564 110.77 110.77
15 -12.564 110.77 110.77
16 0 110.77 107.41
17 -15.3496 107.734 123.145
18 0 107.734 100.318
19 -15.3496 107.734 123.145
20 0 107.734 100.318
21 0 112.874 120.797
22 0 123.145 109.5
23 0 109.5 100.318

EndBondTorsion Coeffs

1 0.2654 0.0503 0.1046 -0.281 0.0816 -0.1522 1.53 1.202
2 0 0 0 0 0 0 1.53 1.3683
3 0.2654 0.0503 0.1046 -0.281 0.0816 -0.1522 1.53 1.202
4 0 0 0 0 0 0 1.53 1.3683
5 0 0 0 0 0 0 1.53 1.3683
6 0 0 0 0 0 0 1.5202 1.43
7 0 0 0 0 0 0 1.5202 1.43
8 0 0 0 0 0 0 1.5202 0.952
9 0 0 0 0 0 0 1.43 1.202
10 -0.0204 0.3628 -0.4426 -0.0097 -0.0315 -0.0755 1.5202 1.101
11 -0.0204 0.3628 -0.4426 -0.0097 -0.0315 -0.0755 1.5202 1.101
12 0 0 0 0 0 0 1.5202 1.3683
13 0 0 0 0 0 0 1.3683 1.101
14 0.213 0.312 0.0777 0.213 0.312 0.0777 1.101 1.101
15 0.213 0.312 0.0777 0.213 0.312 0.0777 1.101 1.101
16 0 0 0 0 0 0 1.101 1.43
17 1.2143 0.2831 0.3916 -0.2298 0.0354 0.3853 1.101 1.202
18 0 0 0 0 0 0 1.101 1.3683
19 1.2143 0.2831 0.3916 -0.2298 0.0354 0.3853 1.101 1.202
20 0 0 0 0 0 0 1.101 1.3683
21 0 0 0 0 0 0 0.952 1.202
22 0 0 0 0 0 0 1.202 1.43
23 0 0 0 0 0 0 1.43 1.3683

MiddleBondTorsion Coeffs

1 0.3388 -0.1096 0.1219 1.5202
2 -17.328 -5.79 -3.2114 1.5202
3 0.3388 -0.1096 0.1219 1.5202
4 -17.328 -5.79 -3.2114 1.5202
5 -5.435 0 0 1.43
6 1.3445 3.5515 -4.9202 1.3683
7 1.3445 3.5515 -4.9202 1.3683
8 2.1452 0.5482 -2.3693 1.3683
9 4.26 0 0 1.3683
10 -3.5039 1.2458 -0.761 1.53
11 -3.5039 1.2458 -0.761 1.53
12 0 0 0 1.43
13 0 0 0 1.43
14 -14.261 -0.5322 -0.4864 1.53
15 -14.261 -0.5322 -0.4864 1.53
16 0 0 0 1.53
17 0.2359 0.9139 0.9594 1.5202
18 -13.7686 -2.5959 1.1934 1.5202
19 0.2359 0.9139 0.9594 1.5202
20 -13.7686 -2.5959 1.1934 1.5202
21 4.26 0 0 1.3683
22 0 0 0 1.5202
23 0 0 0 1.5202

BondBond13 Coeffs

1 0 1.53 1.202
2 0 1.53 1.3683
3 0 1.53 1.202
4 0 1.53 1.3683
5 0 1.53 1.3683
6 0 1.5202 1.43
7 0 1.5202 1.43
8 0 1.5202 0.952
9 0 1.43 1.202
10 0 1.5202 1.101
11 0 1.5202 1.101
12 0 1.5202 1.3683
13 0 1.3683 1.101
14 0 1.101 1.101
15 0 1.101 1.101
16 0 1.101 1.43
17 0 1.101 1.202
18 0 1.101 1.3683
19 0 1.101 1.202
20 0 1.101 1.3683
21 0 0.952 1.202
22 0 1.202 1.43
23 0 1.43 1.3683

AngleTorsion Coeffs

1 0.0885 -1.3703 -0.5452 0.675 0.5965 0.6725 108.53 123.145
2 0 0 0 0 0 0 108.53 100.318
3 0.0885 -1.3703 -0.5452 0.675 0.5965 0.6725 108.53 123.145
4 0 0 0 0 0 0 108.53 100.318
5 0 0 0 0 0 0 107.41 113.288
6 0 0 0 0 0 0 100.318 113.288
7 0 0 0 0 0 0 100.318 113.288
8 0 0 0 0 0 0 100.318 112.874
9 0 0 0 0 0 0 113.288 120.797
10 -0.7466 -0.9448 -0.6321 0.0162 1.4211 -1.4092 108.53 110.77
11 -0.7466 -0.9448 -0.6321 0.0162 1.4211 -1.4092 108.53 110.77
12 0 0 0 0 0 0 109.5 113.288
13 0 0 0 0 0 0 113.288 107.688
14 -0.8085 0.5569 -0.2466 -0.8085 0.5569 -0.2466 110.77 110.77
15 -0.8085 0.5569 -0.2466 -0.8085 0.5569 -0.2466 110.77 110.77
16 0 0 0 0 0 0 110.77 107.41
17 9.1299 -0.4847 0.3582 -1.4946 0.7308 -0.2083 107.734 123.145
18 0 0 0 0 0 0 107.734 100.318
19 9.1299 -0.4847 0.3582 -1.4946 0.7308 -0.2083 107.734 123.145
20 0 0 0 0 0 0 107.734 100.318
21 0 0 0 0 0 0 112.874 120.797
22 0 0 0 0 0 0 123.145 109.5
23 0 0 0 0 0 0 109.5 100.318

Improper Coeffs # class2/kk

1 0 0
2 0 0
3 0 0
4 0 0
5 0 0
6 0 0
7 0 0
8 0 0
9 0 0
10 46.9264 0
11 46.9264 0

AngleAngle Coeffs

1 1.0827 -1.8202 2.0403 110.77 108.53 107.734
2 0.2738 -0.4825 0.2738 110.77 110.77 107.66
3 0.2738 -0.4825 0.2738 110.77 110.77 107.66
4 -3.3867 -3.4976 -3.3867 107.734 107.734 107.66
5 -0.3157 -0.3157 -0.3157 107.66 107.66 107.66
6 1.0827 -1.8202 2.0403 110.77 108.53 107.734
7 0 0 0 110.77 107.41 107.688
8 0 0 0 107.41 108.53 109.5
9 0 0 0 107.734 109.5 107.688
10 0 0 0 100.318 123.145 120.797
11 0 0 0 100.318 123.145 120.797

Atoms # full/kk

1462 4 3 0.702 8.360662812067357 5.149447097031112 7.406841753237694 0 0 0
1463 4 6 -0.531 8.220099690384096 6.189579382171775 7.974097068081882 0 0 0
1082 3 3 0.702 6.9663383161597245 9.337466966419015 4.963482814544623 0 0 1
1076 3 2 0.172 6.044014340303562 8.098420587968272 4.65887117046358 0 0 1
1077 3 4 0.053 6.7227281364249265 7.266481010659496 4.574801178626106 0 0 1
1083 3 6 -0.531 7.464498758415211 10.141957878108748 4.19633651580832 0 0 1
1092 3 6 -0.531 9.799656187508305 9.968624484443435 8.035293698536904 0 0 1
1107 3 4 0.053 5.976156293934352 8.918926556756762 9.304526384238198 0 0 1
1106 3 4 0.053 7.269107385916165 7.7710556015459975 9.345592442597546 0 0 1
1080 3 4 0.053 5.091735066903389 7.456408029341457 6.601822343097655 0 0 1
1091 3 3 0.702 8.814980781424726 10.659375028558697 8.016315608915459 0 0 1
1084 3 7 -0.396 7.162690296829817 9.492818726122422 6.335459418213216 0 0 1
1086 3 4 0.053 8.046052214765417 11.437763226761334 5.8571434220705285 0 0 1
1456 4 2 0.172 9.844930751855793 4.401957125137708 7.0634644660126025 0 0 0
1457 4 4 0.053 10.069858580993706 4.87353813050996 6.144731664009164 0 0 0
1448 4 4 0.053 10.878696220796044 5.7951596271884975 11.246749342221694 0 0 0
1466 4 4 0.053 5.920757173665567 5.612510139653873 6.772012428338584 0 0 0
1453 4 3 0.702 10.595596087750366 4.733138660559409 9.333486478474315 0 0 0
1455 4 7 -0.396 10.882278415905233 4.822441037849387 7.975750982990111 0 0 0
435 1 1 -0.159 10.73144061871374 8.104618024115972 5.962285521838782 1 0 1
1452 4 4 0.053 12.769598383628837 6.458072930655351 8.965133177655748 0 0 0
436 1 4 0.053 10.314392783615936 7.290293958309682 5.369520031255751 1 0 1
423 1 7 -0.396 15.676974100881015 5.069934030238117 5.1211454967181576 1 0 1
437 1 4 0.053 10.513102846261056 8.060464105113496 7.060344192416916 1 0 1
1436 4 6 -0.531 15.241043317942724 6.420187005577741 10.567826795585232 0 0 0
1446 4 7 -0.396 12.543358138295977 4.582540648207412 10.734315903930591 0 0 0
434 1 4 0.053 12.81250210346602 8.782143150415056 6.077170622548644 1 0 1
1450 4 4 0.053 13.11460452455893 7.0098607239179564 10.717657331165448 0 0 0
1451 4 4 0.053 11.529637835435462 7.5095773479214785 9.777578865425351 0 0 0
2998 7 3 0.702 15.617099236667352 10.183084872492543 8.895681829621738 0 0 1
2993 7 4 0.053 14.1120989637756 9.193309727546843 9.772751916002976 0 0 1
3003 7 1 -0.159 16.155164129106144 10.57126869566526 5.579218533006884 0 0 1
2999 7 6 -0.531 16.595702646766846 9.430587985073185 9.141845529362605 0 0 1
1447 4 2 0.172 11.490072954032089 5.459570474715442 10.385606503984311 0 0 0
1449 4 1 -0.159 12.250676479350508 6.710806275832979 9.971033671318656 0 0 0
2992 7 2 0.172 14.33574946053685 10.214828127889174 9.72920000706408 0 0 1
438 1 4 0.053 10.192669909470753 8.986431187455391 5.711216102297883 1 0 1
3004 7 4 0.053 15.836663899897465 9.5812645755367 5.861911958037133 0 0 1
418 1 4 0.053 15.946777206964013 4.154909122745171 7.682483651093773 1 0 1
428 1 4 0.053 13.900449172173118 41.538099457722474 41.226054104301916 1 -1 0
433 1 2 0.172 12.198040512339258 8.270416615891213 5.352473017552169 1 0 1
430 1 3 0.702 13.984279058950142 6.832593076113854 4.363294186583435 1 0 1
432 1 7 -0.396 12.786733963015575 6.904638909006051 5.149156010249496 1 0 1
431 1 6 -0.531 14.390166090113759 7.824249098393423 3.871684844982045 1 0 1
424 1 2 0.172 14.552477466827156 5.434993707056124 4.12472228196416 1 0 1
3019 7 2 0.172 21.34735133249953 8.189716770495789 9.902803044299633 0 0 1
3017 7 6 -0.531 18.79486904995741 7.496454192070527 9.379227022895126 0 0 1
421 1 3 0.702 16.50313088500463 4.0865285434647785 4.650199094611791 1 0 1
3006 7 4 0.053 16.859120445007758 10.45389795008072 4.739057222795573 0 0 1
419 1 4 0.053 16.98367082380559 5.448263132669213 7.3041013329352324 1 0 1
417 1 1 -0.159 16.962602975709153 4.361617839741853 7.398401421331511 1 0 1
412 1 3 0.702 19.752081319750616 4.391532451772724 5.613883105604675 1 0 1
413 1 6 -0.531 19.25698352347292 5.427462764607513 5.290029802169601 1 0 1
3010 7 2 0.172 19.058776488109686 8.002360056166047 6.816622326279346 0 0 1
3016 7 3 0.702 19.49639551617385 7.746885758588343 8.427539376754625 0 0 1
3013 7 4 0.053 20.91824656614124 9.05154200635045 5.902095293969752 0 0 1
3009 7 7 -0.396 18.136953421156235 9.190851670926943 6.470871819673945 0 0 1
407 1 4 0.053 21.69521812195807 5.00132120182062 5.637622827682801 1 0 1
3012 7 1 -0.159 20.188174212854964 8.054380336741923 5.737279330181905 0 0 1
3011 7 4 0.053 18.33883658032655 7.027759596894171 6.887908610151475 0 0 1
3018 7 7 -0.396 20.853294109487233 7.772428679203865 8.596493291019824 0 0 1
3014 7 4 0.053 19.887922382863472 8.034879268285966 4.682797194267929 0 0 1
404 1 6 -0.531 22.70510770081763 5.45811938640086 7.618896181767535 1 0 1
403 1 3 0.702 22.428387721055316 4.337722479414366 7.892320707146489 1 0 1
3007 7 3 0.702 18.11315309360929 10.335501134339527 7.1691130521585915 0 0 1
3015 7 4 0.053 20.96621139978702 7.23645075835778 5.8628799645301335 0 0 1
2652 6 4 0.053 28.369279667427694 3.9492957611458266 7.436045483802247 0 2 1
3033 7 4 0.053 25.229476934278317 7.538835601039148 8.868469297630973 0 0 1
3032 7 4 0.053 26.529155104579228 6.804646926384196 9.73863952308867 0 0 1
3797 9 2 0.172 24.6866599921016 8.977694382690178 6.2013021479735455 0 1 1
3030 7 1 -0.159 25.489938064975842 6.943708993958902 9.700908325016968 0 0 1
3801 9 4 0.053 22.883263662529895 9.816747967696319 7.341735027800098 0 1 1
2653 6 4 0.053 26.813903345390624 4.533025078212895 8.41177506991066 0 2 1
3799 9 1 -0.159 23.868781012761843 9.92227375718332 7.0563239115125675 0 1 1
3031 7 4 0.053 24.958138119405334 6.01595770717665 9.474820774482874 0 0 1
3800 9 4 0.053 23.95956834061025 11.084660877408743 6.8599560037664284 0 1 1
3803 9 3 0.702 26.237044078334858 8.995574388767164 6.409700556598431 0 1 1
2650 6 1 -0.159 27.69050699366115 4.817372176208732 7.686396868619992 0 2 1
3802 9 4 0.053 24.365265324575432 10.15316658878129 8.090225690796453 0 1 1
398 1 4 0.053 22.93116005824602 4.33715855430881 9.983893548255557 1 0 1
3794 9 3 0.702 24.382981471175388 7.695922394943134 4.15246780508418 0 1 1
3795 9 6 -0.531 25.04814886360665 6.8576697241508215 4.701330016716081 0 1 1
3796 9 7 -0.396 24.23182478580062 8.926216712554616 4.810915354052923 0 1 1
3798 9 4 0.053 24.630094220626876 7.9465607742630855 6.654932612063391 0 1 1
3805 9 7 -0.396 26.664462169528026 10.353412133667323 6.39510156099315 0 1 1
3806 9 2 0.172 28.10544573734038 10.368207434613828 6.393993581043265 0 1 1
3804 9 6 -0.531 26.866872036507132 8.050929860578046 6.575612197529419 0 1 1
3812 9 3 0.702 28.64240602568526 10.666684099240243 4.932480792112092 0 1 1
3807 9 4 0.053 28.500976275062992 9.339876713587621 6.550621993218509 0 1 1
3810 9 4 0.053 28.121434403786587 11.057668460491838 8.522860365789281 0 1 1
3808 9 1 -0.159 28.50646793431897 11.37820294453214 7.540317957495385 0 1 1
1152 3 4 0.053 32.17577049146085 11.377927477727887 6.067518995954967 -1 0 1
1153 3 4 0.053 32.71611757029781 9.686314701917553 5.663634575529181 -1 0 1
3813 9 6 -0.531 28.84585531918568 9.784974309969687 4.122108560321421 0 1 1
2649 6 4 0.053 28.569074439610166 6.791373441294823 8.345148709818599 0 2 1
2648 6 2 0.172 28.80389854388367 5.752888761256219 8.239103184695855 0 2 1
1151 3 4 0.053 33.54372334767085 11.118369366815587 5.123799351389107 -1 0 1
1150 3 1 -0.159 33.00413655180158 10.743501550544218 5.969444242672667 -1 0 1
2646 6 6 -0.531 29.11338242526171 7.347147366066274 10.49447060369012 0 2 1
2645 6 3 0.702 29.44830843429885 6.140380703763848 10.584426139853964 0 2 1
3811 9 4 0.053 29.567010263773632 11.449970166352678 7.649923237237516 0 1 1
1148 3 2 0.172 34.150903069622814 10.57080815382892 7.0597363842328775 -1 0 1
1145 3 3 0.702 34.3434406612792 8.23271779556952 8.027581228480885 -1 0 1
2647 6 7 -0.396 29.095165907025564 5.239095759072939 9.602558623832659 0 2 1
1147 3 7 -0.396 33.69395304944032 9.402412916092429 7.8507294757971495 -1 0 1
2654 6 3 0.702 30.092394178385486 6.157643495203593 7.204839079399864 0 2 1
2655 6 6 -0.531 30.358164151312888 7.285913737260554 6.826672373522575 0 2 1
1141 3 1 -0.159 33.8429438589674 5.958130526335383 9.131525746542113 -1 0 1
1143 3 4 0.053 33.3750566928434 5.605739531603158 8.172981273245865 -1 0 1
1140 3 4 0.053 32.678114700014696 7.66541033608613 9.549421115509276 -1 0 1
1139 3 2 0.172 33.8091581778212 7.404262346065563 9.35548022552113 -1 0 1
1138 3 7 -0.396 34.62147376800519 7.654503390657943 10.566612866756982 -1 0 1
1144 3 4 0.053 33.28770713388707 5.579341273187957 10.010921102364215 -1 0 1
1142 3 4 0.053 34.79479667317766 5.339914832191013 9.109937370077853 -1 0 1
1075 3 7 -0.396 5.5319272800378805 8.122907083418887 41.157143443210124 0 0 0
4310 10 6 -0.531 40.5417699533207 5.453542543653208 5.851626706612085 0 1 1
1078 3 1 -0.159 4.891350330088164 7.79325498583402 5.622182919308238 0 0 1
4303 10 2 0.172 39.41112209833399 4.613835396132443 7.85969152092452 0 1 1
1079 3 4 0.053 4.30019631433514 8.660232883650611 5.68735831300011 0 0 1
1074 3 6 -0.531 4.382117748436383 9.952981764141807 41.549923832671446 0 0 0
4301 10 6 -0.531 41.024920372090186 3.89648354760939 9.855185084820185 0 1 1
4308 10 4 0.053 37.75560457693377 4.767341717962811 9.604022316120876 0 1 1
1146 3 6 -0.531 35.188165978024806 7.807526571794665 7.2767647528287025 -1 0 1
4313 10 4 0.053 38.99945701528066 6.081524873902106 3.996097041055798 0 1 1
4312 10 2 0.172 38.35935979541723 5.279465899201202 4.2800147039423475 0 1 1
4304 10 4 0.053 40.19134613893155 5.22151140861194 8.259768082465158 0 1 1
4315 10 4 0.053 36.71783756000214 6.724006233792106 4.6057516767168964 0 1 1
4314 10 1 -0.159 36.87480608547033 5.767843743944472 4.008852008006014 0 1 1
4316 10 4 0.053 36.24930007399759 4.778560981855283 4.2707337941600745 0 1 1
1164 3 6 -0.531 39.04318142355261 8.474240496318542 5.253582918272131 -1 0 1
4311 10 7 -0.396 38.366513279652594 5.02055318606776 5.655362543500927 0 1 1
4305 10 1 -0.159 38.01080241865779 4.836586554939282 8.46535582518577 0 1 1
4306 10 4 0.053 37.2669126766805 4.237405919730417 7.861699935992018 0 1 1
4307 10 4 0.053 37.63588627333385 5.8701131629225864 8.329258547221757 0 1 1
4309 10 3 0.702 39.55820625000385 5.0246394397723995 6.3146587064573945 0 1 1
1081 3 4 0.053 4.067305390133917 7.316200892151812 5.139620873880876 0 0 1
1117 3 4 0.053 39.964258431123085 7.548262708016665 10.086028771633176 -1 0 1
1094 3 2 0.172 9.031774380666338 10.875555172088454 10.463878300509238 0 0 1
1085 3 2 0.172 7.645939891790002 10.782989032212086 6.703532851625614 0 0 1
1093 3 7 -0.396 8.52735191148956 11.396159503750331 9.13678004005048 0 0 1
2020 5 4 0.053 6.9322358043868775 13.330367392658909 4.7427173898386465 0 0 1
1090 3 4 0.053 6.7207225190537425 12.51942619611997 7.724288729648799 0 0 1
1182 3 6 -0.531 5.455190550875278 14.183228086863025 8.92482042725274 0 0 1
1181 3 3 0.702 4.483594960271853 13.652207385564413 9.427052634330536 0 0 1
2018 5 1 -0.159 6.090612137814476 14.059600138904335 4.73359210025338 0 0 1
2021 5 4 0.053 6.448914754511481 14.98212665342052 4.807836984844266 0 0 1
1087 3 1 -0.159 6.372757036591436 11.475411015678954 7.256047843763565 0 0 1
1088 3 4 0.053 5.749170355918958 11.56585739317256 6.343616244332892 0 0 1
1089 3 4 0.053 5.788427266497262 10.874041958578692 8.020823431781592 0 0 1
1099 3 4 0.053 8.519554693415401 12.917470059605046 11.120455549286255 0 0 1
2019 5 4 0.053 5.57789916561974 13.790845969063875 5.6889938985924715 0 0 1
2017 5 4 0.053 4.735312049369362 12.66342444576688 41.71787758560703 0 0 0
1096 3 1 -0.159 8.917337317426597 12.001973349030807 11.484103297544882 0 0 1
2493 6 6 -0.531 12.563653192856325 14.152867525237353 8.78100476308616 0 1 1
2483 6 3 0.702 12.710473680560236 16.41049797906573 4.601071503336208 0 1 1
2485 6 7 -0.396 13.153647421938501 15.90439605617702 5.766658051141106 0 1 1
1095 3 4 0.053 10.171487738299545 10.692511952611255 10.257252883273024 0 0 1
2487 6 4 0.053 11.308580774660625 15.254505400048231 6.620763370883237 0 1 1
2994 7 1 -0.159 13.213967898927438 11.12427897850067 9.116240039849652 0 0 1
2997 7 4 0.053 12.983870609130852 11.073595197589007 8.053750624939251 0 0 1
1553 4 6 -0.531 15.57609704528804 14.854877605289971 4.953977714407676 0 0 0
2492 6 3 0.702 13.061254711699632 14.746309696446176 7.882981039478998 0 1 1
2996 7 4 0.053 13.18887926944825 12.143430941748022 9.51936412204588 0 0 1
2486 6 2 0.172 12.360478002343967 14.883870375061894 6.50054907754759 0 1 1
2494 6 7 -0.396 14.24797710456023 15.473749155261384 8.017177823369481 0 1 1
2491 6 4 0.053 12.419002769250161 12.614242302417457 6.32095094466144 0 1 1
2488 6 1 -0.159 12.491268541134907 13.538300903576562 5.711867145139804 0 1 1
2490 6 4 0.053 13.431336931975757 13.467066882210226 5.34722350619679 0 1 1
2489 6 4 0.053 11.810373902651062 13.54674881218287 4.888629115649036 0 1 1
2495 6 2 0.172 14.955016807064826 15.852554778028216 9.186932162574982 0 1 1
2497 6 1 -0.159 15.760698116142992 14.614661707083139 9.422007291162947 0 1 1
2499 6 4 0.053 15.360286180063895 13.594576991737036 9.158816297708102 0 1 1
3005 7 4 0.053 15.323793804249023 11.135037981678611 5.093894847358237 0 0 1
3000 7 7 -0.396 15.791797823120723 11.23062349555969 7.933158421103461 0 0 1
2995 7 4 0.053 12.317325001158034 10.61448813793082 9.399306611072054 0 0 1
2891 7 6 -0.531 21.72008535197336 12.948367574239454 10.528196171593839 0 0 1
1556 4 4 0.053 17.64880652549799 14.205228909566973 5.5918529260139955 0 0 0
3001 7 2 0.172 16.815901852901078 11.08637035541685 6.827636264523757 0 0 1
3008 7 6 -0.531 18.997741881295397 10.648803142661365 7.988219970539697 0 0 1
3002 7 4 0.053 17.12348664059744 12.151910680664493 6.79348582059091 0 0 1
1562 4 6 -0.531 19.5233477309708 12.366062664481293 4.80984946569526 0 0 0
2500 6 4 0.053 16.608035119426134 14.461166236589175 8.75220689134983 0 1 1
1561 4 3 0.702 19.53522155113445 13.540222925600034 4.638605178392341 0 0 0
1566 4 1 -0.159 22.620863385409432 13.425052461252289 5.645107833882738 0 0 0
1569 4 4 0.053 21.740021674632516 12.911111026764388 6.234241505908954 0 0 0
1568 4 4 0.053 23.552151726384352 12.849050740080873 5.745720514006424 0 0 0
1565 4 4 0.053 21.81378662093874 12.400643350119722 3.9138206792743873 0 0 0
1560 4 4 0.053 17.674497780455454 16.622743201730863 4.610699572253113 0 0 0
2885 7 4 0.053 20.988726340390595 15.098902692473871 9.12302764850187 0 0 1
3023 7 4 0.053 20.457699896618042 10.056846656807146 9.679404530566575 0 0 1
1564 4 2 0.172 21.974177131932937 13.401230116006557 4.270367274335171 0 0 0
1555 4 2 0.172 18.256237098606608 14.598831706255284 4.6632013169675135 0 0 0
1563 4 7 -0.396 20.79097885633624 14.21042202506718 4.465324854402222 0 0 0
1567 4 4 0.053 22.836014977527025 14.381550129824202 6.047170310380594 0 0 0
1572 4 7 -0.396 23.99975668248917 14.654560439995436 41.691253022280364 0 0 -1
3881 9 4 0.053 24.652610518638728 17.27397851695109 5.581669624899275 0 1 1
3822 9 6 -0.531 31.512849372534394 13.506396199182243 41.57281711431438 0 1 0
3880 9 1 -0.159 25.020311776427945 16.900583100400578 6.531076644170675 0 1 1
3882 9 4 0.053 24.056283465644235 16.5802194267755 7.011348366496079 0 1 1
3883 9 4 0.053 25.71952394773807 16.011288526349976 6.401037914098603 0 1 1
3024 7 4 0.053 22.140619035486413 10.35929857693262 9.161393073882596 0 0 1
3820 9 4 0.053 27.519082313012238 13.399578287548849 40.6459949018612 0 1 0
3021 7 1 -0.159 21.49987021382181 9.73538749517593 9.901560877285297 0 0 1
3893 9 3 0.702 26.971148166919814 15.630554332075263 11.07381473069416 0 1 1
3814 9 7 -0.396 28.772105766643328 11.956551811612528 4.63055242891489 0 1 1
3900 9 4 0.053 24.469182206385053 13.184031394981963 13.209160272336575 0 1 1
3899 9 4 0.053 24.42565011226675 13.336075180136225 11.28934253501252 0 1 1
3809 9 4 0.053 28.031526029017176 12.3818758374103 7.283603635230759 0 1 1
3892 9 4 0.053 28.132829179182934 14.012962799211984 8.838788970956553 0 1 1
1243 3 4 0.053 32.725021745437985 15.783580321063425 4.809832353116487 -1 0 1
1149 3 4 0.053 34.272994478716015 11.263844520037576 7.830104202619867 -1 0 1
1235 3 3 0.702 33.509274006050276 15.19332216718482 7.955660412208354 -1 0 1
1236 3 6 -0.531 32.49937357727083 14.825677502075528 8.49112391842642 -1 0 1
1154 3 3 0.702 35.69389207070268 10.56091438766882 6.606770296644044 -1 0 1
1158 3 4 0.053 36.727548824883954 9.123528923945996 3.902482295159764 -1 0 1
1162 3 4 0.053 36.02413700820089 11.654592910806791 41.43751244764597 -1 0 0
1175 3 2 0.172 41.04336135577843 13.599616030391187 8.76377991047317 -1 0 1
1159 3 1 -0.159 37.09196247146227 11.32412785678232 3.9744500566036574 -1 0 1
1176 3 4 0.053 41.00984667828652 14.457511513571767 7.896720936073194 -1 0 1
1161 3 4 0.053 37.496529280087906 12.18024302425487 4.6498898341308 -1 0 1
1228 3 7 -0.396 35.4020600022093 14.950399157371514 9.665952253969909 -1 0 1
1229 3 2 0.172 34.985786617200404 14.635591245517249 8.268128116697383 -1 0 1
1230 3 4 0.053 34.933906124592326 13.507289948271453 8.266511177429418 -1 0 1
1227 3 6 -0.531 36.57231201724953 13.03987296739209 9.977470027085737 -1 0 1
1155 3 6 -0.531 36.58763753988034 11.060338651382994 7.2204265557016045 -1 0 1
1156 3 7 -0.396 35.83499742974084 9.918623910567103 5.453956747952621 -1 0 1
1157 3 2 0.172 36.985589295194536 9.887796088455934 4.608630332309611 -1 0 1
1165 3 7 -0.396 38.93428860277786 10.612091731439861 5.913900449215389 -1 0 1
1172 3 3 0.702 40.83948780253294 11.990742621562005 6.9502643276178135 -1 0 1
1163 3 3 0.702 38.38859377827664 9.454467168371888 5.30059859753112 -1 0 1
1169 3 4 0.053 39.12117706381809 10.385733833039282 8.571216640345456 -1 0 1
1233 3 4 0.053 36.97318623805391 14.317665883536609 7.555956122931411 -1 0 1
1173 3 6 -0.531 41.49749408851356 12.692939265166812 6.17974274368932 -1 0 1
1231 3 1 -0.159 36.1731467231219 14.973987553470971 7.354418803242083 -1 0 1
1167 3 4 0.053 40.854197475874635 10.110560289039462 5.943747328903649 -1 0 1
1232 3 4 0.053 36.58577466699525 16.123243589206346 7.367836996140142 -1 0 1
1170 3 4 0.053 40.79295975663368 9.455584946361629 8.40516871046317 -1 0 1
1174 3 7 -0.396 40.774299827305725 12.256705459602614 8.264088792485218 -1 0 1
1171 3 4 0.053 39.26951110942218 8.798774890431662 7.627643923756305 -1 0 1
1166 3 2 0.172 40.13378546101057 10.559176999069571 6.607815852604122 -1 0 1
1168 3 1 -0.159 39.73118693369271 9.757908711355551 7.855961911744948 -1 0 1
2051 5 7 -0.396 9.729379487874368 17.742540874984005 8.539009382097637 0 0 1
2045 5 1 -0.159 8.054426048735642 16.681875758596846 6.5174550915063145 0 0 1
2046 5 4 0.053 7.813006136991225 16.02221898004691 7.313388596893306 0 0 1
2038 5 4 0.053 4.678947622819597 18.02773849319966 9.279655311109119 0 0 1
2044 5 4 0.053 8.090373623661716 18.797835778526874 6.111989170260204 0 0 1
2042 5 7 -0.396 6.411363181275924 18.197668654421506 7.190067510310901 0 0 1
2040 5 3 0.702 5.689549609770152 19.338365753739847 7.064746568173093 0 0 1
2043 5 2 0.172 7.833690781348617 18.092045861446387 7.00924167367528 0 0 1
2047 5 4 0.053 7.318787251358717 16.477891501987354 5.688233719329902 0 0 1
2048 5 4 0.053 9.096605376895145 16.59004384017203 6.180497877183834 0 0 1
2052 5 2 0.172 10.387551700726394 17.602822935066243 9.74577871251797 0 0 1
2053 5 4 0.053 10.887212568942932 16.593580718127534 9.606913974851599 0 0 1
2050 5 6 -0.531 8.362450284785602 19.463082385185494 8.99300064773888 0 0 1
2049 5 3 0.702 8.631850362383847 18.559170185253144 8.21626355115011 0 0 1
2041 5 6 -0.531 6.111136629135482 20.442792793140377 6.754332105877068 0 0 1
2516 6 4 0.053 14.453435087236508 20.803659866867502 6.2744766349231975 0 1 1
2480 6 4 0.053 15.198953957816604 17.2560310935903 5.436474123418707 0 1 1
2472 6 4 0.053 11.417911854791612 22.605556902260712 41.30618473953432 0 1 0
2055 5 4 0.053 12.066224783978628 18.681742747227737 9.132072040774867 0 0 1
2502 6 6 -0.531 15.133061924784904 18.253243091937975 9.495844717347982 0 1 1
2501 6 3 0.702 15.725449099332552 17.256674094039077 9.040818091657309 0 1 1
2479 6 1 -0.159 14.74276067957702 18.113581723690867 4.923193679573385 0 1 1
2054 5 1 -0.159 11.387680772766556 18.69457191825991 9.96673743359188 0 0 1
2056 5 4 0.053 11.054154346717585 19.677808230531483 9.955821794192218 0 0 1
2518 6 4 0.053 14.629295668084664 22.175383786669567 7.160425355086579 0 1 1
2515 6 1 -0.159 14.879116361538573 21.767202831720578 6.209397251215101 0 1 1
2517 6 4 0.053 14.534325881598024 22.302057168476107 5.357468072493436 0 1 1
2482 6 4 0.053 15.596203118775428 18.361038145138885 4.3519364649815975 0 1 1
2511 6 6 -0.531 17.35738199976342 19.16575378657091 5.559759600044919 0 1 1
2503 6 7 -0.396 16.857340976772832 17.373139090046102 8.363802045832422 0 1 1
2473 6 4 0.053 11.683911045404852 21.167875986333488 4.532144370375435 0 1 1
2471 6 4 0.053 13.152338026056604 22.213130765379535 4.041914015641481 0 1 1
2481 6 4 0.053 14.448642234356038 18.853270957268794 5.6998116466026465 0 1 1
2513 6 2 0.172 16.411670328226574 21.686768354802965 6.048562760126131 0 1 1
2514 6 4 0.053 16.718526561040242 21.41059577418492 5.037902843333233 0 1 1
2512 6 7 -0.396 16.763536535532232 20.768158045295102 7.019454964109913 0 1 1
2510 6 3 0.702 17.159732245415356 19.5084748313176 6.697773993575746 0 1 1
2504 6 2 0.172 17.510615354945863 18.64014147252172 8.023640979082176 0 1 1
2505 6 4 0.053 18.505801630896233 18.189288949186555 7.742380287997545 0 1 1
2852 7 4 0.053 24.991682582052185 21.532876344627493 7.235268201175445 0 0 1
2850 7 1 -0.159 24.82963563679386 21.988380306337476 8.281672026442488 0 0 1
2853 7 4 0.053 24.9948730617909 21.116411932671525 8.964377027420829 0 0 1
1587 4 4 0.053 22.102902554259586 18.111041490527917 41.096502395816366 0 0 -1
2519 6 3 0.702 17.141882793218727 23.04707626684626 6.16158654185088 0 1 1
2881 7 3 0.702 21.460765092268343 17.345048461408368 10.05096685726662 0 0 1
2882 7 6 -0.531 20.782925409675855 17.770776626994223 9.119248084401727 0 0 1
2851 7 4 0.053 25.5186251868907 22.923475751360375 8.353448746741423 0 0 1
1586 4 4 0.053 22.438247557993133 18.142604761097353 4.858453482514589 0 0 0
1585 4 4 0.053 21.9266501708632 19.766358844935468 3.9315161696824483 0 0 0
1584 4 1 -0.159 22.578009983153468 18.738930159643196 4.027223098543615 0 0 0
3876 9 6 -0.531 26.31928970168068 20.357930025395106 5.738654813938687 0 1 1
3875 9 3 0.702 27.08620107379879 19.50568536933122 5.685946817377917 0 1 1
3879 9 4 0.053 25.188432130748556 18.973879760078873 7.442539313002757 0 1 1
3884 9 3 0.702 26.473160143482524 17.61774760311792 8.421083854665094 0 1 1
3877 9 7 -0.396 26.852316215769964 18.221712104141417 6.114998436507536 0 1 1
3869 9 2 0.172 28.403953029372353 19.463462671548577 5.016985864074109 0 1 1
3878 9 2 0.172 25.854336452628758 18.051758398226305 7.080651058378527 0 1 1
3886 9 7 -0.396 26.679282115107224 16.30296969560516 8.557598682009724 0 1 1