units real
atom_style full
boundary p p p

# --- Force Field Styles ---
pair_style lj/cut 14.0
dielectric 1.000000
bond_style harmonic
angle_style harmonic
dihedral_style multi/harmonic
improper_style none
special_bonds lj 0 0 0
pair_modify mix arithmetic tail yes
neighbor 2.0 bin
neigh_modify delay 0 every 1 check yes
neigh_modify one 4000
package gpu 1 neigh yes

read_data /home/arz2/PolyJarvis/data/PE2/lammps/equil/npt_production/npt_production_out.data
Reading data file ...
  orthogonal box = (2.5061911 2.5061911 2.5061911) to (53.272181 53.272181 53.272181)
  1 by 1 by 1 MPI processor grid
  reading atoms ...
  4840 atoms
  reading velocities ...
  4840 velocities
  scanning bonds ...
  2 = max bonds/atom
  scanning angles ...
  1 = max angles/atom
  scanning dihedrals ...
  2 = max dihedrals/atom
  orthogonal box = (2.5061911 2.5061911 2.5061911) to (53.272181 53.272181 53.272181)
  1 by 1 by 1 MPI processor grid
  reading bonds ...
  4820 bonds
  reading angles ...
  4800 angles
  reading dihedrals ...
  4780 dihedrals
Finding 1-2 1-3 1-4 neighbors ...
  special bond factors lj:    0        0        0       
  special bond factors coul:  0        0        0       
     2 = max # of 1-2 neighbors
     2 = max # of 1-3 neighbors
     4 = max # of 1-4 neighbors
     6 = max # of special neighbors
  special bonds CPU = 0.001 seconds
  read_data CPU = 0.064 seconds


# --- Thermo Output ---
thermo_style custom step time temp press enthalpy etotal ke pe ebond eangle edihed eimp evdwl ecoul elong etail vol lx ly lz density pxx pyy pzz
thermo_modify flush yes
thermo 500

# --- Velocity initialization at T_START (once only — Rule A) ---
velocity all create 450.0 976619 mom yes rot yes dist gaussian

# --- Temperature staircase (inherits momenta across steps — Rule A) ---
variable temps index 450 430 410 390 370 350 330 310 290 270 250 230 210 190 170 150 130 110 100
label TEMP_LOOP
  timestep 2.0
  fix npt_tg all npt temp ${temps} ${temps} 100.0 iso 1.0 1.0 1000.0
  fix npt_tg all npt temp 450 ${temps} 100.0 iso 1.0 1.0 1000.0
  fix npt_tg all npt temp 450 450 100.0 iso 1.0 1.0 1000.0
  run 15625

CITE-CITE-CITE-CITE-CITE-CITE-CITE-CITE-CITE-CITE-CITE-CITE-CITE

Your simulation uses code contributions which should be cited:

- GPU package (short-range, long-range and three-body potentials): doi:10.1016/j.cpc.2010.12.021, doi:10.1016/j.cpc.2011.10.012, doi:10.1016/j.cpc.2013.08.002, doi:10.1016/j.commatsci.2014.10.068, doi:10.1016/j.cpc.2016.10.020, doi:10.3233/APC200086

@Article{Brown11,
 author = {W. M. Brown and P. Wang and S. J. Plimpton and A. N. Tharrington},
 title = {Implementing Molecular Dynamics on Hybrid High Performance Computers---Short Range Forces},
 journal = {Comput.\ Phys.\ Commun.},
 year =    2011,
 volume =  182,
 pages =   {898--911},
 doi =     {10.1016/j.cpc.2010.12.021}
}

@Article{Brown12,
 author = {W. M. Brown and A. Kohlmeyer and S. J. Plimpton and A. N. Tharrington},
 title = {Implementing Molecular Dynamics on Hybrid High Performance Computers - Particle-Particle Particle-Mesh},
 journal = {Comput.\ Phys.\ Commun.},
 year =    2012,
 volume =  183,
 doi =     {10.1016/j.cpc.2011.10.012},
 pages =   {449--459}
}

@Article{Brown13,
 author = {W. M. Brown and Y. Masako},
 title = {Implementing Molecular Dynamics on Hybrid High Performance Computers---Three-Body Potentials},
 journal = {Comput.\ Phys.\ Commun.},
 year =    2013,
 volume =  184,
 pages =   {2785--2793},
 doi =     {10.1016/j.cpc.2013.08.002},
}

@Article{Trung15,
 author = {T. D. Nguyen and S. J. Plimpton},
 title = {Accelerating Dissipative Particle Dynamics Simulations for Soft Matter Systems},
 journal = {Comput.\ Mater.\ Sci.},
 year =    2015,
 doi =     {10.1016/j.commatsci.2014.10.068},
 volume =  100,
 pages =   {173--180}
}

@Article{Trung17,
 author = {T. D. Nguyen},
 title = {{GPU}-Accelerated {T}ersoff Potentials for Massively Parallel
    Molecular Dynamics Simulations},
 journal = {Comput.\ Phys.\ Commun.},
 year =    2017,
 doi =     {10.1016/j.cpc.2016.10.020},
 volume =  212,
 pages =   {113--122}
}

@inproceedings{Nikolskiy19,
 author = {V. Nikolskiy and V. Stegailov},
 title = {{GPU} Acceleration of Four-Site Water Models in {LAMMPS}},
 booktitle = {Proceedings of the International Conference on Parallel
    Computing (ParCo 2019), Prague, Czech Republic},
 doi =     {10.3233/APC200086},
 year =    2019
}

CITE-CITE-CITE-CITE-CITE-CITE-CITE-CITE-CITE-CITE-CITE-CITE-CITE

Generated 1 of 1 mixed pair_coeff terms from arithmetic mixing rule
Per MPI rank memory allocation (min/avg/max) = 15.03 | 15.03 | 15.03 Mbytes
   Step          Time           Temp          Press         Enthalpy        TotEng         KinEng         PotEng         E_bond        E_angle        E_dihed        E_impro         E_vdwl         E_coul         E_long         E_tail         Volume           Lx             Ly             Lz          Density          Pxx            Pyy            Pzz      
         0   0              450            768.71448      7786.6578      6319.8962      6490.8629     -170.96676      1459.5162      1408.3707      2711.3368      0             -5750.1904      0              0             -190.5519       130833.38      50.76599       50.76599       50.76599       0.86216875     828.49221      797.65642      679.99481    
       500   1000           445.85187      640.09263      10253.065      8968.6003      6431.0297      2537.5706      2329.6239      2159.8984      3379.545       0             -5331.4966      0              0             -181.1876       137595.23      51.625919      51.625919      51.625919      0.81979918     1158.6636      414.91951      346.69481    
      1000   2000           452.98386      194.46978      9563.7117      9174.4354      6533.9026      2640.5329      2311.0686      2119.2136      3479.3469      0             -5269.0963      0              0             -181.63599      137255.56      51.583402      51.583402      51.583402      0.82182795     495.08957      458.68883     -370.36907    
      1500   3000           456.62044      70.277156      9336.3287      9195.3952      6586.357       2609.0382      2255.5373      2147.3652      3464.3069      0             -5258.1712      0              0             -181.30416      137506.77      51.614853      51.614853      51.614853      0.82032654    -946.4987       588.01016      569.32001    
      2000   4000           446.91958      431.77259      10034.227      9156.7359      6446.4306      2710.3053      2245.3737      2086.6062      3551.0272      0             -5172.7018      0              0             -178.90402      139351.53      51.844646      51.844646      51.844646      0.80946692     962.44285     -33.923724      366.79864    
      2500   5000           448.43082      888.85885      11059.648      9251.4843      6468.2289      2783.2554      2309.614       2055.5839      3558.6861      0             -5140.6285      0              0             -178.73225      139485.46      51.86125       51.86125       51.86125       0.80868971     182.50331      1842.7719      641.30132    
      3000   6000           449.72962      495.15582      10382.233      9369.1705      6486.9629      2882.2076      2285.6321      2132.4008      3561.257       0             -5097.0823      0              0             -177.71065      140287.31      51.960437      51.960437      51.960437      0.80406742     968.57241     -48.890386      565.78543    
      3500   7000           438.96529     -228.18917      8896.792       9367.8741      6331.6968      3036.1773      2332.6175      2111.3864      3646.4251      0             -5054.2517      0              0             -176.11896      141555.17      52.116501      52.116501      52.116501      0.79686566    -677.85252     -275.71448      268.99948    
      4000   8000           453.99513      647.10096      10903.495      9571.1764      6548.4892      3022.6872      2273.4013      2103.8877      3701.0984      0             -5055.7001      0              0             -176.59233      141175.72      52.069891      52.069891      52.069891      0.79900747     542.66824      921.58744      477.0472     
      4500   9000           447.16046     -191.98952      9194.8023      9596.2818      6449.905       3146.3768      2294.6861      2120.9289      3722.8829      0             -4992.121       0              0             -173.8689       143387.06      52.340353      52.340353      52.340353      0.78668506    -271.72542      6.3996432     -310.64279    
      5000   10000          446.3388       39.450001      9589.6848      9507.8084      6438.0533      3069.7551      2219.0348      2181.3403      3696.0103      0             -5026.6303      0              0             -175.18467      142310.11      52.208985      52.208985      52.208985      0.79263837     150.05796     -58.440139      26.732181    
      5500   11000          454.38643     -131.01765      9322.6657      9593.5977      6554.1334      3039.4643      2222.6476      2189.9266      3647.9508      0             -5021.0607      0              0             -175.82367      141792.9       52.14566       52.14566       52.14566       0.79552962     261.21271     -737.15916      82.893504    
      6000   12000          447.93449     -317.12926      8784.3328      9445.0205      6461.0698      2983.9507      2233.1293      2078.4624      3675.8737      0             -5003.5148      0              0             -174.52107      142851.23      52.275075      52.275075      52.275075      0.78963586    -321.2018      -597.52246     -32.66353     
      6500   13000          455.21616      186.01371      10056.179      9672.8736      6566.1015      3106.772       2278.3922      2152.0313      3765.2686      0             -5088.9201      0              0             -176.44417      141294.27      52.084462      52.084462      52.084462      0.79833709    -125.39736      410.17355      273.26493    
      7000   14000          448.60917      306.47981      10332.153      9693.2904      6470.8014      3222.489       2342.3329      2135.7844      3745.2871      0             -5000.9155      0              0             -174.42221      142932.19      52.284949      52.284949      52.284949      0.78918859     556.62007     -584.138        946.95736    
      7500   15000          446.81751      685.63304      11052.614      9635.4625      6444.9582      3190.5043      2296.6228      2100.6464      3829.2093      0             -5035.9742      0              0             -175.90707      141725.68      52.137418      52.137418      52.137418      0.79590695     478.22731      660.87674      917.79506    
      8000   16000          449.00253      267.57487      10274.352      9721.2673      6476.4752      3244.792       2203.7766      2251.6572      3831.2862      0             -5041.9281      0              0             -175.89812      141732.9       52.138302      52.138302      52.138302      0.79586644     88.723191     -328.47111      1042.4725    
      8500   17000          445.03243      518.8384       10643.591      9568.4256      6419.21        3149.2156      2273.392       2097.2644      3802.0807      0             -5023.5215      0              0             -175.45444      142091.3       52.182213      52.182213      52.182213      0.79385901     1139.6655      489.61532     -72.765598    
      9000   18000          454.81613     -69.253392      9682.1898      9825.7103      6560.3314      3265.3789      2301.2047      2142.1938      3825.5836      0             -5003.6033      0              0             -175.44257      142100.91      52.18339       52.18339       52.18339       0.7938053     -833.0563       362.52661      262.76951    
      9500   19000          445.5951      -853.45575      7866.1017      9644.1035      6427.326       3216.7775      2248.2075      2142.1893      3777.1667      0             -4950.786       0              0             -174.52456      142848.37      52.274726      52.274726      52.274726      0.78965167    -515.02131     -865.40015     -1179.9458    
     10000   20000          447.55488     -667.94375      8357.6442      9749.5411      6455.5942      3293.9469      2274.9158      2146.6132      3845.9978      0             -4973.58        0              0             -174.47794      142886.54      52.279381      52.279381      52.279381      0.78944074    -483.66055     -596.38852     -923.78218    
     10500   21000          451.50798      20.906515      9902.1987      9858.3375      6512.6142      3345.7232      2313.9982      2208.8923      3760.1018      0             -4937.2691      0              0             -173.30387      143854.54      52.397174      52.397174      52.397174      0.78412855    -28.245549     -64.781814      155.74691    
     11000   22000          450.79813     -369.12586      8860.6457      9628.6742      6502.3753      3126.299       2231.4432      2115.0259      3774.507       0             -4994.6771      0              0             -174.74503      142668.14      52.252732      52.252732      52.252732      0.79064921    -113.6469      -504.36329     -489.36738    
     11500   23000          453.8086      -269.12031      9293.8304      9860.5682      6545.7987      3314.7695      2222.8491      2131.4932      3859.9437      0             -4899.5165      0              0             -172.65216      144397.55      52.463019      52.463019      52.463019      0.78117984    -194.52109     -537.27202     -75.567832    
     12000   24000          449.1173       361.25807      10507.099      9746.4468      6478.1307      3268.3161      2270.9103      2133.5037      3821.8663      0             -4957.9642      0              0             -172.67881      144375.27      52.46032       52.46032       52.46032       0.78130041     189.97434      37.333512      856.46637    
     12500   25000          452.76258      56.969629      10066.156      9946.7038      6530.7108      3415.9929      2299.6758      2167.5868      3860.85        0             -4912.1196      0              0             -173.4026       143772.64      52.387227      52.387227      52.387227      0.78457528    -157.40428      108.93462      219.37854    
     13000   26000          445.85047     -503.30521      8622.631       9688.5031      6431.0095      3257.4937      2224.5658      2138.9381      3832.2698      0             -4938.28        0              0             -171.68567      145210.43      52.56128       52.56128       52.56128       0.77680686    -1675.3626     -323.84023      489.28715    
     13500   27000          452.49789     -226.11823      9402.2684      9874.8468      6526.8928      3347.954       2278.0649      2236.2983      3826.9363      0             -4993.3454      0              0             -173.96803      143305.35      52.33041       52.33041       52.33041       0.78713358    -764.26739      139.40778     -53.495095    
     14000   28000          446.73205     -677.21769      8285.1726      9709.3035      6443.7255      3265.578       2266.907       2113.8725      3837.9073      0             -4953.1087      0              0             -172.89647      144193.52      52.438297      52.438297      52.438297      0.78228521    -329.87887     -879.64754     -822.12665    
     14500   29000          449.36851     -250.89232      9327.3727      9857.083       6481.7542      3375.3288      2249.3608      2218.7632      3825.4364      0             -4918.2316      0              0             -172.20936      144768.85      52.507947      52.507947      52.507947      0.77917631    -54.453543     -194.29456     -503.92886    
     15000   30000          455.6317       832.36503      11776.965      10039.064      6572.0953      3466.9686      2287.3356      2212.785       3937.5385      0             -4970.6905      0              0             -174.13914      143164.54      52.313264      52.313264      52.313264      0.7879078      1082.3519      845.83714      568.90606    
     15500   31000          454.98051     -65.445558      9604.2264      9742.3814      6562.7026      3179.6788      2204.789       2101.9768      3764.8734      0             -4891.9604      0              0             -172.23498      144747.3       52.505342      52.505342      52.505342      0.77929227     259.23776     -167.3745      -288.19993    
     15625   31250          458.14205     -725.33732      8351.2103      9891.9286      6608.305       3283.6236      2261.0951      2107.1224      3822.5027      0             -4907.0966      0              0             -171.16877      145648.94      52.614136      52.614136      52.614136      0.77446808    -768.77166     -698.11526     -709.12505    
Loop time of 15.9207 on 1 procs for 15625 steps with 4840 atoms

Performance: 169.590 ns/day, 0.142 hours/ns, 981.426 timesteps/s, 4.750 Matom-step/s
99.7% CPU use with 1 MPI tasks x 1 OpenMP threads

MPI task timing breakdown:
Section |  min time  |  avg time  |  max time  |%varavg| %total
---------------------------------------------------------------
Pair    | 1.8603     | 1.8603     | 1.8603     |   0.0 | 11.68
Bond    | 11.062     | 11.062     | 11.062     |   0.0 | 69.48
Neigh   | 0.0053521  | 0.0053521  | 0.0053521  |   0.0 |  0.03
Comm    | 1.1041     | 1.1041     | 1.1041     |   0.0 |  6.93
Output  | 0.0029816  | 0.0029816  | 0.0029816  |   0.0 |  0.02
Modify  | 1.4674     | 1.4674     | 1.4674     |   0.0 |  9.22
Other   |            | 0.4192     |            |       |  2.63

Nlocal:           4840 ave        4840 max        4840 min
Histogram: 1 0 0 0 0 0 0 0 0 0
Nghost:          15207 ave       15207 max       15207 min
Histogram: 1 0 0 0 0 0 0 0 0 0
Neighs:              0 ave           0 max           0 min
Histogram: 1 0 0 0 0 0 0 0 0 0

Total # of neighbors = 0
Ave neighs/atom = 0
Ave special neighs/atom = 5.9504132
Neighbor list builds = 547
Dangerous builds = 0
  unfix npt_tg
  shell echo '{"stage":"T${temps}","status":"done"}' >> /home/arz2/PolyJarvis/data/PE2/lammps/thermal/tg_sweep_r640/tg_progress.jsonl
  print "STAGE COMPLETE: Tg step T=${temps}K P=1.0atm steps=15625"
STAGE COMPLETE: Tg step T=450K P=1.0atm steps=15625
  next temps
  jump SELF TEMP_LOOP
  timestep 2.0
  fix npt_tg all npt temp ${temps} ${temps} 100.0 iso 1.0 1.0 1000.0
  fix npt_tg all npt temp 430 ${temps} 100.0 iso 1.0 1.0 1000.0
  fix npt_tg all npt temp 430 430 100.0 iso 1.0 1.0 1000.0
  run 15625
Generated 1 of 1 mixed pair_coeff terms from arithmetic mixing rule
Per MPI rank memory allocation (min/avg/max) = 15.03 | 15.03 | 15.03 Mbytes
   Step          Time           Temp          Press         Enthalpy        TotEng         KinEng         PotEng         E_bond        E_angle        E_dihed        E_impro         E_vdwl         E_coul         E_long         E_tail         Volume           Lx             Ly             Lz          Density          Pxx            Pyy            Pzz      
     15625   31250          458.14205     -725.33732      8351.2103      9891.9286      6608.305       3283.6236      2261.0951      2107.1224      3822.5027      0             -4907.0966      0              0             -171.16877      145648.94      52.614136      52.614136      52.614136      0.77446808    -768.77165     -698.11526     -709.12504    
     16000   32000          435.76137      141.70219      9522.5329      9226.9177      6285.483       2941.4348      2153.9246      2095.8198      3659.1772      0             -4967.4868      0              0             -174.28401      143045.53      52.298765      52.298765      52.298765      0.78856328     445.29366     -603.6837       583.49661    
     16500   33000          424.88948      200.15542      9498.6559      9080.5394      6128.6652      2951.8742      2105.1387      2108.4757      3692.8077      0             -4954.548       0              0             -174.05149      143236.63      52.322044      52.322044      52.322044      0.78751121     5.3420627      316.99268      278.13152    
     17000   34000          428.81491     -324.96288      8384.0715      9062.1958      6185.2863      2876.9095      2221.9512      1980.9835      3679.9739      0             -5005.9991      0              0             -174.23372      143086.82      52.303796      52.303796      52.303796      0.78833575    -154.76562     -151.84866     -668.27437    
     17500   35000          423.68935      705.70527      10493.027      9035.431       6111.3545      2924.0765      2151.3409      2077.6973      3718.0805      0             -5023.0421      0              0             -176.03291      141624.37      52.124991      52.124991      52.124991      0.79647632     662.92236      583.71835      870.47511    
     18000   36000          441.06804     -490.60795      8361.8692      9392.7834      6362.0271      3030.7563      2160.124       2063.53        3788.6786      0             -4981.5762      0              0             -173.02935      144082.78      52.424869      52.424869      52.424869      0.78288646    -298.8402      -269.64368     -903.33997    
     18500   37000          430.22321     -510.9149       8057.6621      9128.4826      6205.5997      2922.8829      2149.9828      2060.363       3682.5649      0             -4970.0278      0              0             -173.47608      143711.74      52.379829      52.379829      52.379829      0.78490774    -413.73484     -716.50889     -402.50099    
     19000   38000          451.29575     -607.04482      8136.9893      9397.5378      6509.553       2887.9847      2093.5219      2029.2559      3789.4163      0             -5024.2093      0              0             -175.09306      142384.57      52.218089      52.218089      52.218089      0.79222388    -661.76895     -812.48478     -346.88071    
     19500   39000          429.55664      21.167612      9170.8479      9126.5704      6195.985       2930.5854      2142.1039      2040.9129      3747.2488      0             -4999.6802      0              0             -173.81875      143428.43      52.345387      52.345387      52.345387      0.78645814     645.17172     -341.85045     -239.81843    
     20000   40000          432.22357     -368.37305      8351.3004      9117.873       6234.4533      2883.4198      2138.4874      2045.398       3721.8438      0             -5022.3095      0              0             -174.71987      142688.69      52.255241      52.255241      52.255241      0.79053536    -705.65672     -106.84103     -292.62141    
     20500   41000          434.18847     -174.70332      8964.9129      9328.821       6262.7952      3066.0258      2136.1647      2180.9222      3730.5647      0             -4981.6258      0              0             -174.54891      142828.45      52.272295      52.272295      52.272295      0.78976183     391.72503     -804.07169     -111.76331    
     21000   42000          422.1295      -227.49558      8578.3256      9052.2601      6088.8549      2963.4051      2173.2759      2003.17        3744.8507      0             -4957.8914      0              0             -174.52689      142846.47      52.274494      52.274494      52.274494      0.78966219     634.08611     -731.9141      -584.65873    
     21500   43000          435.03273     -227.69772      8857.0854      9332.6403      6274.973       3057.6673      2178.7116      2149.9145      3703.1422      0             -4974.101       0              0             -174.08675      143207.62      52.318511      52.318511      52.318511      0.78767076    -106.71426      88.927545     -665.30645    
     22000   44000          428.6182      -288.2218       8519.8716      9123.5835      6182.4488      2941.1346      2148.8374      2065.6936      3686.8626      0             -4960.259       0              0             -173.58206      143624         52.369167      52.369167      52.369167      0.78538725    -223.62983     -358.2247      -282.81087    
     22500   45000          430.51847     -435.9441       8236.7135      9147.5727      6209.8586      2937.7141      2141.2356      2068.8596      3702.6136      0             -4974.9948      0              0             -174.01525      143266.47      52.325676      52.325676      52.325676      0.78734724    -155.30425     -874.82564     -277.70239    
     23000   46000          424.61046      235.47326      9540.8095      9047.337       6124.6407      2922.6963      2120.5598      2072.7338      3703.891       0             -4974.4883      0              0             -173.49477      143696.26      52.377949      52.377949      52.377949      0.78499228     146.49024      915.02495     -355.09542    
     23500   47000          430.38302     -678.63915      7813.9237      9228.9406      6207.9049      3021.0357      2107.4265      2088.3425      3799.8288      0             -4974.562       0              0             -174.37532      142970.63      52.289635      52.289635      52.289635      0.78897641    -1176.1374     -264.36532     -595.41478    
     24000   48000          434.97839      268.86436      9600.5139      9043.6397      6274.1891      2769.4506      2109.9818      2032.2904      3657.0191      0             -5029.8407      0              0             -175.54314      142019.5       52.173423      52.173423      52.173423      0.79426032    -220.86183      439.36942      588.08548    
     24500   49000          437.44749      553.26011      10402.205      9253.9834      6309.8037      2944.1796      2145.4633      2060.0026      3748.8039      0             -5010.0901      0              0             -175.1909       142305.05      52.208367      52.208367      52.208367      0.79266655    -219.96814      1322.0398      557.70862    
     25000   50000          429.0074      -368.76045      8352.5809      9124.4328      6188.0628      2936.37        2056.7507      2090.8832      3780.6173      0             -4991.8812      0              0             -173.70732      143520.43      52.356577      52.356577      52.356577      0.785954      -125.46248     -956.22102     -24.597848    
     25500   51000          421.50539     -305.77435      8373.2487      9004.7712      6079.8527      2924.9185      2097.1237      2076.426       3766.0195      0             -5014.6506      0              0             -176.04349      141615.86      52.123947      52.123947      52.123947      0.79652418    -704.71177     -621.48571      408.87444    
     26000   52000          422.78811     -185.45546      8622.5408      9009.612       6098.3548      2911.2572      2092.1175      2035.0517      3799.3773      0             -5015.2892      0              0             -174.20333      143111.78      52.306838      52.306838      52.306838      0.78819824     309.47208     -771.98823     -93.850231    
     26500   53000          434.80958     -318.33822      8615.8349      9286.39        6271.7542      3014.6357      2179.9153      2009.1351      3732.6163      0             -4907.031       0              0             -172.60846      144434.11      52.467446      52.467446      52.467446      0.78098209    -870.60448      203.2573      -287.66749    
     27000   54000          432.30328      491.31408      10115.839      9094.3404      6235.603       2858.7374      2108.6699      2061.6523      3695.7175      0             -5007.3022      0              0             -174.87566      142561.58      52.239719      52.239719      52.239719      0.79124023     789.57453      1009.6652     -325.29752    
     27500   55000          422.82988     -1057.5035      6841.9625      9039.9329      6098.9573      2940.9755      2068.0664      2087.8526      3796.7566      0             -5011.7001      0              0             -174.93138      142516.17      52.234172      52.234172      52.234172      0.79149234    -945.00803     -1145.9368     -1081.5656    
     28000   56000          437.39882     -184.13172      8754.2966      9139.7476      6309.1018      2830.6458      2084.3519      2044.6786      3668.4209      0             -4966.8055      0              0             -173.68696      143537.25      52.358622      52.358622      52.358622      0.78586187     20.96808      -245.19456     -328.16868    
     28500   57000          433.94621      134.79189      9496.7227      9215.5315      6259.3008      2956.2307      2150.9848      2082.2647      3713.5961      0             -4990.6149      0              0             -174.28895      143041.48      52.298271      52.298271      52.298271      0.78858562    -473.35696      473.53585      404.19677    
     29000   58000          430.18307     -186.82756      8755.6711      9146.4335      6205.0208      2941.4128      2097.0111      2105.4131      3717.6041      0             -4978.6155      0              0             -173.83444      143415.48      52.343812      52.343812      52.343812      0.78652913    -319.53043     -243.72272      2.7704873    
     29500   59000          419.14052      85.555675      8888.5551      8709.7406      6045.7415      2663.9991      2006.439       2021.9394      3671.1876      0             -5035.5668      0              0             -173.96184      143310.45      52.331031      52.331031      52.331031      0.78710556     245.58517     -203.8445       214.92635    
     30000   60000          434.95209     -617.81474      7938.7416      9228.2113      6273.8097      2954.4016      2085.8629      2076.5407      3775.4105      0             -4983.4125      0              0             -174.20269      143112.31      52.306902      52.306902      52.306902      0.78819532    -315.49674     -763.10847     -774.839      
     30500   61000          428.46875     -359.02304      8293.4379      9042.0798      6180.2932      2861.7867      2066.6106      2098.2961      3723.6015      0             -5026.7216      0              0             -174.36363      142980.22      52.290804      52.290804      52.290804      0.78892351    -142.14135     -580.49145     -354.43632    
     31000   62000          430.14757      221.52593      9647.3517      9181.9679      6204.5088      2977.4592      2125.7092      2063.5593      3726.0285      0             -4937.8379      0              0             -173.0697       144049.19      52.420795      52.420795      52.420795      0.78306902     578.21038     -159.17174      245.53913    
     31250   62500          429.54222      64.563715      9195.6425      9061.5425      6195.777       2865.7655      2067.1707      2040.8417      3766.235       0             -5008.4819      0              0             -175.05214      142417.85      52.222158      52.222158      52.222158      0.79203872    -263.2096       361.04838      95.852364    
Loop time of 15.8499 on 1 procs for 15625 steps with 4840 atoms

Performance: 170.348 ns/day, 0.141 hours/ns, 985.810 timesteps/s, 4.771 Matom-step/s
99.3% CPU use with 1 MPI tasks x 1 OpenMP threads

MPI task timing breakdown:
Section |  min time  |  avg time  |  max time  |%varavg| %total
---------------------------------------------------------------
Pair    | 1.8366     | 1.8366     | 1.8366     |   0.0 | 11.59
Bond    | 11.01      | 11.01      | 11.01      |   0.0 | 69.46
Neigh   | 0.0053521  | 0.0053521  | 0.0053521  |   0.0 |  0.03
Comm    | 1.1089     | 1.1089     | 1.1089     |   0.0 |  7.00
Output  | 0.0029543  | 0.0029543  | 0.0029543  |   0.0 |  0.02
Modify  | 1.4661     | 1.4661     | 1.4661     |   0.0 |  9.25
Other   |            | 0.4201     |            |       |  2.65

Nlocal:           4840 ave        4840 max        4840 min
Histogram: 1 0 0 0 0 0 0 0 0 0
Nghost:          15366 ave       15366 max       15366 min
Histogram: 1 0 0 0 0 0 0 0 0 0
Neighs:              0 ave           0 max           0 min
Histogram: 1 0 0 0 0 0 0 0 0 0

Total # of neighbors = 0
Ave neighs/atom = 0
Ave special neighs/atom = 5.9504132
Neighbor list builds = 537
Dangerous builds = 0
  unfix npt_tg
  shell echo '{"stage":"T${temps}","status":"done"}' >> /home/arz2/PolyJarvis/data/PE2/lammps/thermal/tg_sweep_r640/tg_progress.jsonl
  print "STAGE COMPLETE: Tg step T=${temps}K P=1.0atm steps=15625"
STAGE COMPLETE: Tg step T=430K P=1.0atm steps=15625
  next temps
  jump SELF TEMP_LOOP
  timestep 2.0
  fix npt_tg all npt temp ${temps} ${temps} 100.0 iso 1.0 1.0 1000.0
  fix npt_tg all npt temp 410 ${temps} 100.0 iso 1.0 1.0 1000.0
  fix npt_tg all npt temp 410 410 100.0 iso 1.0 1.0 1000.0
  run 15625
Generated 1 of 1 mixed pair_coeff terms from arithmetic mixing rule
Per MPI rank memory allocation (min/avg/max) = 15.03 | 15.03 | 15.03 Mbytes
   Step          Time           Temp          Press         Enthalpy        TotEng         KinEng         PotEng         E_bond        E_angle        E_dihed        E_impro         E_vdwl         E_coul         E_long         E_tail         Volume           Lx             Ly             Lz          Density          Pxx            Pyy            Pzz      
     31250   62500          429.54222      64.563731      9195.6425      9061.5425      6195.777       2865.7655      2067.1707      2040.8417      3766.235       0             -5008.4819      0              0             -175.05214      142417.85      52.222158      52.222158      52.222158      0.79203872    -263.20959      361.0484       95.852379    
     31500   63000          400.78247      8.405455       8464.3988      8446.831       5780.9424      2665.8886      2025.2156      1948.001       3674.5101      0             -4981.8381      0              0             -173.96144      143310.78      52.33107       52.33107       52.33107       0.78710378    -66.984849      246.10899     -153.90777    
     32000   64000          405.69238     -283.02216      7865.7507      8455.6428      5851.7636      2603.8793      2013.5273      1896.8874      3692.9984      0             -4999.5338      0              0             -174.44381      142914.5       52.282791      52.282791      52.282791      0.7892863     -480.81583      253.32267     -621.57331    
     32500   65000          402.76237      640.32267      9670.5096      8348.7024      5809.5007      2539.2017      1982.2446      1989.6899      3656.8018      0             -5089.5347      0              0             -176.13209      141544.62      52.115205      52.115205      52.115205      0.79692508     1374.6823      198.45199      347.83368    
     33000   66000          409.76595     -771.02617      6863.2717      8477.1451      5910.5214      2566.6238      1969.8615      1924.437       3688.1121      0             -5015.7868      0              0             -173.70303      143523.97      52.357007      52.357007      52.357007      0.7859346     -1363.0651      277.52685     -1227.5403    
     33500   67000          402.28733     -114.44222      8173.186       8410.4969      5802.6487      2607.8482      2059.504       1972.2002      3619.7147      0             -5043.5707      0              0             -175.33815      142185.54      52.193748      52.193748      52.193748      0.7933328      54.391702     -392.41853     -5.2998501    
     34000   68000          411.53841      90.400696      8674.8464      8488.8727      5936.0876      2552.7851      2021.1157      1971.4407      3641.2326      0             -5081.0038      0              0             -176.7372       141060         52.055661      52.055661      52.055661      0.79966294    -460.03142      275.58822      455.64529    
     34500   69000          397.55135      157.61789      8468.787       8141.2433      5734.3363      2406.907       1962.4059      1953.4275      3543.1061      0             -5052.0325      0              0             -174.96209      142491.15      52.231115      52.231115      52.231115      0.79163131     39.142462      346.19908      87.512129    
     35000   70000          416.19531      141.99114      8774.2622      8480.2168      6003.2593      2476.9575      1952.389       1991.883       3581.22        0             -5048.5344      0              0             -175.57172      141996.38      52.170591      52.170591      52.170591      0.79438964     363.45515     -48.095052      110.61332    
     35500   71000          407.5305      -151.11092      8063.0522      8376.2927      5878.2769      2498.0158      2033.3709      1916.5976      3612.7121      0             -5064.6647      0              0             -175.39844      142136.67      52.187766      52.187766      52.187766      0.7936056     -232.9954      -57.85662      -162.48073    
     36000   72000          399.33595     -75.301996      8170.2394      8326.9043      5760.0775      2566.8268      1995.3695      1984.8466      3633.5693      0             -5046.9585      0              0             -174.76018      142655.78      52.251223      52.251223      52.251223      0.79071773    -147.96394     -293.92359      215.98153    
     36500   73000          409.60256     -351.39556      7685.015       8408.6107      5908.1646      2500.4461      2006.2712      1923.9308      3637.8807      0             -5067.6367      0              0             -176.56639      141196.46      52.072441      52.072441      52.072441      0.79889011     312.73987     -565.0896      -801.83694    
     37000   74000          405.90464     -364.55411      7548.9343      8307.7137      5854.8253      2452.8883      1955.2951      1955.4181      3590.9799      0             -5048.8048      0              0             -174.68443      142717.64      52.258774      52.258774      52.258774      0.79037503     58.739367     -774.69975     -377.70195    
     37500   75000          409.33886     -691.52669      7055.2524      8478.2519      5904.3609      2573.891       2013.4855      1982.6785      3668.5587      0             -5090.8316      0              0             -176.68998      141097.7       52.060297      52.060297      52.060297      0.79944931    -982.23806     -1082.0679     -10.274154    
     38000   76000          412.25387     -235.32277      7939.0458      8425.8192      5946.4074      2479.4118      2018.1745      1941.9695      3613.6342      0             -5094.3664      0              0             -175.77002      141836.19      52.150965      52.150965      52.150965      0.79528687    -281.70812      24.29599      -448.55618    
     38500   77000          405.76756     -550.8399       7226.9357      8357.1128      5852.8481      2504.2647      1997.9481      2018.0195      3603.5935      0             -5115.2963      0              0             -177.20936      140684.16      52.009387      52.009387      52.009387      0.80179925    -221.85522     -224.30642     -1206.3581    
     39000   78000          409.60768      459.13346      9448.7907      8497.619       5908.2385      2589.3805      2009.7022      2033.9527      3605.3881      0             -5059.6625      0              0             -175.50431      142050.93      52.17727       52.17727       52.17727       0.79408462     494.11994      299.81012      583.4703     
     39500   79000          426.55191      220.20408      9130.2859      8677.0825      6152.6444      2524.4381      1993.6268      1952.8341      3686.5007      0             -5108.5235      0              0             -176.6607       141121.09      52.063174      52.063174      52.063174      0.7993168      9.5115454      433.14571      217.95498    
     40000   80000          413.7108       238.39326      8934.1961      8444.3079      5967.4224      2476.8855      2021.9741      1950.3844      3626.8341      0             -5122.3071      0              0             -176.93135      140905.21      52.036613      52.036613      52.036613      0.80054139     568.69107      396.69068     -250.20197    
     40500   81000          412.03463     -62.545161      8256.7228      8385.9325      5943.2451      2442.6874      2002.1945      1938.0502      3553.126       0             -5050.6832      0              0             -175.99744      141652.91      52.128493      52.128493      52.128493      0.79631582     46.961796      210.39819     -444.99547    
     41000   82000          406.74268     -214.59128      8044.9719      8488.9033      5866.9133      2621.9901      2016.2057      2004.1018      3671.094       0             -5069.4115      0              0             -175.75347      141849.55      52.152602      52.152602      52.152602      0.79521196    -510.77225     -603.67335      470.67175    
     41500   83000          414.54195     -393.4923       7633.695       8446.9627      5979.411       2467.5516      2013.7589      1939.673       3583.7875      0             -5069.6677      0              0             -175.91807      141716.82      52.136331      52.136331      52.136331      0.79595673    -190.26176     -443.44696     -546.76818    
     42000   84000          407.31497     -86.945657      8198.7753      8378.305       5875.1681      2503.1369      2021.4367      2000.4238      3570.0639      0             -5088.7874      0              0             -176.08371      141583.51      52.119978      52.119978      52.119978      0.79670619    -456.50993      552.92553     -357.25257    
     42500   85000          410.81093     -224.30738      8002.5309      8462.3202      5925.5943      2536.7259      2051.5213      1940.5537      3646.8269      0             -5102.176       0              0             -177.37503      140552.76      51.993189      51.993189      51.993189      0.80254887    -226.15141      7.0675743     -453.83829    
     43000   86000          415.83802     -571.69047      7344.2567      8509.9843      5998.1058      2511.8785      2031.1999      1988.1479      3640.9049      0             -5148.3742      0              0             -178.30832      139817.08      51.902317      51.902317      51.902317      0.80677162    -1085.7232     -650.20795      20.859751    
     43500   87000          405.82727     -158.06969      8178.4976      8500.4499      5853.7093      2646.7406      2051.0727      2026.3432      3694.7494      0             -5125.4248      0              0             -178.51096      139658.37      51.88267       51.88267       51.88267       0.80768849     746.23828     -151.77742     -1068.6699    
     44000   88000          407.33589      653.13122      9843.9171      8505.4585      5875.4698      2629.9887      2081.1749      2016.8197      3654.6319      0             -5122.6378      0              0             -177.42027      140516.92      51.98877       51.98877       51.98877       0.80275355     1243.8163      381.98051      333.59682    
     44500   89000          409.5843       109.43984      8667.3057      8440.6892      5907.9012      2532.788       1965.1135      1982.0366      3637.1165      0             -5051.4786      0              0             -175.5867       141984.27      52.169108      52.169108      52.169108      0.79445741     99.910959      4.0296838      224.37888    
     45000   90000          416.98868     -387.27869      7706.3837      8505.9415      6014.703       2491.2386      1984.3529      1965.7636      3612.9128      0             -5071.7908      0              0             -176.10897      141563.2       52.117486      52.117486      52.117486      0.79682047    -307.73342     -464.54659     -389.55607    
     45500   91000          408.37605     -510.22713      7331.7153      8391.0671      5890.4732      2500.5939      2023.2374      1948.1701      3574.4254      0             -5045.239       0              0             -175.11811      142364.2       52.215599      52.215599      52.215599      0.79233724    -208.95327     -442.10363     -879.62449    
     46000   92000          406.69262     -1179.3369      5857.2229      8279.9223      5866.1912      2413.7311      1982.8877      1967.9586      3555.2633      0             -5092.3785      0              0             -176.98893      140859.37      52.030969      52.030969      52.030969      0.80080193    -1237.7778     -1075.2405     -1224.9925    
     46500   93000          411.61374     -194.5905       8087.5005      8485.917       5937.1742      2548.7428      2025.1126      2052.7325      3597.0401      0             -5126.1424      0              0             -177.5792       140391.16      51.973256      51.973256      51.973256      0.80347263    -781.42811      284.02032     -86.363703    
     46875   93750          412.91209      50.49705       8421.4624      8317.9497      5955.9017      2362.048       1957.4896      1919.8806      3586.2418      0             -5101.564       0              0             -177.36993      140556.8       51.993687      51.993687      51.993687      0.80252579    -264.40923      200.42383      215.47655    
Loop time of 15.5295 on 1 procs for 15625 steps with 4840 atoms

Performance: 173.863 ns/day, 0.138 hours/ns, 1006.150 timesteps/s, 4.870 Matom-step/s
99.4% CPU use with 1 MPI tasks x 1 OpenMP threads

MPI task timing breakdown:
Section |  min time  |  avg time  |  max time  |%varavg| %total
---------------------------------------------------------------
Pair    | 1.7803     | 1.7803     | 1.7803     |   0.0 | 11.46
Bond    | 10.804     | 10.804     | 10.804     |   0.0 | 69.57
Neigh   | 0.0050811  | 0.0050811  | 0.0050811  |   0.0 |  0.03
Comm    | 1.0867     | 1.0867     | 1.0867     |   0.0 |  7.00
Output  | 0.0028927  | 0.0028927  | 0.0028927  |   0.0 |  0.02
Modify  | 1.436      | 1.436      | 1.436      |   0.0 |  9.25
Other   |            | 0.4149     |            |       |  2.67

Nlocal:           4840 ave        4840 max        4840 min
Histogram: 1 0 0 0 0 0 0 0 0 0
Nghost:          15531 ave       15531 max       15531 min
Histogram: 1 0 0 0 0 0 0 0 0 0
Neighs:              0 ave           0 max           0 min
Histogram: 1 0 0 0 0 0 0 0 0 0

Total # of neighbors = 0
Ave neighs/atom = 0
Ave special neighs/atom = 5.9504132
Neighbor list builds = 517
Dangerous builds = 0
  unfix npt_tg
  shell echo '{"stage":"T${temps}","status":"done"}' >> /home/arz2/PolyJarvis/data/PE2/lammps/thermal/tg_sweep_r640/tg_progress.jsonl
  print "STAGE COMPLETE: Tg step T=${temps}K P=1.0atm steps=15625"
STAGE COMPLETE: Tg step T=410K P=1.0atm steps=15625
  next temps
  jump SELF TEMP_LOOP
  timestep 2.0
  fix npt_tg all npt temp ${temps} ${temps} 100.0 iso 1.0 1.0 1000.0
  fix npt_tg all npt temp 390 ${temps} 100.0 iso 1.0 1.0 1000.0
  fix npt_tg all npt temp 390 390 100.0 iso 1.0 1.0 1000.0
  run 15625
Generated 1 of 1 mixed pair_coeff terms from arithmetic mixing rule
Per MPI rank memory allocation (min/avg/max) = 15.03 | 15.03 | 15.03 Mbytes
   Step          Time           Temp          Press         Enthalpy        TotEng         KinEng         PotEng         E_bond        E_angle        E_dihed        E_impro         E_vdwl         E_coul         E_long         E_tail         Volume           Lx             Ly             Lz          Density          Pxx            Pyy            Pzz      
     46875   93750          412.91209      50.497044      8421.4624      8317.9497      5955.9017      2362.048       1957.4896      1919.8806      3586.2418      0             -5101.564       0              0             -177.36993      140556.8       51.993687      51.993687      51.993687      0.80252579    -264.40924      200.42382      215.47655    
     47000   94000          392.19862      61.187965      7988.931       7862.8408      5657.1277      2205.713       1884.1577      1899.7257      3562.0722      0             -5140.2426      0              0             -176.43813      141299.11      52.085056      52.085056      52.085056      0.79830976     375.18288      252.69699     -444.31597    
     47500   95000          397.66787     -53.131308      7649.0086      7757.9213      5736.017       2021.9043      1846.5595      1864.4745      3474.8565      0             -5163.9861      0              0             -177.36973      140556.96      51.993707      51.993707      51.993707      0.80252487    -466.34507      267.8429       39.108241    
     48000   96000          385.97081     -689.94325      6346.3799      7750.4483      5567.2969      2183.1513      1908.0314      1927.0452      3498.5833      0             -5150.5086      0              0             -178.66227      139540.09      51.86802       51.86802       51.86802       0.8083731     -986.06285     -578.46205     -505.30485    
     48500   97000          391.99806      143.75169      7949.9026      7654.3881      5654.2349      2000.1532      1854.8551      1847.3903      3409.1072      0             -5111.1994      0              0             -176.86499      140958.08      52.04312       52.04312       52.04312       0.80024113     337.76591      235.11117     -141.62201    
     49000   98000          389.38465      361.33347      8504.3362      7764.6098      5616.5386      2148.0712      1897.893       1938.0477      3418.1487      0             -5106.0182      0              0             -177.60074      140374.13      51.971154      51.971154      51.971154      0.80357009     481.37536      260.16541      342.45963    
     49500   99000          384.44565     -385.37291      6788.6025      7570.5055      5545.2977      2025.2077      1906.3078      1829.4365      3469.4145      0             -5179.9511      0              0             -179.19919      139122         51.816165      51.816165      51.816165      0.81080245    -555.1128      -543.13239     -57.873545    
     50000   100000         386.2934       230.71769      8078.9702      7608.5358      5571.95        2036.5858      1871.2487      1867.2551      3455.1981      0             -5157.116       0              0             -178.3157       139811.3       51.901601      51.901601      51.901601      0.80680502    -48.205704      289.81185      450.54693    
     50500   101000         390.94376      203.52179      8220.3341      7802.7458      5639.0275      2163.7184      1903.2701      1889.8935      3503.69        0             -5133.1353      0              0             -177.20272      140689.43      52.010036      52.010036      52.010036      0.80176922     638.39417     -51.076969      23.24817     
     51000   102000         389.88463     -601.19564      6301.8133      7524.2304      5623.7504      1900.48        1820.4614      1884.0868      3402.7094      0             -5206.7777      0              0             -178.81508      139420.85      51.853241      51.853241      51.853241      0.80906448    -257.14783     -908.18447     -638.25462    
     51500   103000         389.25143     -115.82968      7484.5061      7719.8608      5614.617       2105.2437      1897.1431      1966.8438      3412.6155      0             -5171.3588      0              0             -178.93894      139324.34      51.841274      51.841274      51.841274      0.8096249     -133.32546     -140.23023     -73.933352    
     52000   104000         394.30579     -140.16909      7402.9729      7688.8293      5687.5218      2001.3074      1825.6982      1916.1844      3445.579       0             -5186.1541      0              0             -178.28387      139836.26      51.90469       51.90469       51.90469       0.80666099    -65.520282     -279.64883     -75.338146    
     52500   105000         393.4647       366.40797      8427.06        7674.1474      5675.3898      1998.7576      1869.2097      1887.3784      3383.9921      0             -5141.8226      0              0             -176.94084      140897.65      52.035682      52.035682      52.035682      0.80058434     880.48435      200.14486      18.594705    
     53000   106000         394.04012     -393.40784      7011.4847      7819.4947      5683.6897      2135.805       1867.9366      1871.8876      3540.9247      0             -5144.944       0              0             -177.02475      140830.87      52.02746       52.02746       52.02746       0.80096399    -1002.861      -666.14604      488.7835     
     53500   107000         380.13321     -300.80483      7162.8133      7788.1044      5483.0946      2305.0098      1900.7424      1920.5282      3576.0088      0             -5092.2695      0              0             -174.90824      142535.02      52.236475      52.236475      52.236475      0.79138766    -205.28097     -327.08566     -370.04786    
     54000   108000         386.22896     -161.70821      7381.9579      7714.7         5571.0205      2143.6794      1815.6929      1912.9623      3538.6999      0             -5123.6756      0              0             -176.6982       141091.14      52.05949       52.05949       52.05949       0.79948648    -595.06268     -1.5954932      111.53356    
     54500   109000         385.1763       379.65085      8447.674       7672.4994      5555.8368      2116.6626      1876.1748      1979.318       3417.3702      0             -5156.2005      0              0             -178.07073      140003.63      51.92539       51.92539       51.92539       0.80569662     907.0065       34.872719      197.07333    
     55000   110000         388.28548      474.09249      8583.7233      7609.3077      5600.6841      2008.6237      1820.5458      1855.4901      3460.8819      0             -5128.2941      0              0             -176.89949      140930.59      52.039736      52.039736      52.039736      0.80039725     394.9567       1073.7812     -46.460383    
     55500   111000         386.65437      433.59081      8648.1837      7766.7964      5577.1567      2189.6397      1876.3293      1927.6408      3587.7645      0             -5202.0949      0              0             -178.8632       139383.34      51.84859       51.84859       51.84859       0.80928221     595.68885      54.077004      651.00658    
     56000   112000         399.70782     -234.90361      7356.3917      7838.1733      5765.4414      2072.7319      1865.4894      1898.7933      3410.109       0             -5101.6598      0              0             -177.27489      140632.16      52.002978      52.002978      52.002978      0.80209575    -640.4032       121.47413     -185.78176    
     56500   113000         397.30193     -203.32134      7342.4858      7755.0004      5730.7386      2024.2618      1894.0195      1912.8278      3396.178       0             -5178.7635      0              0             -179.20551      139117.09      51.815556      51.815556      51.815556      0.81083102    -854.40343     -280.52992      524.96932    
     57000   114000         396.80337      780.23342      9336.2515      7744.1911      5723.5473      2020.6437      1862.6784      1848.9507      3500.1415      0             -5191.1268      0              0             -178.18565      139913.34      51.914225      51.914225      51.914225      0.80621659     915.67964      1938.2287     -513.2081     
     57500   115000         394.33949      421.39603      8761.3549      7899.5752      5688.0079      2211.5673      1887.2473      1874.4538      3563.9613      0             -5114.095       0              0             -177.78778      140226.45      51.952922      51.952922      51.952922      0.8044164      564.61122      45.561096      654.01579    
     58000   116000         392.92545      839.46386      9493.7641      7787.9908      5667.6116      2120.3792      1890.8945      1837.1968      3569.337       0             -5177.049       0              0             -178.93218      139329.6       51.841926      51.841926      51.841926      0.80959433     617.07408      1419.7599      481.55759    
     58500   117000         392.81421     -149.15304      7658.4847      7966.0076      5666.0071      2300.0005      1946.2681      1900.6525      3544.0547      0             -5090.9748      0              0             -176.34472      141373.95      52.094251      52.094251      52.094251      0.79788713    -768.44479     -247.59786      568.58352    
     59000   118000         394.03248     -167.62105      7541.8558      7885.3604      5683.5796      2201.7808      1896.6861      1925.7272      3529.1947      0             -5149.8272      0              0             -177.42045      140516.78      51.988752      51.988752      51.988752      0.80275437     129.18604     -433.75421     -198.29499    
     59500   119000         393.17461      12.218289      7785.0935      7760.0754      5671.2055      2088.8699      1913.261       1876.3166      3438.5243      0             -5139.232       0              0             -177.5679       140400.09      51.974357      51.974357      51.974357      0.80342153     53.659447     -81.742327      64.737747    
     60000   120000         386.26904     -412.1207       6799.3938      7641.7875      5571.5986      2070.1889      1872.7169      1918.473       3451.9919      0             -5172.993       0              0             -177.87588      140157         51.944344      51.944344      51.944344      0.80481499    -887.76665     -523.9842       175.38876    
     60500   121000         392.89521      226.01609      8248.0665      7786.9163      5667.1755      2119.7409      1909.1649      1903.6019      3453.6707      0             -5146.6966      0              0             -178.19876      139903.05      51.912952      51.912952      51.912952      0.80627591     527.63318      98.616672      51.798405    
     61000   122000         391.80688     -1105.211       5444.2116      7700.6519      5651.4773      2049.1747      1937.3197      1784.442       3491.9699      0             -5164.557       0              0             -178.08572      139991.85      51.923934      51.923934      51.923934      0.80576443    -902.59388     -1703.0428     -709.99635    
     61500   123000         394.78639      367.24345      8540.8605      7789.0532      5694.4542      2094.599       1862.4029      1855.6873      3485.2396      0             -5108.7307      0              0             -177.60503      140370.74      51.970735      51.970735      51.970735      0.80358953    -93.619109      137.89584      1057.4536    
     62000   124000         382.39303     -184.44016      7167.2506      7546.713       5515.6906      2031.0225      1820.1645      1844.9127      3462.9944      0             -5097.0491      0              0             -176.72356      141070.89      52.056999      52.056999      52.056999      0.79960124     197.38286     -354.39399     -396.30937    
     62500   125000         385.86968     -139.84724      7523.1671      7808.6496      5565.8382      2242.8114      1932.8478      1902.2135      3531.2519      0             -5123.5018      0              0             -178.10746      139974.76      51.92182       51.92182       51.92182       0.80586282    -421.45226     -125.86518      127.7757     
Loop time of 15.5207 on 1 procs for 15625 steps with 4840 atoms

Performance: 173.961 ns/day, 0.138 hours/ns, 1006.721 timesteps/s, 4.873 Matom-step/s
99.3% CPU use with 1 MPI tasks x 1 OpenMP threads

MPI task timing breakdown:
Section |  min time  |  avg time  |  max time  |%varavg| %total
---------------------------------------------------------------
Pair    | 1.7687     | 1.7687     | 1.7687     |   0.0 | 11.40
Bond    | 10.811     | 10.811     | 10.811     |   0.0 | 69.66
Neigh   | 0.0049749  | 0.0049749  | 0.0049749  |   0.0 |  0.03
Comm    | 1.0797     | 1.0797     | 1.0797     |   0.0 |  6.96
Output  | 0.0029221  | 0.0029221  | 0.0029221  |   0.0 |  0.02
Modify  | 1.4389     | 1.4389     | 1.4389     |   0.0 |  9.27
Other   |            | 0.414      |            |       |  2.67

Nlocal:           4840 ave        4840 max        4840 min
Histogram: 1 0 0 0 0 0 0 0 0 0
Nghost:          15577 ave       15577 max       15577 min
Histogram: 1 0 0 0 0 0 0 0 0 0
Neighs:              0 ave           0 max           0 min
Histogram: 1 0 0 0 0 0 0 0 0 0

Total # of neighbors = 0
Ave neighs/atom = 0
Ave special neighs/atom = 5.9504132
Neighbor list builds = 508
Dangerous builds = 0
  unfix npt_tg
  shell echo '{"stage":"T${temps}","status":"done"}' >> /home/arz2/PolyJarvis/data/PE2/lammps/thermal/tg_sweep_r640/tg_progress.jsonl
  print "STAGE COMPLETE: Tg step T=${temps}K P=1.0atm steps=15625"
STAGE COMPLETE: Tg step T=390K P=1.0atm steps=15625
  next temps
  jump SELF TEMP_LOOP
  timestep 2.0
  fix npt_tg all npt temp ${temps} ${temps} 100.0 iso 1.0 1.0 1000.0
  fix npt_tg all npt temp 370 ${temps} 100.0 iso 1.0 1.0 1000.0
  fix npt_tg all npt temp 370 370 100.0 iso 1.0 1.0 1000.0
  run 15625
Generated 1 of 1 mixed pair_coeff terms from arithmetic mixing rule
Per MPI rank memory allocation (min/avg/max) = 15.03 | 15.03 | 15.03 Mbytes
   Step          Time           Temp          Press         Enthalpy        TotEng         KinEng         PotEng         E_bond        E_angle        E_dihed        E_impro         E_vdwl         E_coul         E_long         E_tail         Volume           Lx             Ly             Lz          Density          Pxx            Pyy            Pzz      
     62500   125000         385.86968     -139.84724      7523.1671      7808.6496      5565.8382      2242.8114      1932.8478      1902.2135      3531.2519      0             -5123.5018      0              0             -178.10746      139974.76      51.92182       51.92182       51.92182       0.80586282    -421.45226     -125.86518      127.77572    
     63000   126000         373.23433     -48.868199      7026.1005      7125.917       5383.5842      1742.3328      1773.5677      1785.3938      3357.6293      0             -5174.258       0              0             -178.0049       140055.41      51.931791      51.931791      51.931791      0.80539874    -525.82635     -89.12148       468.34323    
     63500   127000         369.2598       345.44412      7809.6245      7105.2952      5326.255       1779.0401      1791.0139      1747.2543      3399.6945      0             -5158.9226      0              0             -178.324        139804.79      51.900796      51.900796      51.900796      0.80684254     102.26251      83.869374      850.20048    
     64000   128000         366.1005      -366.35552      6403.8593      7158.5532      5280.6848      1877.8684      1874.5605      1761.6298      3337.1275      0             -5095.4493      0              0             -176.49793      141251.23      52.079173      52.079173      52.079173      0.79858035     163.66555      325.91641     -1588.6485    
     64500   129000         370.80008      159.25863      7370.5747      7046.858       5348.4721      1698.3859      1779.0542      1765.4719      3331.2864      0             -5177.4266      0              0             -178.87336      139375.42      51.847609      51.847609      51.847609      0.80932818    -152.76518     -461.36872      1091.9098    
     65000   130000         375.68455     -136.92821      6939.2374      7219.8618      5418.9265      1800.9353      1782.007       1807.7505      3365.1905      0             -5154.0128      0              0             -177.40886      140525.95      51.989884      51.989884      51.989884      0.80270195    -278.32954      164.9217      -297.37679    
     65500   131000         374.49192      120.49415      7458.8489      7212.0953      5401.7239      1810.3715      1831.607       1767.5716      3381.1081      0             -5169.9152      0              0             -177.54573      140417.63      51.976521      51.976521      51.976521      0.8033212      467.08273     -308.51338      202.91311    
     66000   132000         369.55899     -136.30874      6818.8495      7095.2279      5330.5706      1764.6573      1785.9959      1817.3929      3335.0991      0             -5173.8305      0              0             -179.31943      139028.71      51.804581      51.804581      51.804581      0.81134649    -501.87566     -149.21161      242.16104    
     66500   133000         371.08088      360.99913      7855.1964      7122.2382      5352.5225      1769.7157      1824.9797      1714.4786      3418.314       0             -5188.0566      0              0             -179.07487      139218.58      51.828153      51.828153      51.828153      0.81023994     770.83585      281.24181      30.919711    
     67000   134000         367.9764      -95.343881      6830.1416      7024.275       5307.7431      1716.532       1776.3761      1809.903       3326.7342      0             -5196.4814      0              0             -178.56661      139614.85      51.87728       51.87728       51.87728       0.80794026     196.95846     -579.41179      96.421687    
     67500   135000         364.43587      83.92164       7217.0513      7046.3996      5256.674       1789.7256      1824.6844      1828.8005      3356.2431      0             -5220.0025      0              0             -178.80139      139431.52      51.854564      51.854564      51.854564      0.80900253    -256.46516      672.52283     -164.29275    
     68000   136000         371.6646      -344.42169      6437.7034      7136.5959      5360.9422      1775.6536      1827.0869      1788.7227      3376.5952      0             -5216.7512      0              0             -179.17932      139137.43      51.818081      51.818081      51.818081      0.81071253    -254.02373     -416.97234     -362.269      
     68500   137000         368.64489      27.5886        7038.1789      6982.3976      5317.3855      1665.0121      1786.0832      1750.6634      3387.2547      0             -5258.9892      0              0             -179.82453      138638.2       51.756032      51.756032      51.756032      0.81363184     225.53212     -492.84411      350.07779    
     69000   138000         369.73262      262.62725      7518.2104      6990.3047      5333.075       1657.2297      1829.8529      1765.8327      3305.6147      0             -5244.0706      0              0             -180.88024      137829.04      51.655144      51.655144      51.655144      0.81840849     762.85719      328.40274     -303.37818    
     69500   139000         372.87048     -722.83313      5469.1639      6925.9597      5378.336       1547.6237      1717.5485      1739.409       3328.2904      0             -5237.6241      0              0             -180.40439      138192.59      51.70052       51.70052       51.70052       0.81625548    -1135.0064     -844.16923     -189.32375    
     70000   140000         369.52798      364.8526       7831.0569      7092.7072      5330.1232      1762.584       1834.2027      1804.9435      3351.2182      0             -5227.7804      0              0             -179.66483      138761.43      51.771362      51.771362      51.771362      0.81290927     476.13747      125.36536      493.05497    
     70500   141000         372.18435      5.0592449      6923.7953      6913.5517      5368.4391      1545.1126      1771.5262      1727.5606      3292.5559      0             -5246.53        0              0             -179.57221      138833.01      51.780262      51.780262      51.780262      0.81249017    -85.505079     -29.381073      130.06389    
     71000   142000         357.96649     -233.64559      6363.0814      6834.9701      5163.3587      1671.6114      1817.3317      1803.8166      3295.0975      0             -5244.6344      0              0             -180.02207      138486.07      51.737094      51.737094      51.737094      0.81452564    -683.10994      4.2996517     -22.126474    
     71500   143000         366.0113       47.839687      7069.2106      6973.2198      5279.3982      1693.8216      1841.7251      1825.7391      3297.3896      0             -5271.0322      0              0             -181.20356      137583.11      51.624403      51.624403      51.624403      0.81987136     417.12742     -235.73711     -37.871252    
     72000   144000         375.24953      135.57592      7139.9764      6868.6927      5412.6516      1456.0411      1759.2386      1770.4582      3259.6366      0             -5333.2924      0              0             -181.70486      137203.54      51.576884      51.576884      51.576884      0.82213956    -140.39666     -205.55988      752.6843     
     72500   145000         372.92643     -145.87207      6821.1552      7112.9688      5379.143       1733.8258      1775.3862      1839.342       3406.7347      0             -5287.6371      0              0             -181.74993      137169.51      51.57262       51.57262       51.57262       0.8223435      61.195668      134.91944     -633.73132    
     73000   146000         377.82012      730.43457      8536.9072      7074.9724      5449.7303      1625.2421      1806.148       1789.3843      3312.1009      0             -5282.3911      0              0             -181.66073      137236.86      51.58106       51.58106       51.58106       0.8219399      1048.5125      326.45237      816.33887    
     73500   147000         367.68731      202.5746       7375.0937      6965.9219      5303.5731      1662.3488      1759.3234      1769.5741      3388.5553      0             -5255.104       0              0             -180.00605      138498.4       51.738629      51.738629      51.738629      0.81445312     142.4034       470.25619     -4.9357867    
     74000   148000         368.42641      864.62151      8762.0264      7027.9446      5314.234       1713.7106      1813.9617      1840.6104      3343.7737      0             -5284.6353      0              0             -181.28598      137520.56      51.616579      51.616579      51.616579      0.82024428     1328.8515      689.06915      575.94391    
     74500   149000         377.22991     -408.95027      6177.4572      6999.7784      5441.2169      1558.5614      1764.6983      1740.6747      3348.7251      0             -5295.5367      0              0             -180.81597      137878.03      51.661263      51.661263      51.661263      0.8181177     -1013.9         124.95377     -337.90454    
     75000   150000         373.87813     -136.81748      6888.6084      7164.9045      5392.8704      1772.0341      1847.0973      1827.5835      3370.6379      0             -5273.2846      0              0             -180.04231      138470.5       51.735155      51.735155      51.735155      0.81461722     12.588959     -392.01182     -31.029567    
     75500   151000         361.31996     -601.92563      5569.6425      6791.1595      5211.7297      1579.4298      1787.7969      1822.0767      3237.6254      0             -5268.0692      0              0             -179.16414      139149.22      51.819544      51.819544      51.819544      0.81064384    -738.65124     -768.01455     -299.1111     
     76000   152000         372.88014      279.70127      7475.5557      6916.1653      5378.4752      1537.6901      1750.08        1821.1131      3281.7467      0             -5315.2496      0              0             -181.79718      137133.86      51.568152      51.568152      51.568152      0.82255726     968.4227      -162.73208      33.413199    
     76500   153000         368.56986     -188.43061      6670.4507      7048.4143      5316.3033      1732.1111      1790.762       1867.7548      3343.8442      0             -5270.2499      0              0             -181.26301      137537.99      51.618759      51.618759      51.618759      0.82014035    -215.72089     -188.71415     -160.85679    
     77000   154000         362.00634     -119.04996      6584.0934      6821.0321      5221.6301      1599.4019      1831.8518      1763.0546      3334.4157      0             -5329.9202      0              0             -182.68422      136468         51.484552      51.484552      51.484552      0.82657075     224.17136     -190.86011     -390.46114    
     77500   155000         367.40566      333.75978      7558.2939      6892.1934      5299.5107      1592.6827      1741.4739      1820.8033      3333.9352      0             -5303.5296      0              0             -182.18052      136845.31      51.531957      51.531957      51.531957      0.82429174     400.71526      317.00831      283.55577    
     78000   156000         371.52767      226.98132      7573.5505      7115.5249      5358.967       1756.5579      1857.6588      1742.6449      3351.9721      0             -5195.718       0              0             -180.18064      138364.2       51.721913      51.721913      51.721913      0.81524309    -147.50137      685.67559      142.76974    
     78125   156250         365.16495      179.02184      7244.7462      6883.9995      5267.1903      1616.8092      1787.2047      1749.3009      3318.3478      0             -5238.0442      0              0             -180.43105      138172.17      51.697974      51.697974      51.697974      0.81637611     624.19269      122.95502     -210.08219    
Loop time of 15.4502 on 1 procs for 15625 steps with 4840 atoms

Performance: 174.755 ns/day, 0.137 hours/ns, 1011.313 timesteps/s, 4.895 Matom-step/s
99.4% CPU use with 1 MPI tasks x 1 OpenMP threads

MPI task timing breakdown:
Section |  min time  |  avg time  |  max time  |%varavg| %total
---------------------------------------------------------------
Pair    | 1.7443     | 1.7443     | 1.7443     |   0.0 | 11.29
Bond    | 10.776     | 10.776     | 10.776     |   0.0 | 69.75
Neigh   | 0.0048565  | 0.0048565  | 0.0048565  |   0.0 |  0.03
Comm    | 1.0796     | 1.0796     | 1.0796     |   0.0 |  6.99
Output  | 0.0028995  | 0.0028995  | 0.0028995  |   0.0 |  0.02
Modify  | 1.4269     | 1.4269     | 1.4269     |   0.0 |  9.24
Other   |            | 0.4158     |            |       |  2.69

Nlocal:           4840 ave        4840 max        4840 min
Histogram: 1 0 0 0 0 0 0 0 0 0
Nghost:          15740 ave       15740 max       15740 min
Histogram: 1 0 0 0 0 0 0 0 0 0
Neighs:              0 ave           0 max           0 min
Histogram: 1 0 0 0 0 0 0 0 0 0

Total # of neighbors = 0
Ave neighs/atom = 0
Ave special neighs/atom = 5.9504132
Neighbor list builds = 487
Dangerous builds = 0
  unfix npt_tg
  shell echo '{"stage":"T${temps}","status":"done"}' >> /home/arz2/PolyJarvis/data/PE2/lammps/thermal/tg_sweep_r640/tg_progress.jsonl
  print "STAGE COMPLETE: Tg step T=${temps}K P=1.0atm steps=15625"
STAGE COMPLETE: Tg step T=370K P=1.0atm steps=15625
  next temps
  jump SELF TEMP_LOOP
  timestep 2.0
  fix npt_tg all npt temp ${temps} ${temps} 100.0 iso 1.0 1.0 1000.0
  fix npt_tg all npt temp 350 ${temps} 100.0 iso 1.0 1.0 1000.0
  fix npt_tg all npt temp 350 350 100.0 iso 1.0 1.0 1000.0
  run 15625
Generated 1 of 1 mixed pair_coeff terms from arithmetic mixing rule
Per MPI rank memory allocation (min/avg/max) = 15.04 | 15.04 | 15.04 Mbytes
   Step          Time           Temp          Press         Enthalpy        TotEng         KinEng         PotEng         E_bond        E_angle        E_dihed        E_impro         E_vdwl         E_coul         E_long         E_tail         Volume           Lx             Ly             Lz          Density          Pxx            Pyy            Pzz      
     78125   156250         365.16495      179.02185      7244.7463      6883.9995      5267.1903      1616.8092      1787.2047      1749.3009      3318.3478      0             -5238.0442      0              0             -180.43105      138172.17      51.697974      51.697974      51.697974      0.81637611     624.19272      122.95503     -210.08219    
     78500   157000         354.98587      426.51247      7254.2169      6409.0682      5120.3658      1288.7024      1655.9091      1678.1489      3317.5626      0             -5362.9181      0              0             -183.48745      135870.6       51.409317      51.409317      51.409317      0.83020503     952.84795      627.28291     -300.59344    
     79000   158000         349.5541      -167.15304      5944.1695      6276.626       5042.0172      1234.6088      1679.9426      1707.9174      3197.818       0             -5351.0692      0              0             -182.80462      136378.11      51.473246      51.473246      51.473246      0.82711554    -288.54714     -414.00503      201.09305    
     79500   159000         354.63119     -390.63795      5573.8069      6351.2934      5115.2498      1236.0436      1700.1657      1660.1564      3269.188       0             -5393.4666      0              0             -182.6793       136471.68      51.485015      51.485015      51.485015      0.82654848    -1260.5703      646.12195     -557.46546    
     80000   160000         350.85619     -379.47888      5583.8219      6340.5993      5060.7987      1279.8006      1705.4947      1735.1612      3171.7336      0             -5332.5888      0              0             -182.317        136742.87      51.519095      51.519095      51.519095      0.82490923    -680.46625     -288.50055     -169.46985    
     80500   161000         350.5818       106.46405      6451.2411      6239.9645      5056.8409      1183.1236      1690.5781      1671.5822      3215.951       0             -5394.9877      0              0             -183.21423      136073.22      51.434859      51.434859      51.434859      0.82896883     958.49708     -550.60854     -88.496389    
     81000   162000         360.04681      818.66891      8041.9407      6413.5582      5193.3656      1220.1926      1705.5131      1668.1175      3199.3473      0             -5352.7853      0              0             -182.79302      136386.77      51.474336      51.474336      51.474336      0.82706302     572.41964      915.02062      968.56645    
     81500   163000         354.27176      312.53934      6959.604       6334.1226      5110.0654      1224.0573      1664.2092      1664.932       3213.8399      0             -5318.9238      0              0             -181.67619      137225.19      51.579597      51.579597      51.579597      0.82200985     1094.3783      803.00644     -959.76673    
     82000   164000         348.91507      716.99589      7786.6095      6351.188       5032.7997      1318.3883      1705.4742      1750.9022      3191.0052      0             -5328.9934      0              0             -181.61217      137273.56      51.585657      51.585657      51.585657      0.82172017    -159.05898      812.60851      1497.4381    
     82500   165000         343.74722     -227.6606       5742.4513      6197.8728      4958.258       1239.6149      1667.0212      1679.1862      3240.3877      0             -5346.9802      0              0             -181.75319      137167.05      51.572312      51.572312      51.572312      0.82235824     227.01804     -806.62276     -103.37708    
     83000   166000         348.12203     -616.60471      5129.4837      6361.6176      5021.3609      1340.2567      1686.0729      1753.6431      3257.5493      0             -5357.0086      0              0             -181.95194      137017.22      51.553528      51.553528      51.553528      0.82325749    -772.3578      -789.43825     -288.01807    
     83500   167000         350.99426      55.361441      6420.3419      6309.6729      5062.7903      1246.8826      1676.3908      1660.9858      3236.908       0             -5327.402       0              0             -181.88182      137070.05      51.560152      51.560152      51.560152      0.82294024     174.39704     -600.02147      591.70876    
     84000   168000         351.70601      142.74111      6493.8395      6208.8843      5073.0567      1135.8276      1606.4283      1705.9234      3182.2314      0             -5358.7555      0              0             -182.12947      136883.67      51.536772      51.536772      51.536772      0.82406074     192.59775     -42.182165      277.80773    
     84500   169000         344.54697     -311.32689      5638.7998      6262.5523      4969.7936      1292.7587      1715.7298      1726.7979      3194.5375      0             -5344.3065      0              0             -181.47302      137378.82      51.598838      51.598838      51.598838      0.8210906     -13.489492     -105.58571     -814.90548    
[...]
    276000   552000         108.799        183.38017     -1454.7537     -1786.5072      1569.332      -3355.8393      531.97125      591.43383      1793.0078      0             -6272.2521      0              0             -200.97616      124047.3       49.872649      49.872649      49.872649      0.90933424    -74.469643      552.20861      72.401546    
    276500   553000         109.06045     -532.68839     -2705.1955     -1736.0829      1573.1032     -3309.1861      546.6422       601.78764      1774.9399      0             -6232.5559      0              0             -199.85119      124745.56      49.966052      49.966052      49.966052      0.90424423    -419.97617     -314.62997     -863.45902    
    277000   554000         110.00751      273.48659     -1225.477      -1721.7807      1586.7637     -3308.5444      556.94788      596.03585      1809.5379      0             -6271.066       0              0             -200.35321      124432.99      49.924284      49.924284      49.924284      0.90651567     109.9785       125.97729      584.50399    
    277500   555000         112.19586      400.09855     -1010.5655     -1735.6522      1618.3288     -3353.981       547.20278      578.65873      1791.7333      0             -6271.5758      0              0             -200.62488      124264.5       49.90174       49.90174       49.90174       0.90774484     290.42216      845.54073      64.332761    
    278000   556000         110.67613     -25.903876     -1749.3894     -1702.2439      1596.4079     -3298.6518      553.23329      600.30899      1789.9995      0             -6242.1936      0              0             -199.77105      124795.61      49.972733      49.972733      49.972733      0.90388162     297.37455     -303.26737     -71.818813    
    278500   557000         107.44442     -79.446551     -1891.5577     -1747.2847      1549.7933     -3297.078       545.83681      581.59949      1819.8171      0             -6244.3314      0              0             -200.21556      124518.54      49.935723      49.935723      49.935723      0.90589282    -173.67027      336.83197     -401.50135    
    279000   558000         108.79293      193.8438      -1404.6437     -1757.0078      1569.2445     -3326.2523      540.40401      595.78242      1785.0913      0             -6247.53        0              0             -200.0175       124641.84      49.9522        49.9522        49.9522        0.9049967      83.278742      522.97606     -24.723388    
    279500   559000         110.98823      32.010639     -1675.1045     -1733.1947      1600.9098     -3334.1045      554.18128      574.50043      1800.6545      0             -6263.4407      0              0             -200.35431      124432.31      49.924193      49.924193      49.924193      0.90652061    -62.918149      96.307664      62.642401    
    280000   560000         109.7467       210.47475     -1385.5841     -1767.8248      1583.0017     -3350.8265      529.05841      571.27752      1788.4462      0             -6239.6086      0              0             -200.20313      124526.27      49.936757      49.936757      49.936757      0.90583659     318.6745       71.902708      240.84704    
    280500   561000         110.99721     -90.682596     -1894.7388     -1729.6966      1601.0393     -3330.7359      528.27658      588.79239      1788.5045      0             -6236.3094      0              0             -199.77298      124794.4       49.972571      49.972571      49.972571      0.90389037     61.914168     -311.51441     -22.447543    
    281000   562000         107.8794      -23.336742     -1800.5276     -1758.1732      1556.0675     -3314.2407      545.2731       595.26089      1793.2276      0             -6248.0023      0              0             -200.33133      124446.58      49.926102      49.926102      49.926102      0.90641664     258.86336     -15.28189      -313.59169    
    281250   562500         108.68922      159.78091     -1489.3193     -1779.1413      1567.7485     -3346.8899      550.4174       583.09217      1789.0339      0             -6269.4333      0              0             -200.44777      124374.29      49.916432      49.916432      49.916432      0.90694351     11.620964      105.08159      362.64017    
Loop time of 14.9662 on 1 procs for 15625 steps with 4840 atoms

Performance: 180.406 ns/day, 0.133 hours/ns, 1044.016 timesteps/s, 5.053 Matom-step/s
99.3% CPU use with 1 MPI tasks x 1 OpenMP threads

MPI task timing breakdown:
Section |  min time  |  avg time  |  max time  |%varavg| %total
---------------------------------------------------------------
Pair    | 1.366      | 1.366      | 1.366      |   0.0 |  9.13
Bond    | 10.712     | 10.712     | 10.712     |   0.0 | 71.58
Neigh   | 0.0018019  | 0.0018019  | 0.0018019  |   0.0 |  0.01
Comm    | 1.0294     | 1.0294     | 1.0294     |   0.0 |  6.88
Output  | 0.002926   | 0.002926   | 0.002926   |   0.0 |  0.02
Modify  | 1.4329     | 1.4329     | 1.4329     |   0.0 |  9.57
Other   |            | 0.4209     |            |       |  2.81

Nlocal:           4840 ave        4840 max        4840 min
Histogram: 1 0 0 0 0 0 0 0 0 0
Nghost:          16575 ave       16575 max       16575 min
Histogram: 1 0 0 0 0 0 0 0 0 0
Neighs:              0 ave           0 max           0 min
Histogram: 1 0 0 0 0 0 0 0 0 0

Total # of neighbors = 0
Ave neighs/atom = 0
Ave special neighs/atom = 5.9504132
Neighbor list builds = 182
Dangerous builds = 0
  unfix npt_tg
  shell echo '{"stage":"T${temps}","status":"done"}' >> /home/arz2/PolyJarvis/data/PE2/lammps/thermal/tg_sweep_r640/tg_progress.jsonl
  print "STAGE COMPLETE: Tg step T=${temps}K P=1.0atm steps=15625"
STAGE COMPLETE: Tg step T=110K P=1.0atm steps=15625
  next temps
  jump SELF TEMP_LOOP
  timestep 2.0
  fix npt_tg all npt temp ${temps} ${temps} 100.0 iso 1.0 1.0 1000.0
  fix npt_tg all npt temp 100 ${temps} 100.0 iso 1.0 1.0 1000.0
  fix npt_tg all npt temp 100 100 100.0 iso 1.0 1.0 1000.0
  run 15625
Generated 1 of 1 mixed pair_coeff terms from arithmetic mixing rule
Per MPI rank memory allocation (min/avg/max) = 15.04 | 15.04 | 15.04 Mbytes
   Step          Time           Temp          Press         Enthalpy        TotEng         KinEng         PotEng         E_bond        E_angle        E_dihed        E_impro         E_vdwl         E_coul         E_long         E_tail         Volume           Lx             Ly             Lz          Density          Pxx            Pyy            Pzz      
    281250   562500         108.68922      159.78091     -1489.3193     -1779.1413      1567.7485     -3346.8899      550.4174       583.09217      1789.0339      0             -6269.4333      0              0             -200.44777      124374.29      49.916432      49.916432      49.916432      0.90694351     11.620964      105.08159      362.64017    
    281500   563000         98.407108     -116.57843     -2282.3666     -2070.4427      1419.4379     -3489.8806      484.82353      548.98587      1739.0136      0             -6262.7036      0              0             -200.00747      124648.09      49.953035      49.953035      49.953035      0.90495133    -4.3601821     -47.536757     -297.83837    
    282000   564000         100.87851     -185.61094     -2340.7335     -2004.7181      1455.0857     -3459.8038      497.93343      560.71033      1761.4317      0             -6279.8793      0              0             -200.84091      124130.83      49.883842      49.883842      49.883842      0.90872228     254.76367     -66.409747     -745.18673    
    282500   565000         99.956122      73.438573     -1909.5705     -2043.1171      1441.7811     -3484.8982      485.43173      550.44393      1735.3914      0             -6256.1652      0              0             -199.93977      124690.3       49.958672      49.958672      49.958672      0.90464502     115.35677     -17.153541      122.11249    
    283000   566000         100.4466       110.96337     -1827.0818     -2027.9147      1448.8558     -3476.7705      506.94089      530.65422      1763.1906      0             -6277.5562      0              0             -200.88733      124102.15      49.879999      49.879999      49.879999      0.90893231     343.40562      131.51847     -142.03398    
    283500   567000         101.81825     -310.32679     -2543.0556     -1981.6961      1468.6407     -3450.3368      501.75481      548.98357      1770.594       0             -6271.6692      0              0             -200.99532      124035.47      49.871064      49.871064      49.871064      0.90942093    -307.86298     -266.93237     -356.18501    
    284000   568000         98.568396      129.96775     -1826.9458     -2062.0171      1421.7643     -3483.7814      502.6447       554.66914      1732.662       0             -6273.7573      0              0             -201.02207      124018.97      49.868852      49.868852      49.868852      0.90954197     128.57819      373.94991     -112.62486    
    284500   569000         101.50315      219.78237     -1613.4753     -2011.6805      1464.0957     -3475.7762      507.03574      532.40507      1756.5651      0             -6271.7821      0              0             -200.67518      124233.35      49.89757       49.89757       49.89757       0.90797241     192.92372      224.1464       242.27698    
    285000   570000         99.417783     -27.859139     -2080.3077     -2029.8471      1434.016      -3463.8631      517.9773       540.29794      1747.2061      0             -6269.3445      0              0             -200.73493      124196.37      49.892619      49.892619      49.892619      0.90824276    -197.44127      406.65687     -292.79301    
    285500   571000         101.45428     -248.58433     -2451.7119     -2002.1024      1463.3907     -3465.4931      513.15945      545.56535      1756.1362      0             -6280.3541      0              0             -201.02315      124018.3       49.868763      49.868763      49.868763      0.90954684    -21.211387     -147.53833     -577.00328    
    286000   572000         100.85483      147.40278     -1780.8432     -2047.3043      1454.7442     -3502.0485      492.2843       547.38528      1737.7398      0             -6279.458       0              0             -201.13126      123951.64      49.859826      49.859826      49.859826      0.910036       185.19162      154.03242      102.98432    
    286500   573000         100.11935      292.19252     -1494.7612     -2024.2583      1444.1355     -3468.3938      508.44314      533.65191      1756.3528      0             -6266.8417      0              0             -200.63802      124256.35      49.90065       49.90065       49.90065       0.90780432     314.33048      451.9074       110.33966    
    287000   574000         99.69665      -8.3028606     -2079.1377     -2064.122       1438.0384     -3502.1604      483.705        548.62363      1749.8221      0             -6284.3112      0              0             -201.04404      124005.41      49.867035      49.867035      49.867035      0.90964138    -271.49272      605.74966     -359.16551    
    287500   575000         100.74027     -38.987872     -2092.7594     -2022.1945      1453.0918     -3475.2863      500.74147      549.01546      1758.5827      0             -6283.6259      0              0             -200.88554      124103.25      49.880147      49.880147      49.880147      0.90892425     317.6688      -217.5242      -217.10822    
    288000   576000         98.872042      191.82765     -1697.3326     -2045.045       1426.1442     -3471.1892      492.81717      553.72288      1751.3029      0             -6269.0321      0              0             -200.58516      124289.11      49.905034      49.905034      49.905034      0.90756511     145.23533      241.41869      188.82894    
    288500   577000         100.34205      18.028775     -1984.2134     -2016.9442      1447.3478     -3464.292       510.91308      532.30402      1757.0371      0             -6264.5461      0              0             -200.27086      124484.16      49.931126      49.931126      49.931126      0.90614304     109.02731      104.21694     -159.15793    
    289000   578000         97.847314      288.29291     -1553.2703     -2075.8687      1411.3633     -3487.232       494.50846      541.88438      1753.0484      0             -6276.6732      0              0             -200.57354      124296.3       49.905997      49.905997      49.905997      0.90751258     520.36017      573.55942     -229.04087    
    289500   579000         100.59823      98.836745     -1847.819      -2027.1791      1451.043      -3478.2221      495.68195      539.33123      1743.2592      0             -6256.4945      0              0             -200.35502      124431.87      49.924134      49.924134      49.924134      0.90652383     215.59241     -13.544171      94.461998    
    290000   580000         98.759518     -9.4559852     -2044.454      -2027.2461      1424.5211     -3451.7672      504.28286      553.80301      1748.6181      0             -6258.4712      0              0             -199.79551      124780.33      49.970694      49.970694      49.970694      0.90399228     466.5689      -61.169971     -433.76688    
    290500   581000         101.51971     -106.42238     -2223.1859     -2030.0419      1464.3345     -3494.3763      486.63895      531.86032      1752.2474      0             -6265.123       0              0             -200.33615      124443.59      49.925702      49.925702      49.925702      0.90643845    -77.462506     -355.83965      114.03502    
    291000   582000         99.965759     -226.96466     -2449.2812     -2037.3585      1441.9201     -3479.2785      488.08138      552.98878      1748.239       0             -6268.5877      0              0             -200.33195      124446.2       49.92605       49.92605       49.92605       0.90641946     37.163592     -272.7667      -445.29087    
    291500   583000         98.908069      29.769043     -1973.8749     -2027.8294      1426.6638     -3454.4932      516.89081      541.17662      1759.9442      0             -6272.5048      0              0             -200.60643      124275.93      49.90327       49.90327       49.90327       0.90766135     308.57033     -160.65183     -58.611367    
    292000   584000         99.619276     -111.36965     -2253.1012     -2051.9877      1436.9224     -3488.9101      501.27434      552.85483      1744.2817      0             -6287.3209      0              0             -201.34153      123822.19      49.842463      49.842463      49.842463      0.91098737    -262.84418      343.39185     -414.65661    
    292500   585000         98.622462     -18.45862      -2071.8871     -2038.3863      1422.5442     -3460.9305      503.23812      554.22963      1747.2007      0             -6265.599       0              0             -200.3328       124445.67      49.92598       49.92598       49.92598       0.90642329     486.09051      155.36935     -696.83572    
    293000   586000         99.531086     -26.51665      -2083.0715     -2035.0238      1435.6503     -3470.6741      503.55399      539.33912      1771.8745      0             -6285.4417      0              0             -200.65665      124244.82      49.899106      49.899106      49.899106      0.90788859    -186.15026      130.02944     -23.42913     
    293500   587000         103.03235     -240.83882     -2438.6759     -2003.1977      1486.1531     -3489.3508      498.40957      562.27002      1746.2222      0             -6296.2525      0              0             -201.0795       123983.54      49.864104      49.864104      49.864104      0.90980183     233.57115     -216.04671     -740.04089    
    294000   588000         100.74323     -117.75544     -2244.6584     -2031.3534      1453.1344     -3484.4878      494.18889      525.95279      1767.4986      0             -6272.1281      0              0             -200.71858      124206.48      49.893973      49.893973      49.893973      0.90816881    -98.341508      90.124627     -345.04944    
    294500   589000         98.692013      251.83155     -1574.3274     -2030.7555      1423.5474     -3454.3029      506.05358      552.2987       1759.6076      0             -6272.2627      0              0             -200.60674      124275.73      49.903244      49.903244      49.903244      0.90766277     101.83759      573.7466       79.910465    
    295000   590000         101.42692     -152.78822     -2278.9603     -2002.4996      1462.9961     -3465.4957      497.00823      561.81608      1756.0761      0             -6280.3961      0              0             -200.93896      124070.27      49.875727      49.875727      49.875727      0.90916591    -517.18671      244.28687     -185.46483    
    295500   591000         99.10233       76.061407     -1926.861      -2064.2662      1429.4659     -3493.732       486.99829      537.97432      1752.2328      0             -6270.9374      0              0             -201.26531      123869.08      49.848754      49.848754      49.848754      0.91064253     197.95733      81.505384     -51.278491    
    296000   592000         101.91503     -288.11401     -2532.1848     -2009.4507      1470.0367     -3479.4874      501.19551      541.38767      1740.3858      0             -6262.4563      0              0             -200.39702      124405.79      49.920646      49.920646      49.920646      0.90671387    -261.19798     -18.301755     -584.8423     
    296500   593000         99.805474     -329.52631     -2643.0054     -2045.5141      1439.6081     -3485.1222      496.06629      546.61455      1751.0528      0             -6278.8558      0              0             -200.52394      124327.04      49.910111      49.910111      49.910111      0.90728816    -493.16503     -263.2053      -232.2086     
    296875   593750         100.11273     -210.00113     -2409.5858     -2028.6906      1444.04       -3472.7306      492.63815      556.60354      1756.1718      0             -6278.1442      0              0             -200.45822      124367.81      49.915565      49.915565      49.915565      0.9069908     -50.743787     -155.05726     -424.20234    
Loop time of 14.9077 on 1 procs for 15625 steps with 4840 atoms

Performance: 181.115 ns/day, 0.133 hours/ns, 1048.117 timesteps/s, 5.073 Matom-step/s
99.4% CPU use with 1 MPI tasks x 1 OpenMP threads

MPI task timing breakdown:
Section |  min time  |  avg time  |  max time  |%varavg| %total
---------------------------------------------------------------
Pair    | 1.3412     | 1.3412     | 1.3412     |   0.0 |  9.00
Bond    | 10.687     | 10.687     | 10.687     |   0.0 | 71.69
Neigh   | 0.0016453  | 0.0016453  | 0.0016453  |   0.0 |  0.01
Comm    | 1.0268     | 1.0268     | 1.0268     |   0.0 |  6.89
Output  | 0.0029191  | 0.0029191  | 0.0029191  |   0.0 |  0.02
Modify  | 1.4314     | 1.4314     | 1.4314     |   0.0 |  9.60
Other   |            | 0.417      |            |       |  2.80

Nlocal:           4840 ave        4840 max        4840 min
Histogram: 1 0 0 0 0 0 0 0 0 0
Nghost:          16579 ave       16579 max       16579 min
Histogram: 1 0 0 0 0 0 0 0 0 0
Neighs:              0 ave           0 max           0 min
Histogram: 1 0 0 0 0 0 0 0 0 0

Total # of neighbors = 0
Ave neighs/atom = 0
Ave special neighs/atom = 5.9504132
Neighbor list builds = 163
Dangerous builds = 0
  unfix npt_tg
  shell echo '{"stage":"T${temps}","status":"done"}' >> /home/arz2/PolyJarvis/data/PE2/lammps/thermal/tg_sweep_r640/tg_progress.jsonl
  print "STAGE COMPLETE: Tg step T=${temps}K P=1.0atm steps=15625"
STAGE COMPLETE: Tg step T=100K P=1.0atm steps=15625
  next temps
  jump SELF TEMP_LOOP

write_data tg_step_out.data
System init for write_data ...
Generated 1 of 1 mixed pair_coeff terms from arithmetic mixing rule
Total wall time: 0:04:53
