LAMMPS data file via write_data, version 22 Jul 2025, timestep = 1000000, units = real

6020 atoms
6 atom types
6010 bonds
9 bond types
11200 angles
17 angle types
15110 dihedrals
22 dihedral types
6800 impropers
14 improper types

4.07719901191739 43.96578352808454 xlo xhi
4.07719901191739 43.96578352808454 ylo yhi
4.07719901191739 43.96578352808454 zlo zhi

Masses

1 12.01115
2 12.01115
3 12.01115
4 1.00797
5 15.9994
6 15.9994

Pair Coeffs # lj/class2/coul/long/gpu

1 0.054 4.01
2 0.054 4.01
3 0.12 3.81
4 0.02 2.995
5 0.267 3.3
6 0.24 3.42

Bond Coeffs # class2

1 1.53 299.67 -501.77 679.81
2 1.53 299.67 -501.77 679.81
3 1.5202 253.707 -423.037 396.9
4 1.101 345 -691.89 844.6
5 1.43 326.727 -608.531 689.033
6 1.5202 253.707 -423.037 396.9
7 1.101 345 -691.89 844.6
8 1.202 851.14 -1918.49 2160.77
9 1.3683 367.148 -794.791 1055.23

Angle Coeffs # class2

1 112.67 39.516 -7.443 -9.5583
2 112.67 39.516 -7.443 -9.5583
3 108.53 51.9747 -9.4851 -10.9985
4 110.77 41.453 -10.604 5.129
5 112.67 39.516 -7.443 -9.5583
6 108.53 51.9747 -9.4851 -10.9985
7 110.77 41.453 -10.604 5.129
8 123.145 55.5431 -17.2123 0.1348
9 100.318 38.8631 -3.8323 -7.9802
10 113.288 61.2868 -28.9786 7.9929
11 110.77 41.453 -10.604 5.129
12 123.145 55.5431 -17.2123 0.1348
13 100.318 38.8631 -3.8323 -7.9802
14 107.734 40.6099 -28.8121 0
15 107.66 39.641 -12.921 -2.4318
16 107.688 65.4801 -10.3498 5.8866
17 120.797 95.3446 -32.2869 6.3778

BondBond Coeffs

1 0 1.53 1.53
2 0 1.53 1.53
3 5.4199 1.53 1.5202
4 3.3872 1.53 1.101
5 0 1.53 1.53
6 5.4199 1.53 1.5202
7 3.3872 1.53 1.101
8 46.0685 1.5202 1.202
9 19.1069 1.5202 1.3683
10 45.4503 1.43 1.3683
11 3.3872 1.53 1.101
12 46.0685 1.5202 1.202
13 19.1069 1.5202 1.3683
14 0.7115 1.5202 1.101
15 5.3316 1.101 1.101
16 5.6454 1.101 1.43
17 121.488 1.202 1.3683

BondAngle Coeffs

1 8.016 8.016 1.53 1.53
2 8.016 8.016 1.53 1.53
3 18.1678 15.8758 1.53 1.5202
4 20.754 11.421 1.53 1.101
5 8.016 8.016 1.53 1.53
6 18.1678 15.8758 1.53 1.5202
7 20.754 11.421 1.53 1.101
8 34.9982 37.1298 1.5202 1.202
9 1.3435 4.6978 1.5202 1.3683
10 41.9116 46.4608 1.43 1.3683
11 20.754 11.421 1.53 1.101
12 34.9982 37.1298 1.5202 1.202
13 1.3435 4.6978 1.5202 1.3683
14 12.4632 9.1765 1.5202 1.101
15 18.103 18.103 1.101 1.101
16 8.6864 57.4975 1.101 1.43
17 76.2614 71.8761 1.202 1.3683

Dihedral Coeffs # class2

1 0 0 0.0514 0 -0.143 0
2 0 0 0.0514 0 -0.143 0
3 0.0972 0 0.0722 0 -0.2581 0
4 0 0 0.0316 0 -0.1681 0
5 0 0 0.0514 0 -0.143 0
6 0.0972 0 0.0722 0 -0.2581 0
7 0 0 0.0316 0 -0.1681 0
8 0.0442 0 0.0292 0 0.0562 0
9 1.8341 0 2.0603 0 -0.0195 0
10 0 0 0.0316 0 -0.1681 0
11 0.0442 0 0.0292 0 0.0562 0
12 1.8341 0 2.0603 0 -0.0195 0
13 -2.5594 0 2.2013 0 0.0325 0
14 -2.5594 0 2.2013 0 0.0325 0
15 0 0 2.2089 0 0 0
16 0.0972 0 0.0722 0 -0.2581 0
17 -0.0228 0 0.028 0 -0.1863 0
18 -0.0228 0 0.028 0 -0.1863 0
19 0 0 0 0 -0.1932 0
20 -0.1432 0 0.0617 0 -0.1083 0
21 -0.1804 0 0.0012 0 0.0371 0
22 -0.6359 0 1.4807 0 -0.0438 0

AngleAngleTorsion Coeffs

1 -22.045 112.67 112.67
2 -22.045 112.67 112.67
3 -0.3801 112.67 108.53
4 -16.164 112.67 110.77
5 -22.045 112.67 112.67
6 -0.3801 112.67 108.53
7 -16.164 112.67 110.77
8 -8.019 108.53 123.145
9 0 108.53 100.318
10 -16.164 112.67 110.77
11 -8.019 108.53 123.145
12 0 108.53 100.318
13 0 100.318 113.288
14 0 113.288 100.318
15 0 113.288 120.797
16 -0.3801 112.67 108.53
17 -5.3624 108.53 110.77
18 -5.3624 108.53 110.77
19 0 113.288 107.688
20 -12.564 110.77 110.77
21 -15.3496 107.734 123.145
22 0 107.734 100.318

EndBondTorsion Coeffs

1 -0.0732 0 0 -0.0732 0 0 1.53 1.53
2 -0.0732 0 0 -0.0732 0 0 1.53 1.53
3 0.0062 -0.0002 0.0036 0.0055 0.006 -0.0009 1.53 1.5202
4 0.2486 0.2422 -0.0925 0.0814 0.0591 0.2219 1.53 1.101
5 -0.0732 0 0 -0.0732 0 0 1.53 1.53
6 0.0062 -0.0002 0.0036 0.0055 0.006 -0.0009 1.53 1.5202
7 0.2486 0.2422 -0.0925 0.0814 0.0591 0.2219 1.53 1.101
8 0.2654 0.0503 0.1046 -0.281 0.0816 -0.1522 1.53 1.202
9 0 0 0 0 0 0 1.53 1.3683
10 0.2486 0.2422 -0.0925 0.0814 0.0591 0.2219 1.53 1.101
11 0.2654 0.0503 0.1046 -0.281 0.0816 -0.1522 1.53 1.202
12 0 0 0 0 0 0 1.53 1.3683
13 0 0 0 0 0 0 1.5202 1.43
14 0 0 0 0 0 0 1.43 1.5202
15 0 0 0 0 0 0 1.43 1.202
16 0.0062 -0.0002 0.0036 0.0055 0.006 -0.0009 1.53 1.5202
17 -0.0204 0.3628 -0.4426 -0.0097 -0.0315 -0.0755 1.5202 1.101
18 -0.0204 0.3628 -0.4426 -0.0097 -0.0315 -0.0755 1.5202 1.101
19 0 0 0 0 0 0 1.3683 1.101
20 0.213 0.312 0.0777 0.213 0.312 0.0777 1.101 1.101
21 1.2143 0.2831 0.3916 -0.2298 0.0354 0.3853 1.101 1.202
22 0 0 0 0 0 0 1.101 1.3683

MiddleBondTorsion Coeffs

1 -17.787 -7.1877 0 1.53
2 -17.787 -7.1877 0 1.53
3 -1.5945 0.2267 -0.6911 1.53
4 -14.879 -3.6581 -0.3138 1.53
5 -17.787 -7.1877 0 1.53
6 -1.5945 0.2267 -0.6911 1.53
7 -14.879 -3.6581 -0.3138 1.53
8 0.3388 -0.1096 0.1219 1.5202
9 -17.328 -5.79 -3.2114 1.5202
10 -14.879 -3.6581 -0.3138 1.53
11 0.3388 -0.1096 0.1219 1.5202
12 -17.328 -5.79 -3.2114 1.5202
13 1.3445 3.5515 -4.9202 1.3683
14 1.3445 3.5515 -4.9202 1.3683
15 4.26 0 0 1.3683
16 -1.5945 0.2267 -0.6911 1.53
17 -3.5039 1.2458 -0.761 1.53
18 -3.5039 1.2458 -0.761 1.53
19 0 0 0 1.43
20 -14.261 -0.5322 -0.4864 1.53
21 0.2359 0.9139 0.9594 1.5202
22 -13.7686 -2.5959 1.1934 1.5202

BondBond13 Coeffs

1 0 1.53 1.53
2 0 1.53 1.53
3 0 1.53 1.5202
4 0 1.53 1.101
5 0 1.53 1.53
6 0 1.53 1.5202
7 0 1.53 1.101
8 0 1.53 1.202
9 0 1.53 1.3683
10 0 1.53 1.101
11 0 1.53 1.202
12 0 1.53 1.3683
13 0 1.5202 1.43
14 0 1.43 1.5202
15 0 1.43 1.202
16 0 1.53 1.5202
17 0 1.5202 1.101
18 0 1.5202 1.101
19 0 1.3683 1.101
20 0 1.101 1.101
21 0 1.101 1.202
22 0 1.101 1.3683

AngleTorsion Coeffs

1 0.3886 -0.3139 0.1389 0.3886 -0.3139 0.1389 112.67 112.67
2 0.3886 -0.3139 0.1389 0.3886 -0.3139 0.1389 112.67 112.67
3 -0.2607 0.3203 -0.2283 0.0515 -0.0674 -0.0474 112.67 108.53
4 -0.2454 0 -0.1136 0.3113 0.4516 -0.1988 112.67 110.77
5 0.3886 -0.3139 0.1389 0.3886 -0.3139 0.1389 112.67 112.67
6 -0.2607 0.3203 -0.2283 0.0515 -0.0674 -0.0474 112.67 108.53
7 -0.2454 0 -0.1136 0.3113 0.4516 -0.1988 112.67 110.77
8 0.0885 -1.3703 -0.5452 0.675 0.5965 0.6725 108.53 123.145
9 0 0 0 0 0 0 108.53 100.318
10 -0.2454 0 -0.1136 0.3113 0.4516 -0.1988 112.67 110.77
11 0.0885 -1.3703 -0.5452 0.675 0.5965 0.6725 108.53 123.145
12 0 0 0 0 0 0 108.53 100.318
13 0 0 0 0 0 0 100.318 113.288
14 0 0 0 0 0 0 113.288 100.318
15 0 0 0 0 0 0 113.288 120.797
16 -0.2607 0.3203 -0.2283 0.0515 -0.0674 -0.0474 112.67 108.53
17 -0.7466 -0.9448 -0.6321 0.0162 1.4211 -1.4092 108.53 110.77
18 -0.7466 -0.9448 -0.6321 0.0162 1.4211 -1.4092 108.53 110.77
19 0 0 0 0 0 0 113.288 107.688
20 -0.8085 0.5569 -0.2466 -0.8085 0.5569 -0.2466 110.77 110.77
21 9.1299 -0.4847 0.3582 -1.4946 0.7308 -0.2083 107.734 123.145
22 0 0 0 0 0 0 107.734 100.318

Improper Coeffs # class2

1 0 0
2 0 0
3 0 0
4 0 0
5 0 0
6 0 0
7 0 0
8 0 0
9 0 0
10 0 0
11 0 0
12 0 0
13 46.9264 0
14 46.9264 0

AngleAngle Coeffs

1 -0.1729 -0.1729 -0.1729 112.67 112.67 112.67
2 0 0 0 112.67 108.53 108.53
3 -1.3199 -1.3199 0.1184 112.67 110.77 110.77
4 -1.3199 -1.3199 0.1184 112.67 110.77 110.77
5 0.2738 -0.4825 0.2738 110.77 110.77 107.66
6 0.2738 -0.4825 0.2738 110.77 110.77 107.66
7 -0.3157 -0.3157 -0.3157 107.66 107.66 107.66
8 0 0 0 107.66 107.688 107.688
9 0 0 0 112.67 108.53 108.53
10 -1.3199 -1.3199 0.1184 112.67 110.77 110.77
11 2.0403 -1.8202 1.0827 108.53 110.77 107.734
12 1.0827 -1.8202 2.0403 110.77 108.53 107.734
13 0 0 0 100.318 123.145 120.797
14 0 0 0 100.318 123.145 120.797

Atoms # full

3322 6 1 0.066 7.274718413198107 6.034390467173546 7.219120024356825 0 1 0
3323 6 4 0.053 6.770090647876461 6.873888055168738 7.767400973012713 0 1 0
3321 6 6 -0.396 7.722472632137805 5.101985387817923 8.192674501638619 0 1 0
3324 6 4 0.053 6.688960234248427 5.557053500875138 6.495286964920279 0 1 0
3325 6 4 0.053 8.1231192206853 6.5546200938453465 6.744456176448914 0 1 0
3319 6 3 0.702 9.053901910447454 4.826263703497794 8.2311233709108 0 1 0
1591 3 1 0.066 7.5396475626362 10.10663823318297 8.971905717551591 0 0 0
1592 3 4 0.053 7.956405141170487 9.938314625769365 7.990506003812588 0 0 0
4242 8 4 0.053 22.190330100380198 12.255013936424296 17.215859730306864 0 0 0
4649 8 4 0.053 21.376177332581864 6.594152449032574 4.7243932525713 0 0 0
5755 10 4 0.053 23.305562394989828 4.655624049308129 7.529341074272364 0 1 0
5480 10 4 0.053 10.066345956906622 23.893426416547857 20.147948121205776 0 0 0
525 1 4 0.053 11.155658182884268 21.557113465158356 4.569980216357292 0 0 1
5770 10 4 0.053 20.338903463106636 4.321075450030892 8.14081662787768 0 1 0
4579 8 1 -0.159 11.564710740879708 8.514575180709592 6.011329481297032 0 0 0
3320 6 5 -0.531 9.925959764567576 5.595043467487259 7.824852334327285 0 1 0
4581 8 4 0.053 10.82600731428888 9.070642065723316 6.797968068736537 0 0 0
4600 8 6 -0.396 14.29773042654049 7.469274605569854 8.131047430906564 0 0 0
4598 8 3 0.702 14.630585656333784 8.118337024572163 6.9253851324145135 0 0 0
4601 8 1 0.066 13.897547541317344 6.083145972844523 8.1856038899164 0 0 0
4604 8 4 0.053 14.899964876950376 5.528737828101869 8.22000027987908 0 0 0
4602 8 4 0.053 13.372301535592005 5.823900932348751 7.249945802745476 0 0 0
4603 8 4 0.053 13.225429779611494 6.010753698074625 9.042646456419426 0 0 0
4599 8 5 -0.531 14.781897598754995 7.4847269853306315 5.940273328866928 0 0 0
4597 8 4 0.053 15.042927995516395 9.693482227864049 9.296577951690724 0 0 0
4593 8 1 0 14.634144576202939 9.664239124961341 7.094301813763419 0 0 0
4595 8 4 0.053 13.422647089529187 9.75856056684129 8.903186776675483 0 0 0
4594 8 1 -0.159 14.38086805102637 10.115921477602727 8.554629184134399 0 0 0
4607 8 4 0.053 15.934028623688974 10.029589007595622 5.642013953321488 0 0 0
4531 8 4 0.053 7.024430885142779 15.394689129545393 4.2965044630825355 0 0 0
4578 8 1 0 12.436311355054741 9.500292629079249 5.277601057180046 0 0 0
4582 8 4 0.053 12.028483557594278 7.811174793554952 6.603820739691496 0 0 0
1698 3 4 0.053 12.50198875778764 23.68594106851938 4.166615547338154 0 0 0
3187 6 1 0.066 7.119339051238978 6.159210930196137 23.837978867395037 0 1 0
4610 8 4 0.053 18.63854544159561 8.094001841207955 8.147355292489369 0 0 0
4612 8 4 0.053 17.31307137201547 8.020158009260854 6.746102655139762 0 0 0
4611 8 4 0.053 16.902983944180228 8.100019727433493 8.502812969291927 0 0 0
4609 8 1 -0.159 17.609397101609993 8.501474177680485 7.72134792694942 0 0 0
3382 6 1 0.066 17.066862747498377 5.498261228816009 6.209315472095188 0 1 0
5776 10 4 0.053 22.49588705686938 8.211291145755041 7.865105081851375 0 1 0
4622 8 4 0.053 18.64783216571019 9.55149635356064 5.494767069345275 0 0 0
4608 8 1 0 17.51547043787312 9.959403690264924 7.431970360779941 0 0 0
4498 8 4 0.053 5.4782537512870615 11.48015596483649 4.517423701333456 0 0 0
3383 6 4 0.053 17.279991740822183 6.365996735626165 5.497053192012175 0 1 0
4644 8 5 -0.531 21.864719948640474 9.079214303208492 5.238088733497865 0 0 0
5807 10 4 0.053 15.468368799251923 8.424224890199937 10.802925946545201 0 1 0
4648 8 4 0.053 19.813123388540152 7.108880953405572 5.7746531088275415 0 0 0
1679 3 5 -0.531 16.17073740953201 23.59282519051292 7.201164567359832 0 0 0
4637 8 4 0.053 20.750260147362116 12.587410815800801 4.446729014499958 0 0 0
1986 4 4 0.053 23.498437741143 6.0516830839798255 19.88498854633343 0 0 0
5774 10 6 -0.396 21.348000196949908 6.536851404942685 8.249374157811639 0 1 0
5775 10 1 0.066 21.443527987947494 7.958255284584036 7.97189130914105 0 1 0
5778 10 4 0.053 20.980897702101004 8.577033510674354 8.847182288257184 0 1 0
5777 10 4 0.053 20.816570903835736 8.158729234795828 7.057526937608755 0 1 0
5772 10 3 0.702 22.00568100789365 6.091167296267292 9.352531999817488 0 1 0
5471 10 4 0.053 9.528869053794539 21.235781622771427 22.501596824378666 0 0 0
1593 3 4 0.053 7.172924031522243 11.110624685922438 8.96321851839786 0 0 0
1608 3 4 0.053 7.7156368728973534 14.68557059972181 10.008352465936218 0 0 0
1609 3 4 0.053 8.774692735922507 14.103879602580168 8.608515260733544 0 0 0
4494 8 5 -0.531 5.853357482705009 13.17654376119954 6.487948294466207 0 0 0
1606 3 1 0.066 8.257581848711324 13.797507557526124 9.462094582809444 0 0 0
1607 3 4 0.053 7.5701386080133855 13.05044455522139 9.130904323809768 0 0 0
4493 8 3 0.702 4.597753092933279 13.267537603156024 6.43209467592715 0 0 0
3067 6 1 0.066 12.685935416631844 5.976061176228798 23.95334716888234 0 1 0
4546 8 4 0.053 9.686697578836288 14.18244848666038 5.220181944255511 0 0 0
4489 8 1 -0.159 4.450585688717798 14.350172352162167 8.688223427991698 0 0 0
4476 8 4 0.053 4.367622183977135 11.334228221170076 8.226907003871629 0 0 0
4491 8 4 0.053 4.732470433436487 13.392527712507007 9.312450770641796 0 0 0
4214 7 4 0.053 23.57605179960623 14.500558128838849 16.526117995682796 0 0 0
4490 8 4 0.053 5.3317119495047045 14.952706269644995 8.283604917057561 0 0 0
5769 10 4 0.053 19.30919179971135 5.164444138540987 9.351232843087992 0 1 0
3220 6 4 0.053 5.64192971324071 5.693013216743023 15.431103533011079 0 1 0
5468 10 1 -0.159 10.164158317123686 21.939754955982966 22.059321961859787 0 0 0
5331 9 1 -0.159 4.189402365829788 4.102794171930098 4.724312673952834 0 1 1
4577 8 4 0.053 10.653517424743105 10.770431813584473 5.563651818479042 0 0 0
4572 8 4 0.053 14.541066769362958 14.905860047382385 5.8370867015816295 0 0 0
4591 8 4 0.053 14.148474889637738 10.966239748485522 5.44020895103208 0 0 0
4590 8 1 -0.106 13.602414840934328 10.351793727637666 6.092270061771283 0 0 0
4596 8 4 0.053 14.409751659755875 11.257725156469508 8.596540177467178 0 0 0
4569 8 5 -0.531 11.373421880642983 12.798466056107895 6.597743336772967 0 0 0
4592 8 4 0.053 12.954506216784294 11.150975432226508 6.542847180873327 0 0 0
4568 8 3 0.702 11.999665886176931 12.7376969241416 5.566694527886033 0 0 0
4571 8 1 0.066 13.69712675379728 14.291010195083674 6.422620905689033 0 0 0
1616 3 4 0.053 13.858392169884764 13.660772318960237 9.943367633050691 0 0 0
1630 3 4 0.053 12.463304924352224 14.9636555395118 8.746406079807986 0 0 0
4574 8 4 0.053 14.094989136739411 13.682632656965083 7.2546121718082635 0 0 0
1634 3 5 -0.531 14.907366152795579 16.086687799677463 8.726082626394195 0 0 0
4570 8 6 -0.396 13.103061706573099 13.449381670739456 5.350056763080364 0 0 0
1617 3 4 0.053 12.051590012393959 13.479429772384215 9.810731131389081 0 0 0
4605 8 1 -0.106 15.991816355128005 10.273129782980774 6.769169924547208 0 0 0
4606 8 4 0.053 15.919935870069239 11.34785733656667 7.003360214428075 0 0 0
4573 8 4 0.053 12.944454668529138 15.013573043217773 6.7225741111814 0 0 0
1629 3 1 -0.159 12.17548109629225 15.977928708910957 9.192382785296104 0 0 0
1631 3 4 0.053 11.129404530099551 15.915436228659118 9.496038235605582 0 0 0
1633 3 3 0.702 14.654868041870248 16.044108775738977 9.86761541108772 0 0 0
5444 10 6 -0.396 4.8709633354694954 22.985835429859236 23.53444494668024 0 0 0
4621 8 4 0.053 19.694458858356597 9.945966424445533 6.994019152768533 0 0 0
4635 8 1 -0.106 20.469223914099953 11.62432557065559 4.880321995412611 0 0 0
4620 8 1 -0.106 18.78452318326761 10.187829335600533 6.447842509890952 0 0 0
4626 8 4 0.053 20.089587402840323 12.415654152767877 7.567223539892699 0 0 0
4624 8 1 -0.159 19.502897560430903 12.770554118364538 6.731127058843964 0 0 0
4613 8 3 0.702 17.800411736335626 10.667979685914212 8.83766973602665 0 0 0
4625 8 4 0.053 18.588829064546903 13.1475555175091 7.289679680414598 0 0 0
4615 8 6 -0.396 18.81980672070112 10.093964951600938 9.709966321893454 0 0 0
4627 8 4 0.053 19.970861118734653 13.63517176319078 6.151910952162184 0 0 0
4614 8 5 -0.531 17.120485030940657 11.572805402415558 9.22688403892542 0 0 0
4623 8 1 0 19.210013657461495 11.584317361737629 5.808729913249393 0 0 0
4636 8 4 0.053 21.28680825645754 11.34821776337796 5.544931980090318 0 0 0
1693 3 3 0.702 15.594925378835194 23.874857431858086 4.1936408835973245 0 0 0
4719 8 5 -0.531 20.779104510728256 15.730979424095475 8.308617260826733 0 0 0
5513 10 1 -0.159 16.781675781615256 23.347935845863425 23.594005957910262 0 0 0
4617 8 4 0.053 18.642921925877893 10.990331169583033 11.498064081522966 0 0 0
1637 3 4 0.053 16.80361296032092 14.693526616447695 9.622077653585043 0 0 0
3488 6 4 0.053 23.372534226760145 12.934611575162158 6.6648080335862625 0 1 0
4459 8 1 -0.159 4.14588166668173 10.959169099054897 11.057174694823086 0 0 0
3487 6 1 0.066 23.601123761170626 12.566328863505799 7.711767811831384 0 1 0
4682 8 4 0.053 23.403815039450155 15.14421953374631 5.025016744400631 0 0 0
4680 8 1 -0.106 23.339758612164353 15.805409473686696 4.187906477659324 0 0 0
3215 6 5 -0.531 5.733735795724831 4.239828097747208 17.705432209237173 0 1 0
3185 6 5 -0.531 4.8499747697728175 4.887319356821479 23.696364821726284 0 1 0
3490 6 4 0.053 22.615201429901404 12.534813097189577 8.202169778498309 0 1 0
4530 8 1 -0.106 7.676553300990533 16.0754946063342 4.989412028602112 0 0 0
1668 3 4 0.053 14.896986144601634 16.861576732039467 4.647461683775486 0 0 0
4505 8 4 0.053 4.817396885368884 18.28884993255854 7.9005170606336925 0 0 0
4518 8 1 0 6.535360482673299 17.26225267216222 5.112669163450622 0 0 0
4516 8 4 0.053 5.045593342345535 15.794975392508281 4.930648488598851 0 0 0
4532 8 4 0.053 7.756105590552529 15.71673890969225 6.04528569763546 0 0 0
3047 6 4 0.053 17.36858925342607 4.362556174099479 20.85152227880885 0 1 0
4517 8 4 0.053 5.700048994262811 15.758194087440277 6.454452510598804 0 0 0
4519 8 1 -0.159 7.075831220773493 18.340926038074834 6.066382979775023 0 0 0
4520 8 4 0.053 6.211213605853922 18.978228698814355 6.372821097969068 0 0 0
4515 8 1 -0.106 5.3298441038075675 16.453587478056743 5.726492578224202 0 0 0
4522 8 4 0.053 7.596332831723787 17.869232179908636 6.963247796588077 0 0 0
4521 8 4 0.053 7.836570320970272 19.05690932892862 5.7218467607566 0 0 0
1652 3 4 0.053 8.93578504784663 18.637752573552003 9.159000331422945 0 0 0
4533 8 1 0 9.191365545936474 16.333105883430385 4.57213047451839 0 0 0
1651 3 1 0.066 9.13376865149461 19.465014130280373 9.817951499486814 0 0 0
4537 8 4 0.053 9.722977752472563 17.808519364352662 6.16939941313642 0 0 0
4534 8 1 -0.159 10.016568485830607 16.865713974082446 5.845849156454885 0 0 0
4535 8 4 0.053 9.960444836161319 16.268430811218806 6.739976009654111 0 0 0
1654 3 4 0.053 8.992670942955247 20.45063772498774 9.292495252409283 0 0 0
4646 8 1 0.066 20.35638023949701 6.90967959048778 4.857746870495391 0 0 0
503 1 4 0.053 5.515677803434334 20.714246071508075 5.534984205904031 0 0 1
524 1 4 0.053 10.366356750717454 22.301916517870076 5.863857874434814 0 0 1
1653 3 4 0.053 8.466850262959937 19.330058621111665 10.69686522398479 0 0 0
1650 3 6 -0.396 10.526809468462396 19.332539062711447 10.234225444070493 0 0 0
4506 8 4 0.053 4.599663002535282 16.853301724518776 8.67795991746595 0 0 0
4504 8 1 -0.159 4.189084216564873 17.42218998286767 7.919900700072688 0 0 0
3069 6 4 0.053 12.162322529896615 6.505973133856024 23.182960493291198 0 1 0
4536 8 4 0.053 11.14993079171828 16.79352853727147 5.59596662453186 0 0 0
1632 3 4 0.053 12.246268561235146 16.7750317398447 8.31853285923004 0 0 0
1649 3 5 -0.531 11.17512772323093 18.932738713459564 8.098706339166704 0 0 0
1658 3 1 0 14.150543219422746 20.244992913912014 7.5636830488872455 0 0 0
1656 3 4 0.053 14.088920991300803 18.096586477784978 8.292634893286117 0 0 0
1663 3 3 0.702 13.622788628610715 19.645241596081135 6.1894179017722575 0 0 0
1664 3 5 -0.531 12.832288740142285 20.145411586705045 5.43622776118724 0 0 0
1655 3 1 -0.106 14.017204202459766 19.20371852553228 8.734125693595669 0 0 0
1665 3 6 -0.396 14.335575769638362 18.52050421929053 5.8326715626741095 0 0 0
1648 3 3 0.702 11.438416786519234 19.076038217612396 9.22480667194569 0 0 0
1666 3 1 0.066 14.097869250647358 17.659638805103754 4.78755576890368 0 0 0
3381 6 6 -0.396 16.11956969153138 4.49053641152577 5.696740409850996 0 1 0
1670 3 1 -0.106 15.841303954868916 20.400801111353726 7.4683002030156445 0 0 0
1671 3 4 0.053 16.157087205057767 20.414463045145183 8.654559655408317 0 0 0
1660 3 4 0.053 12.581772284764707 21.73427007375725 7.738698001629569 0 0 0
4201 7 2 -0.053 23.83548542327498 15.377576698882372 15.84169991241265 0 0 0
1669 3 4 0.053 13.126809931314932 17.124501241469986 5.018949743923718 0 0 0
4724 8 4 0.053 18.582020455766695 15.659539063537954 7.138541956635736 0 0 0
4702 8 4 0.053 20.658166889699565 17.15853121948964 4.837527324931786 0 0 0
4723 8 4 0.053 18.284179612077114 17.171687162367416 6.283100010660948 0 0 0
4722 8 4 0.053 17.198803767214304 16.835348953741683 7.542556554287818 0 0 0
1672 3 4 0.053 16.12154722964781 19.30846771804759 7.187853490919601 0 0 0
4700 8 4 0.053 19.89772367443678 18.575886169314828 5.741494879587094 0 0 0
4712 8 4 0.053 20.6011997576254 19.477252846500726 7.39650949977988 0 0 0
4721 8 1 0.066 18.281251219680698 16.728904652064358 7.230266994937066 0 0 0
4720 8 6 -0.396 19.158722003052766 17.362192890971876 8.130840603095379 0 0 0
4699 8 1 -0.159 20.774171298768966 18.234255447763765 5.109798372817808 0 0 0
1686 3 4 0.053 16.89939318820754 20.689964834116036 4.665643032384431 0 0 0
4718 8 3 0.702 20.45991696061315 16.878947851567233 8.452947591582006 0 0 0
4713 8 1 0 21.29223998630758 18.032032784867148 8.87048521040389 0 0 0
4726 8 4 0.053 19.8649063911801 19.772527888837296 9.323222750940225 0 0 0
1676 3 4 0.053 18.27815977033971 19.5615548497942 6.730910101244143 0 0 0
1677 3 4 0.053 18.30921947446496 20.588543204906646 8.008634282440234 0 0 0
5768 10 1 -0.159 20.08266107292031 4.39980227144354 9.27101819554639 0 1 0
5334 9 4 0.053 5.115382850622199 4.12767402732728 5.239894702689004 0 1 1
4696 8 4 0.053 23.141294948732593 16.92041725988784 6.536935383501454 0 0 0
4716 8 4 0.053 23.45446273569032 17.007870350375697 8.707844866043985 0 0 0
4710 8 1 -0.106 21.5696068569438 19.025510077097994 7.533488338258751 0 0 0
4711 8 4 0.053 22.131942170054852 19.94285007157491 7.9286133429735575 0 0 0
4698 8 1 0 22.02146652343873 18.735063341003368 5.992476160780301 0 0 0
4703 8 3 0.702 22.54218050675671 20.17794655304187 5.518699672924701 0 0 0
4704 8 5 -0.531 23.4996393138198 20.796646685196897 5.910857520857589 0 0 0
4714 8 1 -0.159 22.736230558508595 17.52905400851128 9.529166300132069 0 0 0
4695 8 1 -0.106 23.330823464061503 17.846927216784728 5.972082802652981 0 0 0
3204 6 4 0.053 4.334771660236112 7.4265856577734475 20.986662769284955 0 1 0
4715 8 4 0.053 23.142878582817175 18.4271023376469 10.007564906560559 0 0 0
1985 4 4 0.053 22.924441072396085 7.1188741851137225 21.340838965314244 0 0 0
3189 6 4 0.053 6.396594935218351 6.939420666945951 23.279982562463587 0 1 0
522 1 1 0.066 10.334292194845206 21.571595034561827 5.1341870807156225 0 0 1
4370 8 4 0.053 5.83051864635225 22.539754621821423 9.862831932200594 0 0 0
499 1 1 0 5.703651114633574 22.73063421604022 4.761208543848056 0 0 1
505 1 5 -0.531 7.331434903400522 22.35640921763335 6.573237414415321 0 0 1
4343 8 3 0.702 10.448293354606545 23.797434045363378 16.01545071487329 0 0 0
4372 8 4 0.053 7.203368426360311 21.49046735826246 10.090173415988048 0 0 0
4369 8 1 -0.159 6.846253633887794 22.545224240424844 10.04134083711633 0 0 0
5815 10 4 0.053 16.383716494350086 5.254971973292834 16.633311007291624 0 1 0
4384 8 1 -0.159 4.2425290427375515 23.02677498075384 12.569979178674268 0 0 0
4398 8 1 0 4.205748629740759 20.781240348184873 15.210734633625322 0 0 0
3317 6 4 0.053 8.463360609232506 4.585780097946158 10.955983298880273 0 1 0
1687 3 4 0.053 15.431227779044141 21.178511397906437 5.147977179523981 0 0 0
1659 3 1 -0.159 13.60769875654951 21.70157380083479 7.709495903873954 0 0 0
1662 3 4 0.053 14.065782583454734 22.19964222154401 6.9605757640952195 0 0 0
3384 6 4 0.053 16.457266572486464 5.849315463551067 7.112527330988819 0 1 0
1678 3 3 0.702 16.770868122517673 22.600178259851816 7.51226000852278 0 0 0
1661 3 4 0.053 13.921392675193554 22.145731245205404 8.596470235673944 0 0 0
3316 6 4 0.053 10.412521275183908 4.824870931310892 10.467791130983313 0 1 0
1674 3 1 -0.159 18.136186270269135 20.6250178365945 6.941390734887081 0 0 0
1688 3 1 0 16.881571052683732 22.774754285847592 4.306881482119353 0 0 0
1675 3 4 0.053 18.915893951434654 21.276580976951283 6.471822135769541 0 0 0
1673 3 1 0 16.77606281021577 21.31873975256809 6.678001365907791 0 0 0
1685 3 1 -0.106 16.49553233807201 21.467490385051523 5.221809232135971 0 0 0
1680 3 6 -0.396 17.293200657226336 22.537287124137347 8.76817341393578 0 0 0
1690 3 4 0.053 19.18142201149179 23.246080203935374 4.3983626604280275 0 0 0
4751 8 1 0.066 21.355397835993166 23.146264005389458 8.737619685817593 0 0 0
4754 8 4 0.053 21.888374512484766 22.522748338003908 8.104743796819067 0 0 0
1689 3 1 -0.159 18.235201932254334 23.620265514867516 4.688207206071175 0 0 0
4752 8 4 0.053 20.557137940887078 23.752158571645463 8.324196130657477 0 0 0
1594 3 4 0.053 6.69424638911447 9.398809327481546 9.20399761367332 0 0 0
1578 3 4 0.053 6.010162450379085 6.711178702459774 12.50672734414286 0 0 0
523 1 4 0.053 10.190909665768952 20.523164661031593 5.6028597843753 0 0 1
1579 3 4 0.053 6.444630525120711 7.672779354596683 11.056117451860608 0 0 0
1573 3 3 0.702 7.89368390901893 8.24941945591678 13.5842587812513 0 0 0
1575 3 6 -0.396 7.985087739904479 7.30066002991147 12.576837567746443 0 0 0
1568 3 1 0 9.219378538504534 8.602885433600505 14.311623694800614 0 0 0
1574 3 5 -0.531 6.892571968750695 8.917552031538907 13.876680662773277 0 0 0
1576 3 1 0.066 6.800178870427171 7.0307564780813845 11.854409903616412 0 0 0
1586 3 4 0.053 9.92388029389392 8.14196812569279 11.408168776332055 0 0 0
1584 3 1 -0.159 10.60317683245776 9.04707219471996 11.541311226670084 0 0 0
1590 3 6 -0.396 8.532572924300625 9.847245069572141 9.989348526494553 0 0 0
1580 3 1 -0.106 9.441303981294258 10.016763293439308 13.621911200798687 0 0 0
1583 3 1 0 9.763677208081141 10.201714817657038 12.086416916242733 0 0 0
1588 3 3 0.702 8.448599375083829 10.44388670920554 11.274107103290795 0 0 0
1582 3 4 0.053 8.4585255215266 10.52075508782648 13.924898871615166 0 0 0
1572 3 4 0.053 10.552909889959018 6.907010025666782 15.162323218169078 0 0 0
1569 3 1 -0.159 10.40604999819615 7.515614704901422 14.195272463681388 0 0 0
1571 3 4 0.053 10.240340942127087 6.775178584882477 13.42688785712825 0 0 0
1570 3 4 0.053 11.296602671676634 8.138840214979286 14.012845841401337 0 0 0
1589 3 5 -0.531 7.500977587435985 11.094174996274013 11.552333666676319 0 0 0
1577 3 4 0.053 7.021782695744658 6.078859899882674 11.30110451239706 0 0 0
1294 3 4 0.053 12.41646480515503 11.610029849161553 23.681153658813116 0 0 0
5806 10 4 0.053 14.685338312839388 9.00993888324112 12.413546938319866 0 1 0
5812 10 1 0 15.52702464428632 4.493717479143787 14.713936715341347 0 1 0
1581 3 4 0.053 10.255577479727714 10.682341250455671 14.080392256762654 0 0 0
1585 3 4 0.053 11.490179393544764 8.742492001746237 12.256386025292844 0 0 0
1587 3 4 0.053 11.066818319985662 9.338276968179034 10.641708152333528 0 0 0
5817 10 3 0.702 14.282283073090776 4.861799729561677 13.989300981049576 0 1 0
5818 10 5 -0.531 13.460793785298325 5.609301150070385 14.48934749427267 0 1 0
1555 3 4 0.053 11.47348352874098 10.658238326472823 16.07190146728615 0 0 0
5808 10 4 0.053 14.156491584556237 7.555255513657231 11.727783125521677 0 1 0
5819 10 6 -0.396 14.104925377099956 4.278284963846861 12.77722038610264 0 1 0
5820 10 1 0.066 12.923436720831518 4.256429301926437 12.039865368319289 0 1 0
4229 8 4 0.053 23.891586657709762 11.688928748361906 21.589044217665037 0 0 0
5813 10 1 -0.159 15.540377729892112 5.348275573238647 15.952458292345646 0 1 0
1682 3 4 0.053 18.449609888990906 23.591022619136528 10.191867136935677 0 0 0
5791 10 4 0.053 21.637103326608997 7.571777416028423 16.090452129191323 0 1 0
5796 10 4 0.053 18.68875690658046 4.719571871476606 11.844062260624337 0 1 0
5784 10 4 0.053 19.362824900152546 7.481353823803607 10.304707570371338 0 1 0
5805 10 1 0.066 15.044678882302703 8.11059894529587 11.795547776643126 0 1 0
5783 10 1 -0.159 19.832695985413768 7.523792331417114 11.385975685986274 0 1 0
5802 10 3 0.702 16.785312357836457 6.379592733285914 12.206779801782588 0 1 0
5803 10 5 -0.531 16.51400138852837 5.82822289031734 11.150924210155504 0 1 0
5786 10 4 0.053 18.867229731505226 7.877417360973146 11.836717551033903 0 1 0
5798 10 1 -0.159 17.85613867972916 7.030099013579436 14.44204528469655 0 1 0
5782 10 1 0 20.271358340568295 6.307291140995689 12.262154246283552 0 1 0
5797 10 1 0 17.764761556788223 5.904192783952631 13.416311792564937 0 1 0
5801 10 4 0.053 18.21886674695391 7.86532610301934 13.988409154673704 0 1 0
5794 10 1 -0.106 19.02115085872751 5.347780163735848 12.650723566972424 0 1 0
5804 10 6 -0.396 16.11244889782118 7.5234145963180925 12.594170585760834 0 1 0
4258 8 4 0.053 19.74932098131238 11.85760133645475 14.415670751466267 0 0 0
5785 10 4 0.053 20.48436667792245 8.334201980116752 11.317086420726737 0 1 0
5787 10 3 0.702 20.893111574074616 6.932515391450158 13.628526648013935 0 1 0
5789 10 6 -0.396 21.395707073510273 6.093400359740794 14.76015673404023 0 1 0
5809 10 1 -0.106 16.946900461261052 4.572600147742172 13.931280018075933 0 1 0
5800 10 4 0.053 18.60447005603093 6.639729423897948 15.253379905234604 0 1 0
5799 10 4 0.053 16.953413929484753 7.338907148908135 15.028332268468715 0 1 0
5767 10 1 0 21.41167731323101 4.875122203238792 10.063616965963426 0 1 0
5773 10 5 -0.531 22.946462043868948 6.678660533634618 9.861609415720297 0 1 0
5779 10 1 -0.106 21.36332228216591 5.397000903218553 11.587086260941538 0 1 0
5788 10 5 -0.531 20.994358595131217 8.124973299556004 13.776592222357623 0 1 0
5780 10 4 0.053 22.202320714361306 5.887084344047668 11.895827736672851 0 1 0
3515 6 5 -0.531 23.29864292646335 9.188887056511597 12.529438817924662 0 1 0
1602 3 4 0.053 9.027843459291715 13.99884351743212 13.713790149536726 0 0 0
1599 3 1 -0.159 9.588122456312018 13.133095308298126 13.787509178774634 0 0 0
1601 3 4 0.053 8.884851320869545 12.330718680774948 13.952633492768328 0 0 0
1605 3 6 -0.396 9.12766151612781 13.180551520738303 10.394348278424012 0 0 0
1604 3 5 -0.531 9.36984770085802 15.095787414885537 11.569074895637394 0 0 0
1603 3 3 0.702 9.58378280946997 13.916574473208378 11.439861641530822 0 0 0