units real
atom_style full
boundary p p p

# --- Force Field Styles ---
pair_style lj/class2/coul/long 9.5 9.5
kspace_style pppm 1e-6
dielectric 1.000000
bond_style class2
angle_style class2
dihedral_style class2
improper_style class2
special_bonds lj/coul 0 0 1
pair_modify mix sixthpower tail yes
neighbor 2.0 bin
neigh_modify delay 0 every 1 check yes
neigh_modify one 4000
# KOKKOS: package loaded via -pk kokkos on the command line

read_data /home/alexzhao/PolyJarvis/data/PS2/lammps/equil/nvt_production/nvt_production_out.data
Reading data file ...
  orthogonal box = (4.1224696 4.1224696 4.1224696) to (46.612215 46.612215 46.612215)
  1 by 1 by 1 MPI processor grid
  reading atoms ...
  6420 atoms
  reading velocities ...
  6420 velocities
  scanning bonds ...
  4 = max bonds/atom
  scanning angles ...
  14 = max angles/atom
  scanning dihedrals ...
  34 = max dihedrals/atom
  scanning impropers ...
  11 = max impropers/atom
  orthogonal box = (4.1224696 4.1224696 4.1224696) to (46.612215 46.612215 46.612215)
  1 by 1 by 1 MPI processor grid
  reading bonds ...
  6810 bonds
  reading angles ...
  12000 angles
  reading dihedrals ...
  19110 dihedrals
  reading impropers ...
  5600 impropers
Finding 1-2 1-3 1-4 neighbors ...
  special bond factors lj:    0        0        1       
  special bond factors coul:  0        0        1       
     4 = max # of 1-2 neighbors
     8 = max # of 1-3 neighbors
    12 = max # of special neighbors
  special bonds CPU = 0.005 seconds
  read_data CPU = 0.437 seconds
include /home/alexzhao/PolyJarvis/data/PS2/lammps/equil/emc_build.params
# LAMMPS parameters created by EMC v9.4.4, build Jul 31 2025 20:33:44

# Variables

variable	seed		index	472916
variable	ntotal		index	6420
variable	fshape		index	1
variable	output		index	emc_build
variable	field		index	pcff/pcff
variable	location1	index	~/emc/field/
variable	nav		index	0.6022141179
variable	temperature	index	300
variable	radius		index	5
variable	nrelax		index	100
variable	weight_nonbond	index	0.0001
variable	weight_bond	index	0.0001
variable	weight_focus	index	1
variable	cutoff		index	9.5
variable	charge_cutoff	index	9.5
variable	kappa		index	4
variable	density1	index	0.53
variable	lprevious	index	0
variable	lphase		index	50.7346850343
variable	f_poly		index	10
variable	chem_repeat	index	*CC(c1ccccc1)*
variable	chem_cap	index	*[H]
variable	lg_repeat	index	16
variable	lg_cap		index	1
variable	norm_poly	index	100
variable	l_poly		index	642
variable	mg_repeat	index	92.14181
variable	mg_cap		index	1.00797
variable	m_poly		index	3687.68834
variable	n_poly		index	10
variable	mtotal		index	41681.3434
variable	nphase1		index	6420
variable	mphase1		index	41681.3434
variable	vphase1		index	130591.498627
variable	lbox		index	50.7346850343
variable	lphase1		index	50.7346850343
variable	lxx		index	50.7346850343
variable	lyy		index	50.7346850343
variable	lzz		index	50.7346850343
variable	lzy		index	0
variable	lzx		index	0
variable	lyx		index	0
variable	vtotal		index	130591.498627
variable	nl_poly		index	10

# Types

variable	type_c		index	1
variable	type_c1		index	2
variable	type_cp		index	3
variable	type_hc		index	4

variable	type_bond_c_c	index	1
variable	type_bond_c_c1	index	2
variable	type_bond_c_cp	index	3
variable	type_bond_c_hc	index	4
variable	type_bond_c1_cp	index	5
variable	type_bond_c1_hc	index	6
variable	type_bond_cp_cp	index	7
variable	type_bond_cp_hc	index	8

variable	type_angle_c_c_c1 index	1
variable	type_angle_c_c_cp index	2
variable	type_angle_c_c_hc index	3
variable	type_angle_c_c1_c index	4
variable	type_angle_c_c1_cp index	5
variable	type_angle_c_c1_hc index	6
variable	type_angle_c_cp_cp index	7
variable	type_angle_c1_c_c1 index	8
variable	type_angle_c1_c_hc index	9
variable	type_angle_c1_cp_cp index	10
variable	type_angle_cp_c_hc index	11
variable	type_angle_cp_c1_hc index	12
variable	type_angle_cp_cp_cp index	13
variable	type_angle_cp_cp_hc index	14
variable	type_angle_hc_c_hc index	15

# Clusters

variable	n0_poly		index	1
variable	n1_poly		index	10
variable	nl_poly		index	10

# Flags

variable	flag_charged	index	1

# Masses

mass		1    12.01115  # c
mass		2    12.01115  # c1
mass		3    12.01115  # cp
mass		4     1.00797  # hc

# Potentials

pair_modify	mix sixthpower tail yes
special_bonds	lj/coul 0 0 1

# Pair Coeffs

pair_coeff	 1  1    0.05400    4.01000  # c,c
pair_coeff	 2  2    0.05400    4.01000  # c1,c1
pair_coeff	 3  3    0.06400    4.01000  # cp,cp
pair_coeff	 4  4    0.02000    2.99500  # hc,hc

# Bond Coeffs

bond_coeff	1    1.53000  299.67000 -501.77000  679.81000  # c,c
bond_coeff	2    1.53000  299.67000 -501.77000  679.81000  # c,c1
bond_coeff	3    1.50100  321.90210 -521.82080  572.16280  # c,cp
bond_coeff	4    1.10100  345.00000 -691.89000  844.60000  # c,hc
bond_coeff	5    1.50100  321.90210 -521.82080  572.16280  # c1,cp
bond_coeff	6    1.10100  345.00000 -691.89000  844.60000  # c1,hc
bond_coeff	7    1.41700  470.83610 -627.61790 1327.63450  # cp,cp
bond_coeff	8    1.09820  372.82510 -803.45260  894.31730  # cp,hc

# Angle Coeffs

angle_coeff	 1  112.67000   39.51600   -7.44300   -9.55830  # c,c,c1
angle_coeff	 2  108.40000   43.95940   -8.39240   -9.33790  # c,c,cp
angle_coeff	 3  110.77000   41.45300  -10.60400    5.12900  # c,c,hc
angle_coeff	 4  112.67000   39.51600   -7.44300   -9.55830  # c,c1,c
angle_coeff	 5  108.40000   43.95940   -8.39240   -9.33790  # c,c1,cp
angle_coeff	 6  110.77000   41.45300  -10.60400    5.12900  # c,c1,hc
angle_coeff	 7  120.05000   44.71480  -22.73520    0.00000  # c,cp,cp
angle_coeff	 8  112.67000   39.51600   -7.44300   -9.55830  # c1,c,c1
angle_coeff	 9  110.77000   41.45300  -10.60400    5.12900  # c1,c,hc
angle_coeff	10  120.05000   44.71480  -22.73520    0.00000  # c1,cp,cp
angle_coeff	11  111.00000   44.32340   -9.44540    0.00000  # cp,c,hc
angle_coeff	12  111.00000   44.32340   -9.44540    0.00000  # cp,c1,hc
angle_coeff	13  118.90000   61.02260  -34.99310    0.00000  # cp,cp,cp
angle_coeff	14  117.94000   35.15580  -12.46820    0.00000  # cp,cp,hc
angle_coeff	15  107.66000   39.64100  -12.92100   -2.43180  # hc,c,hc

# BondBond Coeffs

angle_coeff	 1 bb    0.00000    1.53000    1.53000  # c,c,c1
angle_coeff	 2 bb    0.00000    1.53000    1.50100  # c,c,cp
angle_coeff	 3 bb    3.38720    1.53000    1.10100  # c,c,hc
angle_coeff	 4 bb    0.00000    1.53000    1.53000  # c,c1,c
angle_coeff	 5 bb    0.00000    1.53000    1.50100  # c,c1,cp
angle_coeff	 6 bb    3.38720    1.53000    1.10100  # c,c1,hc
angle_coeff	 7 bb   12.06760    1.50100    1.41700  # c,cp,cp
angle_coeff	 8 bb    0.00000    1.53000    1.53000  # c1,c,c1
angle_coeff	 9 bb    3.38720    1.53000    1.10100  # c1,c,hc
angle_coeff	10 bb   12.06760    1.50100    1.41700  # c1,cp,cp
angle_coeff	11 bb    2.91680    1.50100    1.10100  # cp,c,hc
angle_coeff	12 bb    2.91680    1.50100    1.10100  # cp,c1,hc
angle_coeff	13 bb   68.28560    1.41700    1.41700  # cp,cp,cp
angle_coeff	14 bb    1.07950    1.41700    1.09820  # cp,cp,hc
angle_coeff	15 bb    5.33160    1.10100    1.10100  # hc,c,hc

# BondAngle Coeffs

angle_coeff	 1 ba    8.01600    8.01600    1.53000    1.53000  # c,c,c1
angle_coeff	 2 ba    0.00000    0.00000    1.53000    1.50100  # c,c,cp
angle_coeff	 3 ba   20.75400   11.42100    1.53000    1.10100  # c,c,hc
angle_coeff	 4 ba    8.01600    8.01600    1.53000    1.53000  # c,c1,c
angle_coeff	 5 ba    0.00000    0.00000    1.53000    1.50100  # c,c1,cp
angle_coeff	 6 ba   20.75400   11.42100    1.53000    1.10100  # c,c1,hc
angle_coeff	 7 ba   47.05790   31.07710    1.50100    1.41700  # c,cp,cp
angle_coeff	 8 ba    8.01600    8.01600    1.53000    1.53000  # c1,c,c1
angle_coeff	 9 ba   20.75400   11.42100    1.53000    1.10100  # c1,c,hc
angle_coeff	10 ba   47.05790   31.07710    1.50100    1.41700  # c1,cp,cp
angle_coeff	11 ba   26.46080   11.77170    1.50100    1.10100  # cp,c,hc
angle_coeff	12 ba   26.46080   11.77170    1.50100    1.10100  # cp,c1,hc
angle_coeff	13 ba   28.87080   28.87080    1.41700    1.41700  # cp,cp,cp
angle_coeff	14 ba   20.00330   24.21830    1.41700    1.09820  # cp,cp,hc
angle_coeff	15 ba   18.10300   18.10300    1.10100    1.10100  # hc,c,hc

# Dihedral Coeffs

dihedral_coeff	 1    0.00000    0.00000    0.05140    0.00000   -0.14300    0.00000  # c,c,c1,c
dihedral_coeff	 2    0.00000    0.00000    0.00000    0.00000    0.15800  180.00000  # c,c,c1,cp
dihedral_coeff	 3    0.00000    0.00000    0.03160    0.00000   -0.16810    0.00000  # c,c,c1,hc
dihedral_coeff	 4   -0.28020    0.00000   -0.06780    0.00000   -0.01220    0.00000  # c,c,cp,cp
dihedral_coeff	 5    0.00000    0.00000    0.05140    0.00000   -0.14300    0.00000  # c,c1,c,c1
dihedral_coeff	 6    0.00000    0.00000    0.03160    0.00000   -0.16810    0.00000  # c,c1,c,hc
dihedral_coeff	 7   -0.28020    0.00000   -0.06780    0.00000   -0.01220    0.00000  # c,c1,cp,cp
dihedral_coeff	 8    0.00000    0.00000    4.40720    0.00000    0.00000    0.00000  # c,cp,cp,cp
dihedral_coeff	 9    0.00000    0.00000    1.55900    0.00000    0.00000    0.00000  # c,cp,cp,hc
dihedral_coeff	10    0.00000    0.00000    0.00000    0.00000    0.15800  180.00000  # c1,c,c,cp
dihedral_coeff	11    0.00000    0.00000    0.03160    0.00000   -0.16810    0.00000  # c1,c,c,hc
dihedral_coeff	12    0.00000    0.00000    0.00000    0.00000    0.15800  180.00000  # c1,c,c1,cp
dihedral_coeff	13    0.00000    0.00000    0.03160    0.00000   -0.16810    0.00000  # c1,c,c1,hc
dihedral_coeff	14    0.00000    0.00000    4.40720    0.00000    0.00000    0.00000  # c1,cp,cp,cp
dihedral_coeff	15    0.00000    0.00000    1.55900    0.00000    0.00000    0.00000  # c1,cp,cp,hc
dihedral_coeff	16   -0.02280    0.00000    0.02800    0.00000   -0.18630    0.00000  # cp,c,c,hc
dihedral_coeff	17   -0.02280    0.00000    0.02800    0.00000   -0.18630    0.00000  # cp,c1,c,hc
dihedral_coeff	18   -0.28010    0.00000   -0.06780    0.00000   -0.01220    0.00000  # cp,cp,c,hc
dihedral_coeff	19   -0.28010    0.00000   -0.06780    0.00000   -0.01220    0.00000  # cp,cp,c1,hc
dihedral_coeff	20    8.36670    0.00000    1.19320    0.00000    0.00000    0.00000  # cp,cp,cp,cp
dihedral_coeff	21    0.00000    0.00000    3.96610    0.00000    0.00000    0.00000  # cp,cp,cp,hc
dihedral_coeff	22   -0.14320    0.00000    0.06170    0.00000   -0.10830    0.00000  # hc,c,c,hc
dihedral_coeff	23   -0.14320    0.00000    0.06170    0.00000   -0.10830    0.00000  # hc,c,c1,hc
dihedral_coeff	24    0.00000    0.00000    1.87690    0.00000    0.00000    0.00000  # hc,cp,cp,hc

# MiddleBondTorsion Coeffs

dihedral_coeff	 1 mbt  -17.78700   -7.18770    0.00000    1.53000  # c,c,c1,c
dihedral_coeff	 2 mbt    0.00000    0.00000    0.00000    1.53000  # c,c,c1,cp
dihedral_coeff	 3 mbt  -14.87900   -3.65810   -0.31380    1.53000  # c,c,c1,hc
dihedral_coeff	 4 mbt    0.00000    0.00000    0.00000    1.50100  # c,c,cp,cp
dihedral_coeff	 5 mbt  -17.78700   -7.18770    0.00000    1.53000  # c,c1,c,c1
dihedral_coeff	 6 mbt  -14.87900   -3.65810   -0.31380    1.53000  # c,c1,c,hc
dihedral_coeff	 7 mbt    0.00000    0.00000    0.00000    1.50100  # c,c1,cp,cp
dihedral_coeff	 8 mbt    0.00000    9.17920    0.00000    1.41700  # c,cp,cp,cp
dihedral_coeff	 9 mbt    0.00000    3.94210    0.00000    1.41700  # c,cp,cp,hc
dihedral_coeff	10 mbt    0.00000    0.00000    0.00000    1.53000  # c1,c,c,cp
dihedral_coeff	11 mbt  -14.87900   -3.65810   -0.31380    1.53000  # c1,c,c,hc
dihedral_coeff	12 mbt    0.00000    0.00000    0.00000    1.53000  # c1,c,c1,cp
dihedral_coeff	13 mbt  -14.87900   -3.65810   -0.31380    1.53000  # c1,c,c1,hc
dihedral_coeff	14 mbt    0.00000    9.17920    0.00000    1.41700  # c1,cp,cp,cp
dihedral_coeff	15 mbt    0.00000    3.94210    0.00000    1.41700  # c1,cp,cp,hc
dihedral_coeff	16 mbt    0.00000    0.00000    0.00000    1.53000  # cp,c,c,hc
dihedral_coeff	17 mbt    0.00000    0.00000    0.00000    1.53000  # cp,c1,c,hc
dihedral_coeff	18 mbt   -5.56790    1.40830    0.30100    1.50100  # cp,cp,c,hc
dihedral_coeff	19 mbt   -5.56790    1.40830    0.30100    1.50100  # cp,cp,c1,hc
dihedral_coeff	20 mbt   27.59890   -2.31200    0.00000    1.41700  # cp,cp,cp,cp
dihedral_coeff	21 mbt    0.00000   -1.15210    0.00000    1.41700  # cp,cp,cp,hc
dihedral_coeff	22 mbt  -14.26100   -0.53220   -0.48640    1.53000  # hc,c,c,hc
dihedral_coeff	23 mbt  -14.26100   -0.53220   -0.48640    1.53000  # hc,c,c1,hc
dihedral_coeff	24 mbt    0.00000    4.82280    0.00000    1.41700  # hc,cp,cp,hc

# EndBondTorsion Coeffs

dihedral_coeff	 1 ebt   -0.07320    0.00000    0.00000   -0.07320    0.00000    0.00000    1.53000    1.53000  # c,c,c1,c
dihedral_coeff	 2 ebt    0.00000    0.00000    0.00000    0.00000    0.00000    0.00000    1.53000    1.50100  # c,c,c1,cp
dihedral_coeff	 3 ebt    0.24860    0.24220   -0.09250    0.08140    0.05910    0.22190    1.53000    1.10100  # c,c,c1,hc
dihedral_coeff	 4 ebt    0.00000    0.00000    0.00000    0.00000    0.00000    0.00000    1.53000    1.41700  # c,c,cp,cp
dihedral_coeff	 5 ebt   -0.07320    0.00000    0.00000   -0.07320    0.00000    0.00000    1.53000    1.53000  # c,c1,c,c1
dihedral_coeff	 6 ebt    0.24860    0.24220   -0.09250    0.08140    0.05910    0.22190    1.53000    1.10100  # c,c1,c,hc
dihedral_coeff	 7 ebt    0.00000    0.00000    0.00000    0.00000    0.00000    0.00000    1.53000    1.41700  # c,c1,cp,cp
dihedral_coeff	 8 ebt    0.00000    0.24210    0.00000    0.00000   -0.69180    0.00000    1.50100    1.41700  # c,cp,cp,cp
dihedral_coeff	 9 ebt    0.00000   -1.79700    0.00000    0.00000   -0.48790    0.00000    1.50100    1.09820  # c,cp,cp,hc
dihedral_coeff	10 ebt    0.00000    0.00000    0.00000    0.00000    0.00000    0.00000    1.53000    1.50100  # c1,c,c,cp
dihedral_coeff	11 ebt    0.24860    0.24220   -0.09250    0.08140    0.05910    0.22190    1.53000    1.10100  # c1,c,c,hc
dihedral_coeff	12 ebt    0.00000    0.00000    0.00000    0.00000    0.00000    0.00000    1.53000    1.50100  # c1,c,c1,cp
dihedral_coeff	13 ebt    0.24860    0.24220   -0.09250    0.08140    0.05910    0.22190    1.53000    1.10100  # c1,c,c1,hc
dihedral_coeff	14 ebt    0.00000    0.24210    0.00000    0.00000   -0.69180    0.00000    1.50100    1.41700  # c1,cp,cp,cp
dihedral_coeff	15 ebt    0.00000   -1.79700    0.00000    0.00000   -0.48790    0.00000    1.50100    1.09820  # c1,cp,cp,hc
dihedral_coeff	16 ebt    0.00000    0.00000    0.00000    0.00000    0.00000    0.00000    1.50100    1.10100  # cp,c,c,hc
dihedral_coeff	17 ebt    0.00000    0.00000    0.00000    0.00000    0.00000    0.00000    1.50100    1.10100  # cp,c1,c,hc
dihedral_coeff	18 ebt   -0.58350    1.12200    0.39780    1.39970    0.77560    0.00000    1.41700    1.10100  # cp,cp,c,hc
dihedral_coeff	19 ebt   -0.58350    1.12200    0.39780    1.39970    0.77560    0.00000    1.41700    1.10100  # cp,cp,c1,hc
dihedral_coeff	20 ebt   -0.11850    6.32040    0.00000   -0.11850    6.32040    0.00000    1.41700    1.41700  # cp,cp,cp,cp
dihedral_coeff	21 ebt    0.00000   -6.89580    0.00000    0.00000   -0.46690    0.00000    1.41700    1.09820  # cp,cp,cp,hc
dihedral_coeff	22 ebt    0.21300    0.31200    0.07770    0.21300    0.31200    0.07770    1.10100    1.10100  # hc,c,c,hc
dihedral_coeff	23 ebt    0.21300    0.31200    0.07770    0.21300    0.31200    0.07770    1.10100    1.10100  # hc,c,c1,hc
dihedral_coeff	24 ebt    0.00000   -0.68900    0.00000    0.00000   -0.68900    0.00000    1.09820    1.09820  # hc,cp,cp,hc

# AngleTorsion Coeffs

dihedral_coeff	 1 at    0.38860   -0.31390    0.13890    0.38860   -0.31390    0.13890  112.67000  112.67000  # c,c,c1,c
dihedral_coeff	 2 at    0.00000    0.00000    0.00000    0.00000    0.00000    0.00000  112.67000  108.40000  # c,c,c1,cp
dihedral_coeff	 3 at   -0.24540    0.00000   -0.11360    0.31130    0.45160   -0.19880  112.67000  110.77000  # c,c,c1,hc
dihedral_coeff	 4 at    0.00000    0.00000    0.00000    0.00000    0.00000    0.00000  108.40000  120.05000  # c,c,cp,cp
dihedral_coeff	 5 at    0.38860   -0.31390    0.13890    0.38860   -0.31390    0.13890  112.67000  112.67000  # c,c1,c,c1
dihedral_coeff	 6 at   -0.24540    0.00000   -0.11360    0.31130    0.45160   -0.19880  112.67000  110.77000  # c,c1,c,hc
dihedral_coeff	 7 at    0.00000    0.00000    0.00000    0.00000    0.00000    0.00000  108.40000  120.05000  # c,c1,cp,cp
dihedral_coeff	 8 at    0.00000   -4.46830    0.00000    0.00000    3.89870    0.00000  120.05000  118.90000  # c,cp,cp,cp
dihedral_coeff	 9 at    0.00000   -0.12420    0.00000    0.00000    3.46010    0.00000  120.05000  117.94000  # c,cp,cp,hc
dihedral_coeff	10 at    0.00000    0.00000    0.00000    0.00000    0.00000    0.00000  112.67000  108.40000  # c1,c,c,cp
dihedral_coeff	11 at   -0.24540    0.00000   -0.11360    0.31130    0.45160   -0.19880  112.67000  110.77000  # c1,c,c,hc
dihedral_coeff	12 at    0.00000    0.00000    0.00000    0.00000    0.00000    0.00000  112.67000  108.40000  # c1,c,c1,cp
dihedral_coeff	13 at   -0.24540    0.00000   -0.11360    0.31130    0.45160   -0.19880  112.67000  110.77000  # c1,c,c1,hc
dihedral_coeff	14 at    0.00000   -4.46830    0.00000    0.00000    3.89870    0.00000  120.05000  118.90000  # c1,cp,cp,cp
dihedral_coeff	15 at    0.00000   -0.12420    0.00000    0.00000    3.46010    0.00000  120.05000  117.94000  # c1,cp,cp,hc
dihedral_coeff	16 at    0.00000    0.00000    0.00000    0.00000    0.00000    0.00000  108.40000  110.77000  # cp,c,c,hc
dihedral_coeff	17 at    0.00000    0.00000    0.00000    0.00000    0.00000    0.00000  108.40000  110.77000  # cp,c1,c,hc
dihedral_coeff	18 at    0.22510    0.65480    0.12370    4.62660    0.16320    0.04610  120.05000  111.00000  # cp,cp,c,hc
dihedral_coeff	19 at    0.22510    0.65480    0.12370    4.62660    0.16320    0.04610  120.05000  111.00000  # cp,cp,c1,hc
dihedral_coeff	20 at    1.97670    1.02390    0.00000    1.97670    1.02390    0.00000  118.90000  118.90000  # cp,cp,cp,cp
dihedral_coeff	21 at    0.00000    2.50140    0.00000    0.00000    2.71470    0.00000  118.90000  117.94000  # cp,cp,cp,hc
dihedral_coeff	22 at   -0.80850    0.55690   -0.24660   -0.80850    0.55690   -0.24660  110.77000  110.77000  # hc,c,c,hc
dihedral_coeff	23 at   -0.80850    0.55690   -0.24660   -0.80850    0.55690   -0.24660  110.77000  110.77000  # hc,c,c1,hc
dihedral_coeff	24 at    0.00000    2.45010    0.00000    0.00000    2.45010    0.00000  117.94000  117.94000  # hc,cp,cp,hc

# AngleAngleTorsion Coeffs

dihedral_coeff	 1 aat  -22.04500  112.67000  112.67000  # c,c,c1,c
dihedral_coeff	 2 aat    0.00000  112.67000  108.40000  # c,c,c1,cp
dihedral_coeff	 3 aat  -16.16400  112.67000  110.77000  # c,c,c1,hc
dihedral_coeff	 4 aat    0.00000  108.40000  120.05000  # c,c,cp,cp
dihedral_coeff	 5 aat  -22.04500  112.67000  112.67000  # c,c1,c,c1
dihedral_coeff	 6 aat  -16.16400  112.67000  110.77000  # c,c1,c,hc
dihedral_coeff	 7 aat    0.00000  108.40000  120.05000  # c,c1,cp,cp
dihedral_coeff	 8 aat  -14.40970  120.05000  118.90000  # c,cp,cp,cp
dihedral_coeff	 9 aat    4.44440  120.05000  117.94000  # c,cp,cp,hc
dihedral_coeff	10 aat    0.00000  112.67000  108.40000  # c1,c,c,cp
dihedral_coeff	11 aat  -16.16400  112.67000  110.77000  # c1,c,c,hc
dihedral_coeff	12 aat    0.00000  112.67000  108.40000  # c1,c,c1,cp
dihedral_coeff	13 aat  -16.16400  112.67000  110.77000  # c1,c,c1,hc
dihedral_coeff	14 aat  -14.40970  120.05000  118.90000  # c1,cp,cp,cp
dihedral_coeff	15 aat    4.44440  120.05000  117.94000  # c1,cp,cp,hc
dihedral_coeff	16 aat    0.00000  108.40000  110.77000  # cp,c,c,hc
dihedral_coeff	17 aat    0.00000  108.40000  110.77000  # cp,c1,c,hc
dihedral_coeff	18 aat   -5.88880  120.05000  111.00000  # cp,cp,c,hc
dihedral_coeff	19 aat   -5.88880  120.05000  111.00000  # cp,cp,c1,hc
dihedral_coeff	20 aat    0.00000  118.90000  118.90000  # cp,cp,cp,cp
dihedral_coeff	21 aat   -4.81410  118.90000  117.94000  # cp,cp,cp,hc
dihedral_coeff	22 aat  -12.56400  110.77000  110.77000  # hc,c,c,hc
dihedral_coeff	23 aat  -12.56400  110.77000  110.77000  # hc,c,c1,hc
dihedral_coeff	24 aat    0.35980  117.94000  117.94000  # hc,cp,cp,hc

# BondBond13 Coeffs

dihedral_coeff	 1 bb13    0.00000    1.53000    1.53000  # c,c,c1,c
dihedral_coeff	 2 bb13    0.00000    1.53000    1.50100  # c,c,c1,cp
dihedral_coeff	 3 bb13    0.00000    1.53000    1.10100  # c,c,c1,hc
dihedral_coeff	 4 bb13    0.00000    1.53000    1.41700  # c,c,cp,cp
dihedral_coeff	 5 bb13    0.00000    1.53000    1.53000  # c,c1,c,c1
dihedral_coeff	 6 bb13    0.00000    1.53000    1.10100  # c,c1,c,hc
dihedral_coeff	 7 bb13    0.00000    1.53000    1.41700  # c,c1,cp,cp
dihedral_coeff	 8 bb13    2.50850    1.50100    1.41700  # c,cp,cp,cp
dihedral_coeff	 9 bb13    0.87430    1.50100    1.09820  # c,cp,cp,hc
dihedral_coeff	10 bb13    0.00000    1.53000    1.50100  # c1,c,c,cp
dihedral_coeff	11 bb13    0.00000    1.53000    1.10100  # c1,c,c,hc
dihedral_coeff	12 bb13    0.00000    1.53000    1.50100  # c1,c,c1,cp
dihedral_coeff	13 bb13    0.00000    1.53000    1.10100  # c1,c,c1,hc
dihedral_coeff	14 bb13    2.50850    1.50100    1.41700  # c1,cp,cp,cp
dihedral_coeff	15 bb13    0.87430    1.50100    1.09820  # c1,cp,cp,hc
dihedral_coeff	16 bb13    0.00000    1.50100    1.10100  # cp,c,c,hc
dihedral_coeff	17 bb13    0.00000    1.50100    1.10100  # cp,c1,c,hc
dihedral_coeff	18 bb13   -3.48260    1.41700    1.10100  # cp,cp,c,hc
dihedral_coeff	19 bb13   -3.48260    1.41700    1.10100  # cp,cp,c1,hc
dihedral_coeff	20 bb13   53.00000    1.41700    1.41700  # cp,cp,cp,cp
dihedral_coeff	21 bb13   -6.27410    1.41700    1.09820  # cp,cp,cp,hc
dihedral_coeff	22 bb13    0.00000    1.10100    1.10100  # hc,c,c,hc
dihedral_coeff	23 bb13    0.00000    1.10100    1.10100  # hc,c,c1,hc
dihedral_coeff	24 bb13   -1.70770    1.09820    1.09820  # hc,cp,cp,hc

# Improper Coeffs

improper_coeff	 1    0.00000    0.00000  # c,c,cp,hc
improper_coeff	 2    0.00000    0.00000  # c,c,hc,c1
improper_coeff	 3    0.00000    0.00000  # c,c,hc,cp
improper_coeff	 4    0.00000    0.00000  # c,c,hc,hc
improper_coeff	 5    0.00000    0.00000  # c,c1,c1,hc
improper_coeff	 6    0.00000    0.00000  # c,c1,hc,hc
improper_coeff	 7    0.00000    0.00000  # c,cp,hc,hc
improper_coeff	 8    0.00000    0.00000  # c,hc,hc,hc
improper_coeff	 9    0.00000    0.00000  # c1,c,c,cp
improper_coeff	10    0.00000    0.00000  # c1,c,c,hc
improper_coeff	11    0.00000    0.00000  # c1,c,cp,hc
improper_coeff	12    7.81530    0.00000  # cp,c,cp,cp
improper_coeff	13    7.81530    0.00000  # cp,c1,cp,cp
improper_coeff	14    4.89120    0.00000  # cp,cp,cp,hc

# AngleAngle Coeffs

improper_coeff	 1 aa    2.04030   -1.82020    1.08270  108.40000  110.77000  111.00000  # c,c,cp,hc
improper_coeff	 2 aa    0.11840   -1.31990   -1.31990  110.77000  112.67000  110.77000  # c,c,hc,c1
improper_coeff	 3 aa    1.08270   -1.82020    2.04030  110.77000  108.40000  111.00000  # c,c,hc,cp
improper_coeff	 4 aa    0.27380   -0.48250    0.27380  110.77000  110.77000  107.66000  # c,c,hc,hc
improper_coeff	 5 aa   -1.31990   -1.31990    0.11840  112.67000  110.77000  110.77000  # c,c1,c1,hc
improper_coeff	 6 aa    0.27380   -0.48250    0.27380  110.77000  110.77000  107.66000  # c,c1,hc,hc
improper_coeff	 7 aa    2.37940    3.01180    2.37940  111.00000  111.00000  107.66000  # c,cp,hc,hc
improper_coeff	 8 aa   -0.31570   -0.31570   -0.31570  107.66000  107.66000  107.66000  # c,hc,hc,hc
improper_coeff	 9 aa    0.00000    0.00000    0.00000  112.67000  108.40000  108.40000  # c1,c,c,cp
improper_coeff	10 aa   -1.31990   -1.31990    0.11840  112.67000  110.77000  110.77000  # c1,c,c,hc
improper_coeff	11 aa    2.04030   -1.82020    1.08270  108.40000  110.77000  111.00000  # c1,c,cp,hc
improper_coeff	12 aa    0.00000    0.00000    0.00000  120.05000  120.05000  118.90000  # cp,c,cp,cp
improper_coeff	13 aa    0.00000    0.00000    0.00000  120.05000  120.05000  118.90000  # cp,c1,cp,cp
improper_coeff	14 aa    0.00000    0.00000    0.00000  118.90000  117.94000  117.94000  # cp,cp,cp,hc


# --- Thermo Output ---
thermo_style custom step time temp press enthalpy etotal ke pe ebond eangle edihed eimp evdwl ecoul elong etail vol lx ly lz density pxx pyy pzz
thermo_modify flush yes
thermo 500

# --- Velocity initialization at T_START (once only — Rule A) ---
velocity all create 600.0 24618 mom yes rot yes dist gaussian

# --- Temperature staircase (inherits momenta across steps — Rule A) ---
variable temps index 600 580 560 540 520 500 480 460 440 420 400 380 360 340 320 300 280 260 240 220 200
label TEMP_LOOP
  timestep 1
  fix npt_tg all npt temp ${temps} ${temps} 100 iso 1.0 1.0 1000.0
  fix npt_tg all npt temp 600 ${temps} 100 iso 1.0 1.0 1000.0
  fix npt_tg all npt temp 600 600 100 iso 1.0 1.0 1000.0
  run 125000
PPPM Kokkos initialization ...
  using 12-bit tables for long-range coulomb
  G vector (1/distance) = 0.30017842
  grid = 30 30 30
  stencil order = 5
  estimated absolute RMS force accuracy = 0.0002967605
  estimated relative force accuracy = 8.9368544e-07
  using double precision cuFFT
  3d grid and FFT values/proc = 50653 27000
Generated 6 of 6 mixed pair_coeff terms from sixthpower/sixthpower mixing rule
Neighbor list info ...
  update: every = 1 steps, delay = 0 steps, check = yes
  max neighbors/atom: 4000, page size: 100000
  master list distance cutoff = 11.5
  ghost atom cutoff = 11.5
  binsize = 11.5, bins = 4 4 4
  1 neighbor lists, perpetual/occasional/extra = 1 0 0
  (1) pair lj/class2/coul/long/kk, perpetual
      attributes: full, newton off, kokkos_device
      pair build: full/bin/kk/device
      stencil: full/bin/3d
      bin: kk/device
Per MPI rank memory allocation (min/avg/max) = 41.12 | 41.12 | 41.12 Mbytes
   Step          Time           Temp          Press         Enthalpy        TotEng         KinEng         PotEng         E_bond        E_angle        E_dihed        E_impro         E_vdwl         E_coul         E_long         E_tail         Volume           Lx             Ly             Lz          Density          Pxx            Pyy            Pzz      
         0   0              600            354.54595      20675.878      20279.234      11480.292      8798.9421      4698.0246      4030.7083     -1060.9093      363.62795      843.06383      3831.7909     -3907.3642     -374.9481       76710.074      42.489746      42.489746      42.489746      0.90227384     375.87306      426.07767      261.68711    
       500   500            602.94224      3062.3983      25089.873      21659.581      11536.588      10122.993      5154.9875      4545.4097     -856.27117      403.2807       946.12856      3832.5228     -3903.065      -374.4812       76805.716      42.507397      42.507397      42.507397      0.90115028     4141.3854      2723.7712      2322.0383    
      1000   1000           598.66082     -345.0694       21303.164      21699.298      11454.668      10244.629      5252.461       4502.0859     -787.34519      428.92257      908.34102      3837.7059     -3897.5419     -365.39662      78715.277      42.856794      42.856794      42.856794      0.8792892      856.70403     -1822.7075     -69.204716    
      1500   1500           597.08153     -81.697144      21407.414      21501.147      11424.45       10076.697      5129.9209      4528.1283     -876.78758      411.47949      957.61781      3818.4626     -3892.1246     -365.60581      78670.239      42.848618      42.848618      42.848618      0.87979259     272.88382      1121.5379     -1639.5131    
      2000   2000           593.92425      758.48299      22259.872      21391.921      11364.04       10027.881      5063.7862      4464.5857     -789.60432      424.11005      945.83682      3815.5434     -3896.3766     -366.56431      78464.531      42.811239      42.811239      42.811239      0.88209911     749.88865      1564.0975     -38.537189    
      2500   2500           597.91974      1153.0954      22602.41       21292.188      11440.488      9851.6992      5057.174       4442.1431     -878.7004       398.20676      903.11388      3824.5254     -3894.7636     -369.16427      77911.918      42.710498      42.710498      42.710498      0.88835565     688.58798     -57.990172      2828.6885    
      3000   3000           603.85252      1718.565       23522.68       21574.065      11554.005      10020.059      5074.0485      4555.1239     -864.93243      416.87258      916.14473      3827.6697     -3904.8678     -369.94673      77747.129      42.680365      42.680365      42.680365      0.89023857     1954.0838      899.78134      2301.8299    
      3500   3500           602.47345     -636.74563      20804.187      21529.021      11527.618      10001.402      5056.164       4611.9175     -855.09331      384.3968       869.10495      3833.7309     -3898.8185     -368.49085      78054.302      42.7365        42.7365        42.7365        0.88673515     1523.1001     -1980.4436     -1452.8934    
      4000   4000           598.2205      -655.86144      20499.665      21246.458      11446.243      9800.2148      4967.8405      4422.5864     -859.87236      400.0758       931.46674      3835.4706     -3897.3529     -368.39283      78075.072      42.74029       42.74029       42.74029       0.88649925    -1995.0906      191.56777     -164.06149    
      4500   4500           585.35063     -1081.599       20056.695      21290.623      11199.994      10090.629      5160.5202      4471.7046     -812.85291      395.69707      936.359        3836.3493     -3897.1478     -367.68498      78225.378      42.7677        42.7677        42.7677        0.88479589    -1654.305      -546.06688     -1044.4252    
      5000   5000           587.19936      1372.7977      22947.216      21396.054      11235.367      10160.687      5187.7439      4597.4681     -924.71811      403.39837      961.82396      3833.8638     -3898.893      -371.23495      77477.34       42.630939      42.630939      42.630939      0.89333852     552.45598      709.01565      2856.9214    
      5500   5500           599.76618     -833.1989       20472.715      21420.807      11475.818      9944.989       5067.3045      4472.2976     -838.17367      393.34259      911.16215      3835.6442     -3896.5883     -368.63607      78023.554      42.730887      42.730887      42.730887      0.8870846     -924.45178     -3.0789186     -1572.066     
      6000   6000           602.75546      556.39461      22220.339      21580.942      11533.014      10047.928      5113.6829      4408.5778     -805.46804      415.12678      984.54592      3831.5287     -3900.0663     -365.01595      78797.368      42.871687      42.871687      42.871687      0.87837315     1265.5406     -469.4964       873.1396     
      6500   6500           600.91628     -1311.3683      20078.179      21583.623      11497.824      10085.799      5098.411       4557.5948     -817.51108      416.77405      896.95021      3833.3253     -3899.7449     -365.39242      78716.183      42.856958      42.856958      42.856958      0.87927908    -4542.1628      205.76594      402.29197    
      7000   7000           597.71838     -286.19978      21262.774      21587.993      11436.636      10151.358      5025.4067      4587.122      -783.23698      432.94363      947.83893      3832.292      -3891.0085     -369.14147      77916.73       42.711377      42.711377      42.711377      0.88830079    -889.12755      514.15991     -483.63169    
      7500   7500           600.7942      -106.62588      21355.179      21478.792      11495.488      9983.304       5094.4753      4395.1987     -818.77624      397.288        976.17415      3835.5369     -3896.5929     -361.82564      79492.146      42.997322      42.997322      42.997322      0.870696      -634.11364     -184.80112      499.03712    
      8000   8000           597.54361     -467.62192      20805.87       21349.599      11433.292      9916.3077      5031.6502      4480.911      -905.74488      389.73013      980.52839      3832.2731     -3893.0402     -360.75398      79728.287      43.039856      43.039856      43.039856      0.86811715    -1328.7094      198.37128     -272.52765    
      8500   8500           592.70435      891.54229      22377.827      21351.294      11340.698      10010.596      5136.7106      4552.6917     -973.81935      392.76089      982.5007       3819.9801     -3900.2288     -364.30778      78950.542      42.899448      42.899448      42.899448      0.876669       725.05365      395.33289      1554.2403    
      9000   9000           601.97163      352.50064      21940.14       21534.385      11518.017      10016.369      4963.6246      4645.5237     -929.71441      385.67405      1009.3273      3835.6261     -3893.6927     -364.41412      78927.503      42.895275      42.895275      42.895275      0.8769249      1373.5375     -417.67962      101.644      
      9500   9500           608.58453     -1517.9061      19983.839      21754.444      11644.547      10109.897      5178.2081      4499.0125     -854.40282      400.46628      935.5376       3843.2515     -3892.1762     -359.60261      79983.56       43.085742      43.085742      43.085742      0.8653465     -1879.3734     -2101.8248     -572.52011    
     10000   10000          584.62831     -291.27254      20651.459      20991.879      11186.173      9805.7061      4977.2845      4465.2058     -874.52104      386.63574      912.23649      3830.8085     -3891.9438     -358.90886      80138.163      43.113485      43.113485      43.113485      0.86367706    -53.91241       183.2141      -1003.1193    
     10500   10500          600.91199     -887.42523      20603.01       21626.495      11497.742      10128.754      5130.4252      4505.2138     -770.52406      408.43361      917.90964      3835.3873     -3898.0918     -363.7053       79081.323      42.923123      42.923123      42.923123      0.87521921     66.075761     -1200.8244     -1527.5271    
     11000   11000          598.83118      93.215891      21607.811      21500.823      11457.928      10042.895      5153.7758      4440.5766     -911.46744      392.07215      1041.1918      3820.2018     -3893.456      -365.47177      78699.092      42.853856      42.853856      42.853856      0.87947003    -1044.0067      426.38817      897.26621    
     11500   11500          603.1418       1603.7222      23423.682      21573.737      11540.406      10033.33       5039.6779      4513.9788     -820.99794      423.72298      952.31963      3823.9258     -3899.297      -363.63836      79095.881      42.925756      42.925756      42.925756      0.87505812     1583.7029     -320.46666      3547.9303    
     12000   12000          601.45643      163.48616      21993.314      21804.044      11508.159      10295.885      4966.2735      4615.5408     -691.82137      416.52789      1052.1009      3826.5085     -3889.2451     -362.32484      79382.625      42.977566      42.977566      42.977566      0.87189726     211.29596     -115.4656       394.62812    
     12500   12500          588.88339     -2077.2941      18845.561      21254.645      11267.589      9987.0561      5035.3471      4352.9925     -744.68536      407.78056      1004.8867      3828.6675     -3897.9328     -361.69758      79520.291      43.002396      43.002396      43.002396      0.87038783    -2758.0587     -2628.058      -845.76548    
     13000   13000          601.69954     -590.67609      20671.571      21363.688      11512.811      9850.8777      4924.2531      4432.0277     -767.20272      416.67638      899.10768      3833.3306     -3887.3151     -357.98858      80344.173      43.150397      43.150397      43.150397      0.86146251    -700.0425      -657.50188     -414.48389    
     13500   13500          601.01761      714.71625      22499.43       21659.189      11499.763      10159.426      4944.4822      4676.2358     -857.82123      422.61633      1032.5126      3827.642      -3886.2416     -356.80367      80610.989      43.19811       43.19811       43.19811       0.85861114    -152.8388       1314.5055      982.48206    
     14000   14000          597.50032      576.38111      22121.63       21457.819      11432.463      10025.356      4960.004       4532.9192     -826.39326      417.88853      1020.6792      3813.6723     -3893.4143     -364.22077      78969.403      42.902864      42.902864      42.902864      0.87645963    -375.38897      531.26958      1573.2627    
     14500   14500          596.42022      268.84932      21837.12       21531.061      11411.797      10119.264      5087.8546      4605.272      -872.03648      404.23034      964.35751      3825.1722     -3895.5865     -368.46992      78058.738      42.737309      42.737309      42.737309      0.88668476    -196.61144      967.65857      35.500837    
     15000   15000          613.39986     -166.07731      21618.185      21809.685      11736.682      10073.003      5041.8893      4632.6801     -918.47862      388.15982      987.41141      3835.9448     -3894.604      -363.78237      79064.569      42.920091      42.920091      42.920091      0.87540467     201.35388      19.499011     -719.08481    
     15500   15500          613.27003      272.56557      22144.588      21827.001      11734.198      10092.803      5156.3422      4542.0008     -906.11476      394.68636      951.90516      3848.0189     -3894.0358     -360.00411      79894.356      43.069719      43.069719      43.069719      0.86631267    -950.66366      400.86084      1367.4995    
     16000   16000          597.27502     -410.43873      21176.327      21654.561      11428.152      10226.409      5068.4383      4450.4831     -703.35404      418.42794      1052.6549      3830.9855     -3891.2271     -360.00386      79894.412      43.069729      43.069729      43.069729      0.86631207    -2049.9802     -253.30868      1071.9727    
     16500   16500          601.01411      238.42484      21841.524      21563.503      11499.696      10063.808      5012.0359      4528.5052     -836.79722      411.31587      1008.6911      3834.0696     -3894.0128     -359.72729      79955.837      43.080763      43.080763      43.080763      0.86564654    -68.807745     -187.92072      972.00298    
     17000   17000          596.29668      356.05604      21716.677      21299.938      11409.433      9890.5043      4980.5323      4482.9994     -871.3881       397.39853      968.31288      3823.7458     -3891.0964     -358.38771      80254.694      43.134372      43.134372      43.134372      0.86242298     1566.5491     -711.49991      213.11898    
     17500   17500          585.57733     -678.87192      20519.913      21310.17       11204.331      10105.839      5129.2127      4514.1257     -860.69006      408.75968      989.26252      3820.5462     -3895.3774     -360.34504      79818.766      43.056131      43.056131      43.056131      0.86713308    -344.67766     -600.65113     -1091.287     
     18000   18000          599.31167     -588.51483      20861.99       21547.725      11467.121      10080.604      5056.3325      4527.2195     -876.83403      394.50923      1048.5294      3823.9819     -3893.1347     -359.99803      79895.706      43.069961      43.069961      43.069961      0.86629803     1662.903      -2580.8568     -847.59071    
     18500   18500          600.08725     -940.90302      20425.053      21526.639      11481.961      10044.677      5111.1531      4535.607      -904.05223      386.74672      977.45433      3827.2576     -3889.4889     -358.28287      80278.18       43.138579      43.138579      43.138579      0.86217068    -1951.8283     -245.05371     -625.82705    
     19000   19000          602.73863     -150.25483      21491.147      21665.315      11532.692      10132.622      5134.4128      4541.2402     -852.39773      394.21866      976.63667      3834.666      -3896.1541     -361.87674      79480.92       42.995298      42.995298      42.995298      0.87081897    -1827.0703     -282.6067       1658.9125    
     19500   19500          600.96129     -913.20763      20549.293      21596.175      11498.685      10097.49       5094.2581      4533.7148     -804.3827       404.82911      938.71758      3828.0054     -3897.6525     -365.90758      78605.359      42.836836      42.836836      42.836836      0.88051875    -1783.6513     -48.979415     -906.99216    
     20000   20000          594.79013      1693.9886      23547.771      21596.611      11380.607      10216.004      5221.7066      4577.5997     -908.38303      415.47517      977.77925      3832.6417     -3900.815      -364.18089      78978.05       42.90443       42.90443       42.90443       0.87636366     621.01836      3483.0896      977.85769    
     20500   20500          593.88585      976.82348      22698.566      21565.171      11363.305      10201.866      5184.9846      4573.9012     -897.81447      404.29199      993.86993      3835.811      -3893.1783     -361.52155      79559.01       43.009374      43.009374      43.009374      0.86996423     1145.1306     -61.780279      1847.1201    
     21000   21000          601.22521     -171.29508      21295.044      21493.871      11503.735      9990.1358      5161.5273      4470.1183     -915.73931      389.21894      967.05397      3815.4793     -3897.5227     -361.38457      79589.167      43.014808      43.014808      43.014808      0.8696346      396.7824       1242.2821     -2152.9497    
     21500   21500          594.89396      755.1169       22400.568      21541.011      11382.594      10158.418      5192.7845      4600.9503     -950.0428       397.5543       989.85671      3829.9685     -3902.654      -368.50122      78052.107      42.736099      42.736099      42.736099      0.88676008     226.36458      1432.0996      606.88647    
     22000   22000          600.0486       1603.4275      23294.445      21479.345      11481.222      9998.1238      5155.0562      4482.0764     -891.06057      417.27568      909.76796      3836.2507     -3911.2426     -370.55129      77620.285      42.657141      42.657141      42.657141      0.89169336     2616.2988      1950.7871      243.19665    
     22500   22500          585.97895     -380.00961      20921.657      21355.798      11212.016      10143.783      5093.7864      4563.0939     -831.44687      401.43617      986.02503      3831.037      -3900.149      -367.16674      78335.789      42.787811      42.787811      42.787811      0.88354881    -1669.2742     -1018.4699      1547.7152    
     23000   23000          591.70906      230.03528      21777.438      21510.779      11321.655      10189.125      5049.5213      4651.7657     -817.47938      411.93021      968.71428      3826.456      -3901.7836     -361.85786      79485.068      42.996046      42.996046      42.996046      0.87077352    -275.35618     -2.560395       968.02241    
     23500   23500          595.84045     -915.6192       20695.634      21754.434      11400.704      10353.73       5312.9538      4550.9792     -848.75793      415.18563      1008.1659      3817.409      -3902.205      -362.74404      79290.886      42.961004      42.961004      42.961004      0.87290604     253.51569     -2977.0937     -23.279586    
     24000   24000          609.87056     -1698.3664      19913.973      21881.022      11669.153      10211.869      5178.2834      4559.1147     -769.8967       413.03705      890.83559      3841.1035     -3900.6087     -362.17259      79415.996      42.983588      42.983588      42.983588      0.87153088    -5077.0094      473.96844     -492.05841    
     24500   24500          594.36434      1620.2136      23294.887      21433.151      11372.46       10060.69       5175.6945      4476.6283     -908.643        400.32799      979.37236      3839.4244     -3902.1142     -365.05087      78789.831      42.87032       42.87032       42.87032       0.87845719     3162.5673      217.64081      1480.4326    
     25000   25000          606.36799     -1398.1212      20018.971      21632.364      11602.136      10030.229      5226.3207      4515.4116     -918.77872      384.91687      898.70994      3821.8967     -3898.2484     -363.49959      79126.076      42.931218      42.931218      42.931218      0.87472419    -1381.2748     -1076.6041     -1736.4847    
     25500   25500          600.52037     -1755.5683      19627.209      21637.964      11490.248      10147.716      5078.7427      4629.5347     -792.6143       387.25709      933.19499      3819.5678     -3907.9673     -366.23345      78535.417      42.824127      42.824127      42.824127      0.88130293    -2056.1752     -2649.8957     -560.63386    
     26000   26000          596.74453      588.23042      22108.644      21437.256      11418.002      10019.254      5125.0646      4537.5445     -954.37202      391.21008      1008.9753      3817.749      -3906.9178     -367.51328      78261.923      42.774359      42.774359      42.774359      0.88438272     683.71772      580.16983      500.80372    
     26500   26500          592.7767      -614.55601      20549.442      21259.142      11342.083      9917.0596      5104.884       4452.7856     -880.32044      391.63867      908.56039      3835.7129     -3896.2015     -363.23371      79183.995      42.94169       42.94169       42.94169       0.87408438    -1329.8618      136.45941     -650.26558    
     27000   27000          606.61724      508.67762      22235.481      21647.152      11606.905      10040.247      5166.2029      4495.7498     -950.33597      381.89887      1030.5334      3816.7213     -3900.5231     -362.67854      79305.206      42.96359       42.96359       42.96359       0.87274842     3253.0228     -2443.2183      716.22839    
     27500   27500          606.57562      792.83093      22601.857      21690.44       11606.109      10084.332      5066.0367      4502.4859     -863.80659      414.19211      1055.6217      3812.4542     -3902.6524     -364.89087      78824.38       42.876585      42.876585      42.876585      0.87807215     572.18732      1247.1689      559.13651    
     28000   28000          600.00042      2780.4799      24688.965      21478.37       11480.3        9998.0703      5187.9029      4567.6072     -991.91211      387.28618      928.13733      3815.8877     -3896.839      -363.27349      79175.324      42.940123      42.940123      42.940123      0.8741801      3055.8228      1307.6186      3977.9983    
     28500   28500          595.93157      1382.4917      23081.57       21472.08       11402.447      10069.633      5053.9253      4556.4355     -877.26944      394.06426      1020.1708      3825.0583     -3902.7519     -360.3078       79827.015      43.057614      43.057614      43.057614      0.86704348     2316.8785      1555.3849      275.21175    
     29000   29000          601.84366      61.983379      21969.776      21897.991      11515.568      10382.423      5208.4676      4643.8881     -825.32061      413.43229      1016.8556      3824.4454     -3899.3449     -362.19562      79410.945      42.982677      42.982677      42.982677      0.87158631     69.769365     -154.20856      270.38933    
     29500   29500          605.73236      334.98015      22109.405      21723.505      11589.974      10133.531      5008.9681      4555.3279     -785.27913      408.04285      1015.6075      3829.8298     -3898.9658     -364.11907      78991.458      42.906858      42.906858      42.906858      0.87621491    -1386.2696      627.6571       1763.5529    
     30000   30000          600.25856     -78.545459      21321.463      21412.328      11485.239      9927.0886      4995.6898      4443.9824     -830.13653      396.33639      1007.6124      3817.6643     -3904.0601     -362.59726      79322.984      42.9668        42.9668        42.9668        0.87255281    -953.83094     -486.70533      1204.8999    
     30500   30500          600.71548      589.56977      22163.872      21474.047      11493.982      9980.0648      5022.5808      4506.9929     -898.61835      400.38045      1013.2006      3830.5128     -3894.9844     -358.5052       80228.395      43.12966       43.12966       43.12966       0.86270569     2101.6209     -1839.1987      1506.2871    
     31000   31000          607.12455     -841.57934      20888.382      21881.078      11616.612      10264.466      5184.8005      4551.9076     -837.02423      416.86061      1023.7702      3817.9939     -3893.8428     -355.61379      80880.711      43.246237      43.246237      43.246237      0.85574783     503.02405     -1270.9158     -1756.8463    
     31500   31500          606.86117     -315.65935      21204.21       21572.296      11611.572      9960.724       5039.0105      4456.528      -838.6086       393.69461      985.66905      3820.9876     -3896.5572     -359.72281      79956.832      43.080942      43.080942      43.080942      0.86563576    -31.832612     -1929.1735      1014.0281    
     32000   32000          593.72315     -33.405156      21382.001      21420.469      11360.192      10060.278      5135.3105      4544.5745     -850.1106       397.44175      902.53983      3830.9738     -3900.452      -364.25509      78961.962      42.901516      42.901516      42.901516      0.87654222     2144.5393     -698.77691     -1545.9778    
     32500   32500          600.00558      233.28158      21796.344      21528.281      11480.399      10047.882      5042.8226      4491.6382     -757.47848      416.15109      935.57093      3822.622      -3903.4439     -365.04167      78791.816      42.87068       42.87068       42.87068       0.87843505     678.75379     -1205.7471      1226.8381    
     33000   33000          607.39587      1643.91        23447.688      21562.979      11621.803      9941.1754      5034.2734      4387.9909     -793.17962      411.68107      968.94756      3832.7826     -3901.3206     -365.8752       78612.315      42.838099      42.838099      42.838099      0.88044085     2578.7195      2209.024       143.98655    
     33500   33500          599.67142      648.32386      22291.056      21545.694      11474.005      10071.689      4977.5013      4608.8355     -845.6593       412.62063      1008.0863      3817.0424     -3906.7375     -364.85824      78831.429      42.877863      42.877863      42.877863      0.87799364    -20.908982      363.96923      1601.9113    
     34000   34000          593.76022      38.038519      21467.948      21423.859      11360.901      10062.958      5113.8408      4541.4569     -865.74562      403.00074      964.57598      3809.8651     -3904.0356     -361.9077       79474.121      42.994072      42.994072      42.994072      0.87089347    -877.95203      1405.748      -413.68043    
     34500   34500          594.29091      1798.8435      23538.662      21458.789      11371.055      10087.733      5074.2055      4497.7489     -880.7229       400.33645      1070.7064      3823.4246     -3897.9655     -362.79053      79280.726      42.959169      42.959169      42.959169      0.8730179      3458.6881      1614.3747      323.46774    
     35000   35000          601.03619      672.64652      22180.235      21406.986      11500.118      9906.8675      4990.4175      4475.8776     -862.675        412.50392      974.94152      3817.2982     -3901.4962     -364.89389      78823.727      42.876467      42.876467      42.876467      0.87807942     222.75584      1482.6562      312.52751    
     35500   35500          605.07911     -813.55837      20667.152      21606.627      11577.475      10029.152      5058.1485      4475.4476     -795.70833      408.41706      959.813        3824.5112     -3901.4768     -363.24777      79180.93       42.941136      42.941136      42.941136      0.87411821    -480.90643     -149.48536     -1810.2833    
     36000   36000          597.24863     -806.64243      20788.544      21710.93       11427.648      10283.283      5141.7596      4540.3487     -715.4491       432.654        969.54735      3816.3224     -3901.9003     -366.83261      78407.142      42.800799      42.800799      42.800799      0.88274475    -268.57733      221.95617     -2373.3061    
     36500   36500          605.88836     -1287.3528      20063.211      21549.111      11592.959      9956.1524      5013.0123      4481.7011     -819.50701      402.57472      972.75165      3803.915      -3898.2953     -363.41891      79143.643      42.934395      42.934395      42.934395      0.87453004    -2105.7491     -1797.3917      41.082372    
     37000   37000          602.66557     -1510.8858      19823.826      21592.479      11531.294      10061.185      5135.775       4416.5936     -799.432        415.4563       967.89934      3824.0361     -3899.1436     -358.33433      80266.652      43.136514      43.136514      43.136514      0.86229451    -796.72672     -1975.8697     -1760.0611    
     37500   37500          598.25352     -512.74721      20595.916      21186.088      11446.875      9739.2134      4898.4637      4453.584      -821.47109      403.7848       875.71713      3829.4448     -3900.3099     -364.43801      78922.329      42.894337      42.894337      42.894337      0.8769824     -1560.5391      394.02819     -371.73067    
     38000   38000          598.0055       1100.2353      22849.771      21593.585      11442.129      10151.455      5074.7902      4582.8309     -849.28708      423.54999      1006.7094      3815.6882     -3902.8265     -367.39293      78287.561      42.779029      42.779029      42.779029      0.8840931      633.41981      229.79294      2437.4933    
     38500   38500          603.7285       73.517268      21678.79       21593.823      11551.632      10042.19       4959.3285      4592.5905     -874.69052      407.27602      1046.9346      3813.7307     -3902.9795     -362.94313      79247.392      42.953147      42.953147      42.953147      0.87338512     1265.3199     -636.81131     -407.9568     
     39000   39000          593.26681     -290.62106      21117.18       21454.654      11351.46       10103.193      5146.5627      4490.1705     -865.89348      412.84294      990.17944      3830.6617     -3901.3305     -361.23214      79622.749      43.020857      43.020857      43.020857      0.86926781     317.23087     -449.14752     -739.94652    
     39500   39500          596.9663      -270.66337      20993.538      21302.365      11422.246      9880.1199      5017.5776      4491.2927     -861.90226      398.89093      904.62998      3828.7319     -3899.1009     -367.63229      78236.59       42.769743      42.769743      42.769743      0.88466909    -47.005948     -254.03997     -510.94419    
     40000   40000          585.83361     -99.937648      21100.599      21215.574      11209.235      10006.34       4934.3676      4613.2533     -818.68539      387.41685      964.19181      3827.1292     -3901.3337     -364.60645      78885.868      42.887731      42.887731      42.887731      0.87738774    -79.468483     -1036.6149      816.27048    
     40500   40500          603.16327      286.78211      21879.15       21547.521      11540.817      10006.704      5060.0411      4508.6275     -872.51951      414.94457      967.95834      3825.8638     -3898.212      -362.74325      79291.06       42.961036      42.961036      42.961036      0.87290412    -176.91647      329.98972      707.27307    
     41000   41000          602.27136     -531.03502      21210.931      21822.716      11523.752      10298.965      5044.5108      4655.7052     -718.58887      419.22776      969.27189      3827.412      -3898.574      -364.10251      78995.052      42.907508      42.907508      42.907508      0.87617504     51.794122     -637.39618     -1007.503     
     41500   41500          597.54182     -869.90404      20686.028      21673.921      11433.257      10240.664      5152.6496      4549.3495     -792.35287      410.2464       981.61145      3836.7068     -3897.5472     -369.36934      77868.663      42.702592      42.702592      42.702592      0.88884912    -2237.3806     -130.28654     -242.045      
     42000   42000          597.04016     -57.480509      21423.621      21489.965      11423.659      10066.306      5034.0193      4566.025      -825.48315      398.27621      969.82276      3825.4989     -3901.8525     -363.4248       79142.36       42.934163      42.934163      42.934163      0.87454422     1063.9527     -305.44115     -930.95308    
     42500   42500          596.18677     -1141.3099      20033.533      21356.259      11407.33       9948.9288      5050.527       4449.1687     -877.43187      387.41197      999.33691      3830.3726     -3890.4566     -361.93729      79467.623      42.9929        42.9929        42.9929        0.87096468    -1293.0444     -2357.4032      226.51774    
     43000   43000          600.44766      164.49814      21727.764      21537.852      11488.857      10048.995      5033.5413      4500.0974     -801.15869      404.72678      997.72134      3814.6862     -3900.6195     -363.33628      79161.643      42.937649      42.937649      42.937649      0.87433119     903.51968     -732.60309      322.57783    
     43500   43500          604.3827       332.96591      21908.866      21525.785      11564.15       9961.6359      5043.2621      4610.8042     -932.26593      386.20159      929.41035      3824.3226     -3900.099      -364.59321      78888.734      42.88825       42.88825       42.88825       0.87735586    -1283.7934      1862.1534      420.53781    
     44000   44000          600.78517     -369.61052      21037.425      21468.123      11495.315      9972.808       5088.0069      4516.8185     -969.75299      385.8903       1005.3396      3835.7525     -3889.2467     -359.97374      79901.096      43.07093       43.07093       43.07093       0.86623959    -473.1313      -219.34178     -416.35847    
     44500   44500          594.66279      1127.5563      22536.535      21215.8        11378.171      9837.6298      4948.2695      4552.9391     -978.51961      379.45957      988.2162       3838.4994     -3891.2343     -358.11482      80315.851      43.145326      43.145326      43.145326      0.86176629     1330.4756      2387.4218     -335.22842    
     45000   45000          597.56514     -762.56339      20532.525      21414.853      11433.704      9981.1497      5026.3121      4505.7537     -850.3597       414.21121      943.94234      3836.4248     -3895.1347     -362.53087      79337.51       42.969423      42.969423      42.969423      0.87239306    -1884.8368     -177.67961     -225.17373    
     45500   45500          601.58939      1123.8652      22817.65       21533.4        11510.703      10022.697      5067.5298      4542.4916     -874.28021      406.60311      951.9518       3829.6305     -3901.2296     -367.08274      78353.715      42.791075      42.791075      42.791075      0.88334667     370.00766      130.93411      2870.6538    
     46000   46000          609.4823       1726.4783      23686.837      21698.257      11661.724      10036.533      5099.7062      4566.4156     -985.63181      402.07375      1030.6648      3828.8929     -3905.5889     -364.18113      78977.997      42.90442       42.90442       42.90442       0.87636425     1109.9569      1893.4948      2175.9832    
     46500   46500          605.54644     -1040.2719      20392.659      21589.475      11586.416      10003.058      5036.7448      4530.931      -817.11109      388.66591      950.44211      3814.7864     -3901.4009     -364.60203      78886.825      42.887904      42.887904      42.887904      0.87737709    -304.52512     -949.90303     -1866.3875    
     47000   47000          595.46078      98.193379      21432.048      21318.803      11393.439      9925.3642      5045.0757      4488.981      -905.56266      385.41529      991.65818      3816.9118     -3897.1151     -363.71628      79078.936      42.922691      42.922691      42.922691      0.87524563     41.95036       4.4970006      248.13278    
     47500   47500          589.16362      211.23872      21555.434      21308.827      11272.951      10035.876      5071.3469      4485.2638     -885.697        406.40448      1035.043       3819.5275     -3896.0122     -359.30821      80049.093      43.097506      43.097506      43.097506      0.86463807     1956.1911     -1319.8135     -2.6614275    
     48000   48000          595.17176      149.78843      21706.383      21530.395      11387.909      10142.486      5124.8785      4538.3745     -863.43156      411.59036      1001.4223      3817.6658     -3888.0141     -357.02181      80561.736      43.189311      43.189311      43.189311      0.85913607     1834.3781      88.969403     -1473.9822    
     48500   48500          591.60213      1363.8323      23270.792      21674.105      11319.608      10354.497      5045.7577      4737.645      -854.12269      410.51582      1082.8596      3821.8274     -3889.9862     -358.29501      80275.458      43.138092      43.138092      43.138092      0.86219991     2052.0444      451.53594      1587.9167    
     49000   49000          604.20164     -1143.6104      20406.096      21736.289      11560.685      10175.603      5154.6801      4553.2579     -831.09965      399.68467      965.9034       3824.773      -3891.596      -360.63094      79755.489      43.04475       43.04475       43.04475       0.86782107    -173.35901      494.34071     -3751.813     
     49500   49500          601.07567     -1705.2876      19740.881      21735.54       11500.873      10234.667      5222.9624      4597.7473     -885.9828       391.05344      991.46232      3813.7444     -3896.3205     -358.61495      80203.841      43.12526       43.12526       43.12526       0.86296981     299.36266     -2578.4552     -2836.7704    
     50000   50000          602.22003     -1048.3367      20340.657      21561.142      11522.769      10038.373      4940.7088      4579.1661     -787.54883      398.13651      962.93139      3833.7957     -3888.8169     -360.30285      79828.112      43.057812      43.057812      43.057812      0.86703156    -2394.4725     -512.8365      -237.70105    
     50500   50500          592.41477     -1726.3749      19462.348      21454.26       11335.157      10119.103      5153.9472      4572.0584     -853.39862      400.64697      913.78881      3831.6802     -3899.6199     -363.55017      79115.069      42.929227      42.929227      42.929227      0.87484589    -1479.0453     -99.104546     -3600.9749    
     51000   51000          594.98005      513.95387      21905.122      21305.839      11384.241      9921.5983      5088.7354      4396.6615     -904.60265      415.23179      1003.3726      3817.748      -3895.5483     -359.74235      79952.489      43.080162      43.080162      43.080162      0.86568278    -237.57125     -53.646188      1833.0791    
     51500   51500          599.57322      310.85995      21871.175      21505.094      11472.126      10032.969      4977.5103      4531.6173     -875.45269      406.41189      1052.3623      3830.5121     -3889.9926     -356.19487      80748.767      43.222707      43.222707      43.222707      0.85714613     1246.0292     -476.40086      162.95147    
     52000   52000          598.1876      -2034.1681      19257.86       21647.479      11445.614      10201.866      5079.7164      4491.5315     -758.49492      420.15207      1028.1704      3830.6939     -3889.9037     -357.07338      80550.1        43.187231      43.187231      43.187231      0.85926018    -2306.96       -861.58429     -2933.9599    
     52500   52500          601.4977       692.12684      22594.082      21786.976      11508.949      10278.028      5171.4946      4552.3397     -835.28392      413.48489      1034.1721      3828.207      -3886.3868     -359.71185      79959.269      43.08138       43.08138       43.08138       0.86560937    -1460.6892      595.79291      2941.2768    
     53000   53000          608.75399      1426.2783      23530.517      21878.071      11647.789      10230.282      5173.2528      4566.3753     -858.86888      409.89763      1004.661       3828.5766     -3893.6121     -362.05678      79441.397      42.98817       42.98817       42.98817       0.87125222     660.90024      3134.4625      483.4722     
     53500   53500          601.25914     -1622.771       19933.796      21821.45       11504.384      10317.066      5115.1363      4612.3448     -784.38591      417.70583      1021.4066      3825.9114     -3891.0531     -360.60721      79760.737      43.045695      43.045695      43.045695      0.86776396    -243.64297     -2934.3422     -1690.3278    
     54000   54000          601.40555     -807.75606      20591.401      21548.013      11507.185      10040.828      5051.5863      4423.3112     -846.96165      405.0981       1079.0102      3819.8349     -3891.051      -354.19584      81204.502      43.303869      43.303869      43.303869      0.85233566     977.68694     -2701.3658     -699.58935    
     54500   54500          600.31317     -1383.6168      19923.435      21565.796      11486.284      10079.512      4977.9829      4538.7709     -838.62074      390.00122      1075.5377      3825.5465     -3889.706      -353.38374      81391.115      43.337015      43.337015      43.337015      0.85038143    -687.65297     -1547.4516     -1915.746     
     55000   55000          604.51606     -579.69459      21160.357      21833.856      11566.701      10267.155      5217.9356      4393.8053     -683.881        412.69404      985.88678      3834.1364     -3893.4225     -361.04522      79663.972      43.02828       43.02828       43.02828       0.868818      -326.23386     -140.49559     -1272.3543    
     55500   55500          605.21459      1149.8457      23013.847      21686.053      11580.067      10105.986      5020.4547      4559.459      -838.55892      405.68444      994.27758      3857.1506     -3892.4809     -363.25238      79179.926      42.940955      42.940955      42.940955      0.8741293      1087.995      -229.61075      2591.1527    
     56000   56000          591.64107      1421.8775      23105.143      21454.331      11320.354      10133.977      5101.8883      4521.8438     -892.97134      375.97243      1084.9215      3839.3067     -3896.9842     -361.29675      79608.511      43.018292      43.018292      43.018292      0.86942328     2614.3977      332.2922       1318.9427    
     56500   56500          592.7104       1047.2561      22568.576      21347.773      11340.814      10006.959      5021.2351      4468.2043     -856.28539      413.18002      1009.5781      3839.9954     -3888.9484     -359.83771      79931.302      43.076356      43.076356      43.076356      0.86591225     423.55918      497.78356      2220.4256    
     57000   57000          593.89951     -735.35839      20452.331      21318.362      11363.566      9954.796       4955.2429      4422.5108     -804.14906      406.37339      1031.4948      3833.4228     -3890.0996     -356.17629      80752.98       43.223459      43.223459      43.223459      0.85710141    -955.87395     -231.96754     -1018.2337    
     57500   57500          599.67067      1015.5966      22766.913      21570.741      11473.99       10096.751      4965.0774      4467.9555     -806.50252      413.27566      1122.079       3828.4466     -3893.5806     -356.14541      80759.981      43.224708      43.224708      43.224708      0.85702711     1548.1628      342.50066      1156.1264    
     58000   58000          605.31448      1695.7002      23569.761      21590.761      11581.978      10008.783      5102.0474      4446.8049     -936.06597      393.55246      1070.0746      3828.7892     -3896.4196     -359.4204       80024.107      43.093022      43.093022      43.093022      0.86490803     926.90814      1496.8501      2663.3425    
     58500   58500          593.86686      46.012338      21553.157      21499.72       11362.941      10136.778      5128.7076      4439.2742     -824.64226      409.56906      1054.4931      3834.1156     -3904.7391     -361.18512      79633.115      43.022724      43.022724      43.022724      0.86915466    -610.82303     -89.093839      837.95388    
     59000   59000          605.7303       250.25244      22046.388      21754.21       11589.934      10164.275      5080.5009      4581.3682     -898.06091      402.95983      1061.6322      3831.0924     -3895.2173     -359.27697      80056.053      43.098755      43.098755      43.098755      0.86456289    -1164.2146      970.66502      944.30691    
     59500   59500          601.82477      240.41824      21990.452      21711.232      11515.207      10196.026      5165.5625      4587.6166     -856.39919      404.77675      969.56564      3823.7418     -3898.8387     -361.1777       79634.753      43.023019      43.023019      43.023019      0.86913679    -970.45903      184.3522       1507.3616    
     60000   60000          606.72914      1474.8286      23362.352      21672.072      11609.046      10063.027      4989.5517      4442.466      -739.70482      403.54801      1037.3021      3831.4123     -3901.5488     -366.00124      78585.242      42.833181      42.833181      42.833181      0.88074416    -543.35564      3264.7331      1703.1082    
     60500   60500          602.8389       247.54433      21901.895      21617.016      11534.611      10082.405      5109.2607      4416.7407     -792.43586      425.97227      997.99184      3825.6743     -3900.799      -364.49509      78909.97       42.892098      42.892098      42.892098      0.87711975    -768.67024      215.36386      1295.9394    
     61000   61000          592.39808     -459.05874      20599.021      21135.422      11334.838      9800.5839      5016.8108      4469.019      -965.55834      390.43753      966.73635      3817.3627     -3894.224      -358.98633      80120.869      43.110383      43.110383      43.110383      0.86386348    -44.443212     -1868.9655      536.23244    
     61500   61500          601.42073      372.21752      22093.227      21653.273      11507.476      10145.797      5058.4999      4608.2207     -874.2758       419.2922       1007.5493      3816.3515     -3889.841      -354.88542      81046.713      43.275803      43.275803      43.275803      0.85399506    -466.41616      1111.7889      471.27984    
     62000   62000          599.83467      1203.6625      23033.139      21631.205      11477.128      10154.077      5046.0441      4475.967      -791.51853      392.18381      1100.0668      3822.023      -3890.6896     -360.14448      79863.216      43.064122      43.064122      43.064122      0.86665047     1591.6474      1540.1261      479.21406    
     62500   62500          609.86361      822.81836      22502.599      21557.971      11669.02       9888.9503      5038.9897      4465.7183     -908.18778      394.51639      970.40642      3828.8237     -3901.3165     -365.37797      78719.296      42.857523      42.857523      42.857523      0.87924431     1683.5328     -43.498835      828.42107    
     63000   63000          599.74871      483.81382      21921.19       21368.071      11475.484      9892.5872      5036.6051      4455.302      -859.6019       379.22937      937.18333      3839.243      -3895.3737     -366.9094       78390.732      42.797813      42.797813      42.797813      0.88292954    -1722.4853      1626.3236      1547.6031    
     63500   63500          596.37846      85.613839      21379.749      21281.033      11410.998      9870.035       5063.2545      4526.7976     -997.04056      376.64436      969.71907      3826.4275     -3895.7675     -363.79304      79062.252      42.919672      42.919672      42.919672      0.87543033    -178.60276      1093.786      -658.34175    
     64000   64000          593.62601      691.83644      22500.312      21692.639      11358.333      10334.306      5199.207       4702.6823     -920.96539      393.8658       1025.2709      3825.7394     -3891.4941     -359.30847      80049.036      43.097496      43.097496      43.097496      0.86463868    -191.47894     -615.10519      2882.0934    
     64500   64500          591.32167      1333.9298      23296.322      21738.035      11314.242      10423.793      5100.3636      4742.1246     -781.79873      412.28905      1033.4491      3819.2027     -3901.8372     -359.07496      80101.091      43.106836      43.106836      43.106836      0.86407678     1259.676       2571.304       170.80927    
     65000   65000          599.24719     -769.95231      20738.338      21635.315      11465.888      10169.428      5042.1096      4573.8755     -787.45382      400.11288      1021.1859      3819.6224     -3900.0247     -360.06557      79880.719      43.067268      43.067268      43.067268      0.86646057     1456.6553     -2877.1445     -889.36771    
     65500   65500          596.54368      547.1355       22105.754      21464.347      11414.159      10050.188      5047.4357      4501.9665     -786.49986      409.00977      947.98709      3829.6291     -3899.3406     -357.81686      80382.73       43.157298      43.157298      43.157298      0.86104929     298.22902      1853.2754     -510.09797    
     66000   66000          604.17355      1286.8379      23604.66       22087.377      11560.148      10527.229      5266.5306      4553.468      -782.8486       407.55564      1151.0676      3823.8502     -3892.3946     -355.75947      80847.593      43.240333      43.240333      43.240333      0.85609838     827.70355      3232.4973     -199.68718    
     66500   66500          607.13854      1113.1347      23073.263      21759.156      11616.879      10142.277      5083.587       4539.1447     -917.9119       407.11661      1100.6338      3823.9488     -3894.2422     -355.31732      80948.197      43.258261      43.258261      43.258261      0.8550344      857.65855      2017.1408      464.60476    
     67000   67000          599.04388      1394.8134      23316.915      21685.312      11461.998      10223.314      5244.5893      4527.233      -918.60699      391.3192       1062.0131      3809.5437     -3892.7768     -358.59238      80208.89       43.126165      43.126165      43.126165      0.86291548     1136.3242      1669.115       1379.0011    
     67500   67500          589.53644     -620.85684      20524.22       21254.905      11280.084      9974.8209      4924.0069      4462.2241     -806.08039      386.73456      1077.9007      3820.2586     -3890.2236     -356.41888      80698.016      43.21365       43.21365       43.21365       0.85768518    -335.24357     -785.7513      -741.57566    
     68000   68000          608.66037     -749.50425      20893.797      21785.177      11645.998      10139.18       5085.4331      4474          -785.20012      395.70722      1041.3718      3820.2487     -3892.381      -352.70396      81547.983      43.364839      43.364839      43.364839      0.84874561    -1605.3644      3.488182      -646.63656    
     68500   68500          599.13225     -533.26835      21070.979      21693.617      11463.688      10229.928      5062.071       4559.2388     -815.68128      417.30191      1084.2662      3822.2567     -3899.525      -359.26057      80059.708      43.099411      43.099411      43.099411      0.86452342    -81.165676      725.4052      -2244.0446    
     69000   69000          596.80281      1764.4391      23503.147      21465.245      11419.117      10046.127      5050.0461      4436.0029     -774.11071      422.88312      971.74855      3838.8125     -3899.2549     -363.18063      79195.569      42.943782      42.943782      42.943782      0.87395663     4237.649      -522.70669      1578.3749    
     69500   69500          599.11661     -382.89019      21094.594      21542.644      11463.389      10079.255      5029.7408      4557.1586     -874.2294       386.39767      1034.5208      3835.2844     -3889.618      -358.46502      80237.387      43.131271      43.131271      43.131271      0.86260901    -2596.8685      714.21097      733.98694    
     70000   70000          594.97687      654.10138      22298.245      21524.194      11384.18       10140.014      5081.6413      4527.0436     -898.48331      431.05537      1066.0053      3823.5794     -3890.8277     -354.46638      81142.523      43.292849      43.292849      43.292849      0.8529867      1074.8508      499.31605      388.13733    
     70500   70500          604.49153     -883.29075      20536.091      21580.893      11566.232      10014.661      4989.8251      4536.0932     -838.61954      415.36884      990.06463      3818.9195     -3896.9911     -354.62482      81106.27       43.286401      43.286401      43.286401      0.85336797     117.14651     -902.63886     -1864.3799    
     71000   71000          608.67635     -391.04462      21294.148      21749.006      11646.303      10102.702      5019.7211      4523.3928     -801.57229      406.11888      1025.4661      3827.8689     -3898.2933     -360.62026      79757.851      43.045175      43.045175      43.045175      0.86779536     688.24379      850.5588      -2711.9364    
     71500   71500          597.40259      1828.3788      23737.97       21608.143      11430.593      10177.549      5044.9813      4526.7525     -824.73203      400.09835      1084.3989      3840.1886     -3894.1383     -360.0985       79873.414      43.065955      43.065955      43.065955      0.86653981     1860.6873      1633.6771      1990.772     
     72000   72000          588.3229      -715.82628      20574.351      21421.345      11256.864      10164.481      4998.6362      4570.6157     -787.89212      415.55146      1047.4721      3814.8116     -3894.7138     -354.50846      81132.893      43.291136      43.291136      43.291136      0.85308795    -2.1815682     -1294.3418     -850.95542    
     72500   72500          602.0066      -139.62505      21483.737      21646.577      11518.686      10127.891      5105.5161      4503.2022     -780.98064      407.10978      981.47873      3811.5574     -3899.9924     -359.66725      79969.185      43.083161      43.083161      43.083161      0.86550205    -878.85748     -1098.0975      1558.0798    
     73000   73000          599.21861      641.55696      22387.103      21645.029      11465.341      10179.688      5150.0986      4511.5903     -847.95943      414.61672      1034.1607      3818.3945     -3901.2136     -362.64963      79311.53       42.964732      42.964732      42.964732      0.87267883     1181.2343      959.63272     -216.19615    
     73500   73500          596.53174      35.522663      21484.84       21443.628      11413.931      10029.698      5131.2701      4411.6492     -792.14094      413.90597      946.0156       3816.9833     -3897.9855     -361.56183      79550.147      43.007777      43.007777      43.007777      0.87006116     88.190502     -2181.6186      2199.996     
     74000   74000          586.13312     -753.82974      20471.071      21351.831      11214.965      10136.866      5025.2469      4554.528      -838.73859      408.86509      1073.2404      3815.3381     -3901.614      -359.01675      80114.08       43.109166      43.109166      43.109166      0.86393668    -1341.0672     -546.97994     -373.44205    
     74500   74500          601.72023      518.71737      22227.645      21615.302      11513.206      10102.096      5080.2508      4582.6003     -931.57154      393.77124      1065.6703      3809.3057     -3897.9309     -355.33334      80944.549      43.257611      43.257611      43.257611      0.85507294     2323.9535     -1403.5024      635.70103    
     75000   75000          607.90022     -1911.4336      19543.044      21784.948      11631.453      10153.494      5019.7082      4462.8144     -703.6175       381.1186       1074.4257      3813.2594     -3894.2145     -357.63641      80423.289      43.164556      43.164556      43.164556      0.86061505    -1236.4817     -1504.546      -2993.2733    
[...]
   2604500   2604500        203.42422      846.50499      6451.7019      5619.8241      3892.2823      1727.5418      2198.6798      2044.3936     -2385.4348      142.76597     -136.13402      3846.6593     -3983.3881     -426.84423      67383.589      40.692844      40.692844      40.692844      1.0271565      437.28567      2180.377      -78.147732    
   2605000   2605000        200.71222     -334.26838      5296.4467      5626.4817      3840.3914      1786.0903      2193.0113      2003.0683     -2287.6726      147.55106     -128.639        3840.714      -3981.9426     -424.84911      67700.027      40.756444      40.756444      40.756444      1.0223555     -742.9948      -306.60038      46.79002     
   2605500   2605500        198.10717      523.71351      6007.3662      5490.5578      3790.5468      1700.011       2167.8156      2061.5323     -2411.8638      139.73402     -131.82209      3855.2067     -3980.5918     -425.0731       67664.353      40.749284      40.749284      40.749284      1.0228945      684.90934      27.86643       858.36475    
   2606000   2606000        198.08914      228.50806      5681.4042      5455.1334      3790.2019      1664.9315      2101.9941      2059.3398     -2382.9296      141.95259     -118.41276      3842.4543     -3979.4668     -423.61625      67897.057      40.795944      40.795944      40.795944      1.0193887      117.71844      842.76491     -274.95916    
   2606500   2606500        198.92434     -311.15806      5152.7121      5458.9642      3806.1824      1652.7818      2191.1786      2006.7598     -2398.9624      142.61615     -158.69955      3853.8432     -3983.954      -426.18825      67487.306      40.713712      40.713712      40.713712      1.025578      -121.35259     -592.69786     -219.42371    
   2607000   2607000        201.84149      346.97375      5911.693       5568.9852      3861.9987      1706.9866      2174.6659      2013.4537     -2377.3788      139.21859     -114.56105      3851.4109     -3979.8226     -424.69014      67725.369      40.761528      40.761528      40.761528      1.0219729      751.05387      49.504957      240.36242    
   2607500   2607500        200.36068     -87.282304      5480.0618      5565.9424      3833.665       1732.2773      2150.6438      2068.0371     -2328.9229      148.38365     -178.27931      3852.2727     -3979.8577     -426.31492      67467.252      40.709679      40.709679      40.709679      1.0258828      608.60629      171.13402     -1041.5872    
   2608000   2608000        200.48487     -553.46773      5036.5259      5582.7131      3836.0414      1746.6717      2182.8112      2052.8162     -2343.158       142.55549     -162.66557      3853.8976     -3979.5853     -425.06002      67666.436      40.749702      40.749702      40.749702      1.022863      -251.70923     -284.47332     -1124.2207    
   2608500   2608500        199.31788     -247.28984      5289.5453      5533.1522      3813.7124      1719.4398      2168.6343      2086.7867     -2394.2388      140.96078     -139.80995      3841.502      -3984.3953     -425.81025      67547.215      40.725755      40.725755      40.725755      1.0246683     -546.97209     -226.65076      31.753317    
   2609000   2609000        198.94154     -246.07474      5253.7705      5497.3373      3806.5115      1690.8258      2120.5929      2021.3234     -2334.7746      142.55853     -131.11747      3852.5228     -3980.2798     -423.7877       67869.588      40.790441      40.790441      40.790441      1.0198013     -816.13165      629.89487     -551.98746    
   2609500   2609500        197.9515       1334.1988      6827.8847      5516.69        3787.5683      1729.1217      2167.5414      2014.2686     -2351.844       139.1517      -102.32549      3844.4104     -3982.081      -426.82794      67386.162      40.693362      40.693362      40.693362      1.0271173      216.20203      2349.5808      1436.8136    
   2610000   2610000        196.68084     -31.998215      5440.8662      5472.5831      3763.2558      1709.3273      2182.0433      2008.0787     -2351.511       136.94535     -135.1017       3848.2593     -3979.3867     -423.18902      67965.601      40.809667      40.809667      40.809667      1.0183606      590.04452     -352.8223      -333.21687    
   2610500   2610500        198.01915     -973.60273      4529.5569      5486.0748      3788.8627      1697.2121      2108.5836      2048.9612     -2299.8333      147.21268     -168.85158      3844.482      -3983.3426     -426.96092      67365.173      40.689137      40.689137      40.689137      1.0274373     -1370.1667     -995.20033     -555.44116    
   2611000   2611000        199.05378     -815.86479      4759.9061      5569.8232      3808.6591      1761.1641      2145.4742      2051.5227     -2331.3248      144.15385     -117.46802      3847.9935     -3979.1873     -422.549        68068.547      40.830261      40.830261      40.830261      1.0168205     -1045.7463     -721.87444     -679.97358    
   2611500   2611500        196.63268     -210.2326       5348.6411      5555.7703      3762.3343      1793.436       2218.2432      2060.0575     -2333.3466      148.68219     -166.3582       3848.0324     -3981.8745     -425.75348      67556.222      40.727566      40.727566      40.727566      1.0245317     -191.78054      444.37725     -883.29452    
   2612000   2612000        200.28113     -327.92199      5177.9416      5501.5774      3832.1429      1669.4345      2061.358       2066.3492     -2310.2447      147.78974     -164.92038      3851.3673     -3982.2648     -425.02401      67672.169      40.750853      40.750853      40.750853      1.0227763     -222.57672     -1260.0519      498.86266    
   2612500   2612500        197.6386      -269.01223      5234.1647      5499.724       3781.5813      1718.1428      2185.857       2055.8129     -2392.0584      143.32532     -140.23612      3850.0376     -3984.5955     -424.9227       67688.303      40.754091      40.754091      40.754091      1.0225325     -1712.5397      398.85071      506.6523     
   2613000   2613000        198.81985      814.45401      6270.1574      5466.8394      3804.1832      1662.6562      2141.2123      1996.3015     -2362.3572      143.27024     -128.94751      3852.2641     -3979.0872     -425.28345      67630.885      40.742564      40.742564      40.742564      1.0234007      1064.683       2144.9295     -766.25037    
   2613500   2613500        201.06446      788.71847      6315.4127      5535.2967      3847.1312      1688.1655      2147.5897      2026.6793     -2396.7532      149.14889     -108.68711      3850.0084     -3979.8204     -424.09413      67820.549      40.780615      40.780615      40.780615      1.0205387      1423.8774      120.47832      821.79972    
   2614000   2614000        201.77985     -139.75869      5393.0889      5530.6931      3860.8193      1669.8738      2158.7452      2018.3675     -2344.4218      150.28189     -167.95556      3838.7553     -3983.8987     -426.03637      67511.364      40.718549      40.718549      40.718549      1.0252125     -595.77863     -334.43246      510.93503    
   2614500   2614500        201.45674     -774.26954      4801.1102      5570.7796      3854.637       1716.1426      2123.3709      1996.3446     -2336.9711      147.53024     -77.081478      3843.6841     -3980.7346     -421.97564      68161.035      40.848746      40.848746      40.848746      1.0154408     -1240.1672     -576.09447     -506.547      
   2615000   2615000        198.36539      1653.8251      7113.3588      5488.6195      3795.4875      1693.132       2144.6873      2026.1434     -2371.6888      140.28043     -120.18057      3855.0764     -3981.1862     -426.97785      67362.502      40.688599      40.688599      40.688599      1.0274781      2970.6431      484.66142      1506.1709    
   2615500   2615500        200.91247      267.29855      5791.8085      5528.4546      3844.2229      1684.2316      2148.3826      2015.7813     -2348.4243      146.56057     -150.36231      3853.4756     -3981.1819     -425.75163      67556.516      40.727625      40.727625      40.727625      1.0245273      418.354        984.08775     -600.5461     
   2616000   2616000        199.81515      774.70995      6310.7665      5542.8812      3823.2271      1719.6541      2160.3938      2064.6757     -2403.9436      145.24511     -107.56295      3840.5139     -3979.6678     -423.19663      67964.381      40.809423      40.809423      40.809423      1.0183789     -901.65438      1241.8273      1983.9569    
   2616500   2616500        203.60743      45.445775      5620.3191      5575.1852      3895.7879      1679.3973      2140.958       2010.1787     -2376.63        143.91441     -120.77312      3860.5273     -3978.778      -422.36709      68097.864      40.836122      40.836122      40.836122      1.0163827      234.45522     -498.77105      400.65315    
   2617000   2617000        202.00258      1400.8371      6985.6374      5610.5015      3865.0809      1745.4206      2191.9175      2059.4043     -2399.8486      147.33282     -123.24165      3852.1026     -3982.2465     -427.3084       67310.393      40.678105      40.678105      40.678105      1.0282735      2017.2538      740.89517      1444.3622    
   2617500   2617500        200.2007      -123.30221      5494.6875      5616.7919      3830.6042      1786.1878      2200.4987      2046.8473     -2372.5685      146.11941     -105.4825       3851.3768     -3980.6034     -423.58315      67902.362      40.797006      40.797006      40.797006      1.0193091     -718.81565     -501.25655      850.16559    
   2618000   2618000        199.592       -285.8485       5306.486       5588.9252      3818.9573      1769.9679      2169.5156      2075.6447     -2336.0746      143.57835     -153.48798      3849.6761     -3978.8843     -424.53203      67750.592      40.766588      40.766588      40.766588      1.0215924     -1289.0462      600.78824     -169.28751    
   2618500   2618500        198.50383     -147.60003      5372.9257      5518.2014      3798.1364      1720.065       2159.8229      2063.9609     -2349.731       139.4687      -150.14188      3840.0573     -3983.3719     -426.17988      67488.631      40.713978      40.713978      40.713978      1.0255578      26.560032     -616.62554      147.26542    
   2619000   2619000        196.36362     -393.04068      5091.8237      5482.6155      3757.1861      1725.4294      2164.0288      2042.1011     -2340.2231      139.61437     -139.40531      3843.0715     -3983.7579     -421.88247      68176.088      40.851753      40.851753      40.851753      1.0152166     -124.01656     -903.2057      -151.89979    
   2619500   2619500        203.58181      1122.5271      6620.7569      5515.9368      3895.2977      1620.6391      2140.6078      1984.0798     -2390.2951      137.83278     -107.11693      3839.5431     -3984.0123     -426.19144      67486.801      40.71361       40.71361       40.71361       1.0255856      1658.8184      925.75434      783.00856    
   2620000   2620000        202.30612     -318.40745      5239.284       5553.5906      3870.8888      1682.7018      2200.2746      1987.8597     -2370.1875      138.65427     -142.44141      3848.5387     -3979.9965     -424.94152      67685.305      40.753489      40.753489      40.753489      1.0225778     -42.257027      263.4323      -1176.3976    
   2620500   2620500        199.27453     -468.64291      5031.958       5496.2611      3812.883       1683.3781      2142.8771      2032.6802     -2375.6693      141.91333     -127.70602      3850.5759     -3981.2931     -423.38935      67933.443      40.80323       40.80323       40.80323       1.0188427     -2039.0564      503.41975      129.70793    
   2621000   2621000        199.85431     -1492.2245      4006.0172      5481.7683      3823.9764      1657.792       2067.7406      2051.1923     -2319.4825      138.55168     -149.01365      3851.0402     -3982.2366     -424.15097      67811.459      40.778793      40.778793      40.778793      1.0206755     -762.98406     -1585.5145     -2128.1749    
   2621500   2621500        200.01244     -1204.4272      4320.5191      5506.2875      3827.0019      1679.2856      2146.7904      2000.233      -2331.3254      139.90002     -142.85233      3848.7947     -3982.2548     -426.0692       67506.162      40.717503      40.717503      40.717503      1.0252915     -762.06803     -1677.6741     -1173.5396    
   2622000   2622000        203.93709     -659.96737      4991.6779      5646.9126      3902.0954      1744.8172      2137.3427      2047.0982     -2337.8713      140.63122     -111.78131      3849.2873     -3979.8896     -422.4983       68076.715      40.831894      40.831894      40.831894      1.0166985     -426.64451     -753.67882     -799.57878    
   2622500   2622500        198.15793      866.58425      6374.5223      5520.75        3791.5181      1729.232       2180.5671      2033.4279     -2354.967       142.02665     -130.86424      3842.0894     -3983.0479     -425.76326      67554.669      40.727254      40.727254      40.727254      1.0245553      733.74795      536.0248       1329.98      
   2623000   2623000        197.64317     -234.65842      5272.5299      5504.9349      3781.6688      1723.2661      2173.0942      2030.0843     -2340.7914      141.66381     -145.96849      3846.8515     -3981.6678     -423.53593      67909.932      40.798522      40.798522      40.798522      1.0191954     -298.03647     -4.7060874     -401.23271    
   2623500   2623500        199.06904     -494.37372      5099.442       5587.9968      3808.9511      1779.0457      2189.8425      2037.4174     -2336.1289      146.33151     -126.47552      3847.6282     -3979.5694     -424.4646       67761.356      40.768747      40.768747      40.768747      1.0214302     -643.82768     -669.793       -169.50047    
   2624000   2624000        201.98592      924.48069      6556.8207      5644.9293      3864.7622      1780.1672      2211.9923      2039.9686     -2395.3003      143.49516     -87.173628      3849.437      -3982.2519     -425.25965      67634.671      40.743324      40.743324      40.743324      1.0233434      461.33082      2573.9514     -261.8401     
   2624500   2624500        199.22245     -239.67514      5371.4301      5608.7114      3811.8864      1796.825       2205.1154      2042.5864     -2327.6552      146.88221     -139.21802      3850.2375     -3981.1232     -423.70058      67883.542      40.793237      40.793237      40.793237      1.0195917     -298.9004       215.37732     -635.50233    
   2625000   2625000        203.39959     -31.763969      5548.8281      5580.3628      3891.8111      1688.5518      2151.179       2003.8681     -2343.384       141.33849     -138.55502      3851.6027     -3977.4975     -422.51859      68073.447      40.831241      40.831241      40.831241      1.0167473      494.03261     -739.90382      150.57931    
Loop time of 255.214 on 1 procs for 125000 steps with 6420 atoms

Performance: 42.318 ns/day, 0.567 hours/ns, 489.786 timesteps/s, 3.144 Matom-step/s
100.0% CPU use with 1 MPI tasks x 1 OpenMP threads

MPI task timing breakdown:
Section |  min time  |  avg time  |  max time  |%varavg| %total
---------------------------------------------------------------
Pair    | 28.367     | 28.367     | 28.367     |   0.0 | 11.12
Bond    | 37.027     | 37.027     | 37.027     |   0.0 | 14.51
Kspace  | 128.19     | 128.19     | 128.19     |   0.0 | 50.23
Neigh   | 11.587     | 11.587     | 11.587     |   0.0 |  4.54
Comm    | 2.4772     | 2.4772     | 2.4772     |   0.0 |  0.97
Output  | 0.034792   | 0.034792   | 0.034792   |   0.0 |  0.01
Modify  | 41.607     | 41.607     | 41.607     |   0.0 | 16.30
Other   |            | 5.926      |            |       |  2.32

Nlocal:           6420 ave        6420 max        6420 min
Histogram: 1 0 0 0 0 0 0 0 0 0
Nghost:          18220 ave       18220 max       18220 min
Histogram: 1 0 0 0 0 0 0 0 0 0
Neighs:              0 ave           0 max           0 min
Histogram: 1 0 0 0 0 0 0 0 0 0
FullNghs:  3.85202e+06 ave 3.85202e+06 max 3.85202e+06 min
Histogram: 1 0 0 0 0 0 0 0 0 0

Total # of neighbors = 3852024
Ave neighs/atom = 600.00374
Ave special neighs/atom = 5.8598131
Neighbor list builds = 2033
Dangerous builds = 0
  unfix npt_tg
  shell echo '{"stage":"T${temps}","status":"done"}' >> /home/alexzhao/PolyJarvis/data/PS2/lammps/thermal/tg_sweep_r160/tg_progress.jsonl
  dump per_t_snap all atom 1 per_t_structs.dump
  dump_modify per_t_snap append yes
  run 0
WARNING: No fixes with time integration, atoms won't move
For more information see https://docs.lammps.org/err0028 (src/verlet.cpp:60)
PPPM Kokkos initialization ...
  using 12-bit tables for long-range coulomb
  G vector (1/distance) = 0.30344552
  grid = 30 30 30
  stencil order = 5
  estimated absolute RMS force accuracy = 0.0002633269
  estimated relative force accuracy = 7.9300113e-07
  using double precision cuFFT
  3d grid and FFT values/proc = 50653 27000
Generated 6 of 6 mixed pair_coeff terms from sixthpower/sixthpower mixing rule
Per MPI rank memory allocation (min/avg/max) = 42.96 | 42.96 | 42.96 Mbytes
   Step          Time           Temp          Press         Enthalpy        TotEng         KinEng         PotEng         E_bond        E_angle        E_dihed        E_impro         E_vdwl         E_coul         E_long         E_tail         Volume           Lx             Ly             Lz          Density          Pxx            Pyy            Pzz      
   2625000   2625000        203.39959     -31.763695      5548.8284      5580.3629      3891.8111      1688.5518      2151.179       2003.8681     -2343.384       141.33849     -138.55502      3852.2096     -3978.1044     -422.51859      68073.447      40.831241      40.831241      40.831241      1.0167473      494.0329      -739.90354      150.57955    
Loop time of 4.748e-05 on 1 procs for 0 steps with 6420 atoms

101.1% CPU use with 1 MPI tasks x 1 OpenMP threads

MPI task timing breakdown:
Section |  min time  |  avg time  |  max time  |%varavg| %total
---------------------------------------------------------------
Pair    | 0          | 0          | 0          |   0.0 |  0.00
Bond    | 0          | 0          | 0          |   0.0 |  0.00
Kspace  | 0          | 0          | 0          |   0.0 |  0.00
Neigh   | 0          | 0          | 0          |   0.0 |  0.00
Comm    | 0          | 0          | 0          |   0.0 |  0.00
Output  | 0          | 0          | 0          |   0.0 |  0.00
Modify  | 0          | 0          | 0          |   0.0 |  0.00
Other   |            | 4.748e-05  |            |       |100.00

Nlocal:           6420 ave        6420 max        6420 min
Histogram: 1 0 0 0 0 0 0 0 0 0
Nghost:          18234 ave       18234 max       18234 min
Histogram: 1 0 0 0 0 0 0 0 0 0
Neighs:              0 ave           0 max           0 min
Histogram: 1 0 0 0 0 0 0 0 0 0
FullNghs:  3.85098e+06 ave 3.85098e+06 max 3.85098e+06 min
Histogram: 1 0 0 0 0 0 0 0 0 0

Total # of neighbors = 3850982
Ave neighs/atom = 599.84143
Ave special neighs/atom = 5.8598131
Neighbor list builds = 0
Dangerous builds = 0
  undump per_t_snap
  print "STAGE COMPLETE: Tg step T=${temps}K P=1.0atm steps=125000"
STAGE COMPLETE: Tg step T=200K P=1.0atm steps=125000
  next temps
  jump SELF TEMP_LOOP

write_data tg_step_out.data
System init for write_data ...
PPPM Kokkos initialization ...
  using 12-bit tables for long-range coulomb
  G vector (1/distance) = 0.30344552
  grid = 30 30 30
  stencil order = 5
  estimated absolute RMS force accuracy = 0.0002633269
  estimated relative force accuracy = 7.9300113e-07
  using double precision cuFFT
  3d grid and FFT values/proc = 50653 27000
Generated 6 of 6 mixed pair_coeff terms from sixthpower/sixthpower mixing rule
Total wall time: 1:34:10
