units real
atom_style full
boundary p p p

# --- Force Field Styles ---
pair_style lj/class2/coul/long 9.5 9.5
kspace_style pppm 1e-6
dielectric 1.000000
bond_style class2
angle_style class2
dihedral_style class2
improper_style class2
special_bonds lj/coul 0 0 1
pair_modify mix sixthpower tail yes
neighbor 2.0 bin
neigh_modify delay 0 every 1 check yes
neigh_modify one 4000
package gpu 1 neigh no

read_data /home/alexzhao/PolyJarvis/data/PEG1/lammps/equil/npt_production/npt_production_out.data
Reading data file ...
  orthogonal box = (4.1378782 4.1378782 4.1378782) to (45.183255 45.183255 45.183255)
  1 by 2 by 2 MPI processor grid
  reading atoms ...
  7020 atoms
  reading velocities ...
  7020 velocities
  scanning bonds ...
  4 = max bonds/atom
  scanning angles ...
  6 = max angles/atom
  scanning dihedrals ...
  8 = max dihedrals/atom
  scanning impropers ...
  4 = max impropers/atom
  orthogonal box = (4.1378782 4.1378782 4.1378782) to (45.183255 45.183255 45.183255)
  1 by 2 by 2 MPI processor grid
  reading bonds ...
  7010 bonds
  reading angles ...
  13000 angles
  reading dihedrals ...
  14970 dihedrals
  reading impropers ...
  8000 impropers
Finding 1-2 1-3 1-4 neighbors ...
  special bond factors lj:    0        0        1       
  special bond factors coul:  0        0        1       
     4 = max # of 1-2 neighbors
     6 = max # of 1-3 neighbors
     8 = max # of special neighbors
  special bonds CPU = 0.001 seconds
  read_data CPU = 0.185 seconds


# --- Thermo Output ---
thermo_style custom step time temp press enthalpy etotal ke pe ebond eangle edihed eimp evdwl ecoul elong etail vol lx ly lz density pxx pyy pzz
thermo_modify flush yes
thermo 500

# --- Velocity initialization at T_START (once only — Rule A) ---
velocity all create 440.0 775205 mom yes rot yes dist gaussian

# --- Temperature staircase (inherits momenta across steps — Rule A) ---
variable temps index 440 420 400 380 360 340 320 300 280 260 240 220 200 180 160 140 120 100
label TEMP_LOOP
  timestep 1.0
  fix npt_tg all npt temp ${temps} ${temps} 100.0 iso 1.0 1.0 1000.0
  fix npt_tg all npt temp 440 ${temps} 100.0 iso 1.0 1.0 1000.0
  fix npt_tg all npt temp 440 440 100.0 iso 1.0 1.0 1000.0
  run 125000

CITE-CITE-CITE-CITE-CITE-CITE-CITE-CITE-CITE-CITE-CITE-CITE-CITE

Your simulation uses code contributions which should be cited:

- GPU package (short-range, long-range and three-body potentials): doi:10.1016/j.cpc.2010.12.021, doi:10.1016/j.cpc.2011.10.012, doi:10.1016/j.cpc.2013.08.002, doi:10.1016/j.commatsci.2014.10.068, doi:10.1016/j.cpc.2016.10.020, doi:10.3233/APC200086

@Article{Brown11,
 author = {W. M. Brown and P. Wang and S. J. Plimpton and A. N. Tharrington},
 title = {Implementing Molecular Dynamics on Hybrid High Performance Computers---Short Range Forces},
 journal = {Comput.\ Phys.\ Commun.},
 year =    2011,
 volume =  182,
 pages =   {898--911},
 doi =     {10.1016/j.cpc.2010.12.021}
}

@Article{Brown12,
 author = {W. M. Brown and A. Kohlmeyer and S. J. Plimpton and A. N. Tharrington},
 title = {Implementing Molecular Dynamics on Hybrid High Performance Computers - Particle-Particle Particle-Mesh},
 journal = {Comput.\ Phys.\ Commun.},
 year =    2012,
 volume =  183,
 doi =     {10.1016/j.cpc.2011.10.012},
 pages =   {449--459}
}

@Article{Brown13,
 author = {W. M. Brown and Y. Masako},
 title = {Implementing Molecular Dynamics on Hybrid High Performance Computers---Three-Body Potentials},
 journal = {Comput.\ Phys.\ Commun.},
 year =    2013,
 volume =  184,
 pages =   {2785--2793},
 doi =     {10.1016/j.cpc.2013.08.002},
}

@Article{Trung15,
 author = {T. D. Nguyen and S. J. Plimpton},
 title = {Accelerating Dissipative Particle Dynamics Simulations for Soft Matter Systems},
 journal = {Comput.\ Mater.\ Sci.},
 year =    2015,
 doi =     {10.1016/j.commatsci.2014.10.068},
 volume =  100,
 pages =   {173--180}
}

@Article{Trung17,
 author = {T. D. Nguyen},
 title = {{GPU}-Accelerated {T}ersoff Potentials for Massively Parallel
    Molecular Dynamics Simulations},
 journal = {Comput.\ Phys.\ Commun.},
 year =    2017,
 doi =     {10.1016/j.cpc.2016.10.020},
 volume =  212,
 pages =   {113--122}
}

@inproceedings{Nikolskiy19,
 author = {V. Nikolskiy and V. Stegailov},
 title = {{GPU} Acceleration of Four-Site Water Models in {LAMMPS}},
 booktitle = {Proceedings of the International Conference on Parallel
    Computing (ParCo 2019), Prague, Czech Republic},
 doi =     {10.3233/APC200086},
 year =    2019
}

CITE-CITE-CITE-CITE-CITE-CITE-CITE-CITE-CITE-CITE-CITE-CITE-CITE

PPPM initialization ...
  using 12-bit tables for long-range coulomb
  G vector (1/distance) = 0.30305103
  grid = 30 30 30
  stencil order = 5
  estimated absolute RMS force accuracy = 0.00030548329
  estimated relative force accuracy = 9.1995386e-07
  using double precision KISS FFT
  3d grid and FFT values/proc = 17908 6750
Generated 10 of 10 mixed pair_coeff terms from sixthpower/sixthpower mixing rule
Neighbor list info ...
  update: every = 1 steps, delay = 0 steps, check = yes
  max neighbors/atom: 4000, page size: 100000
  master list distance cutoff = 11.5
  ghost atom cutoff = 11.5
  binsize = 5.75, bins = 8 8 8
  1 neighbor lists, perpetual/occasional/extra = 1 0 0
  (1) pair lj/class2/coul/long/gpu, perpetual
      attributes: full, newton on
      pair build: full/bin
      stencil: full/bin/3d
      bin: standard
Per MPI rank memory allocation (min/avg/max) = 20.34 | 20.44 | 20.72 Mbytes
   Step          Time           Temp          Press         Enthalpy        TotEng         KinEng         PotEng         E_bond        E_angle        E_dihed        E_impro         E_vdwl         E_coul         E_long         E_tail         Volume           Lx             Ly             Lz          Density          Pxx            Pyy            Pzz      
         0   0              440            2964.5036      9994.4329      7004.7811      9205.8145     -2201.0334      2331.8631      4891.5415     -8492.8744     -52.649088     -2958.391       6962.8613     -4883.3847     -464.2469       69150.087      41.045377      41.045377      41.045377      1.0583668      2523.3657      3458.3322      2911.8129    
       500   500            436.16743     -274.32633      9901.9255      10188.441      9125.6284      1062.8128      3559.1494      6347.2521     -8314.1944     -72.81889      -2543.4072      6967.1306     -4880.2988     -448.26698      71615.164      41.527424      41.527424      41.527424      1.0219366     -641.55102      1098.1725     -1279.6004    
      1000   1000           437.27846     -1042.4245      9156.1344      10258.644      9148.8737      1109.7707      3492.9989      6379.903      -8219.1408     -71.970979     -2566.971       6974.5112     -4879.5595     -442.6696       72520.71       41.701725      41.701725      41.701725      1.009176      -1239.948      -478.63804     -1408.6876    
      1500   1500           443.4295      -386.68503      9940.2783      10346.849      9277.5675      1069.2817      3431.2832      6443.7921     -8259.2471     -74.001066     -2567.0653      6968.8751     -4874.3552     -445.28568      72094.646      41.619897      41.619897      41.619897      1.01514        1051.3941     -1317.2409     -894.20826    
      2000   2000           443.67528     -1335.9517      9196.8097      10607.278      9282.7098      1324.5679      3537.5288      6519.124      -8212.0404     -76.51567      -2557.8549      6988.8213     -4874.4953     -443.45054      72392.997      41.67723       41.67723       41.67723       1.0109564     -72.330795     -2149.3959     -1786.1284    
      2500   2500           441.76075     -395.96493      10218.874      10635.349      9242.6534      1392.6958      3520.7153      6558.097      -8226.2568     -77.130625     -2494.7914      6980.8839     -4868.8216     -445.12853      72120.099      41.624795      41.624795      41.624795      1.0147817      509.14027     -534.61014     -1162.4249    
      3000   3000           446.3506      -265.19081      10487.771      10771.163      9338.6837      1432.4797      3467.6546      6521.9762     -8146.6218     -74.080109     -2450.4992      6981.0787     -4867.0287     -438.11415      73274.77       41.845763      41.845763      41.845763      0.99879071    -68.552929     -820.30453      93.285016    
      3500   3500           431.71348     -205.8907       10385.543      10604.822      9032.4413      1572.3811      3561.0678      6611.7836     -8211.8707     -74.990236     -2447.8942      6998.7103     -4864.4254     -439.59967      73027.155      41.798574      41.798574      41.798574      1.0021773      1288.8029      169.99083     -2076.4658    
      4000   4000           435.68491      612.01469      11237.189      10586.267      9115.533       1470.7342      3496.3382      6677.3742     -8277.5444     -79.938191     -2438.2117      6969.2959     -4876.5797     -440.20096      72927.405      41.779533      41.779533      41.779533      1.0035481      2860.2823     -992.13553     -32.102705    
      4500   4500           436.11311      836.47767      11459.902      10574.093      9124.4918      1449.6013      3430.3471      6539.5552     -8097.6322     -78.24908      -2463.7237      6985.7641     -4866.4601     -442.11173      72612.219      41.719257      41.719257      41.719257      1.0079042      750.97789      598.49567      1159.9595    
      5000   5000           438.72331     -412.40321      10148.868      10587.85       9179.1033      1408.7466      3556.5476      6506.9363     -8171.9838     -67.163025     -2516.0324      6976.0963     -4875.6544     -439.83851      72987.501      41.791007      41.791007      41.791007      1.0027218     -609.07784      2021.3509     -2649.4827    
      5500   5500           437.39563     -2227.9898      8304.0782      10672.716      9151.325       1521.3908      3599.8081      6496.7575     -8100.2496     -75.544211     -2507.5135      6977.5147     -4869.3823     -440.3847       72896.977      41.773722      41.773722      41.773722      1.003967      -791.06137     -2190.2991     -3702.609     
      6000   6000           446.21909     -574.8879       10240.986      10849.682      9335.9323      1513.7499      3557.5939      6590.1798     -8076.0668     -73.841055     -2585.591       6973.9811     -4872.506      -442.18124      72600.804      41.717071      41.717071      41.717071      1.0080627     -1317.6402     -449.72742      42.703953    
      6500   6500           441.90842     -591.88114      10125.749      10753.636      9245.7431      1507.8924      3541.6221      6600.6832     -8128.7611     -76.355107     -2534.0225      6974.8285     -4870.1028     -441.33737      72739.622      41.743643      41.743643      41.743643      1.0061388     -1659.982      -977.5496       861.88812    
      7000   7000           436.28378      658.93571      11263.189      10564.514      9128.0626      1436.4517      3453.4609      6570.287      -8079.2737     -75.623946     -2525.6618      6967.9335     -4874.6702     -441.55604      72703.6        41.736751      41.736751      41.736751      1.0066374      877.88658      872.83596      226.08459    
      7500   7500           435.31292      295.26828      11023.417      10709.67       9107.7499      1601.9204      3603.9368      6562.3707     -8104.791      -78.805386     -2498.1855      6986.9597     -4869.5649     -440.6106       72859.603      41.766582      41.766582      41.766582      1.004482       774.38184     -230.20308      341.62608    
      8000   8000           443.72809      1194.0303      12123.663      10852.06       9283.8148      1568.2449      3608.2571      6532.1489     -8115.3809     -72.816661     -2494.0652      6980.074      -4869.9723     -439.62404      73023.108      41.797801      41.797801      41.797801      1.0022329      1939.9132      2156.3366     -514.15903    
      8500   8500           445.56057      475.02519      11306.353      10799.247      9322.1544      1477.093       3537.8238      6466.6663     -8136.4743     -72.329933     -2449.1452      6995.8393     -4865.287      -438.56712      73199.089      41.831351      41.831351      41.831351      0.99982337    -1423.4552      2893.0027     -44.471938    
      9000   9000           436.14578     -1000.1302      9668.1173      10730.695      9125.1753      1605.5197      3546.3983      6682.5909     -8176.2511     -73.613637     -2485.5872      6982.5109     -4870.5286     -440.66999      72849.785      41.764706      41.764706      41.764706      1.0046174     -1113.2394     -1660.7126     -226.43854    
      9500   9500           426.92693     -1238.4395      9079.0926      10403.779      8932.2958      1471.4833      3525.4088      6467.9276     -8119.5652     -70.199589     -2468.2056      6999.6489     -4863.5315     -437.7028       73343.633      41.858867      41.858867      41.858867      0.99785294    -2246.1588      232.13208     -1701.2916    
     10000   10000          438.62538     -1063.8477      9440.4238      10570.509      9177.0542      1393.4546      3487.9582      6385.1916     -8070.0536     -75.622723     -2461.6806      6992.8665     -4865.2049     -440.74354      72837.628      41.762382      41.762382      41.762382      1.0047851     -745.56885     -1004.1631     -1441.811     
     10500   10500          441.69633      256.99712      10922.741      10650.931      9241.3057      1409.6253      3399.1452      6506.978      -8072.7708     -79.032304     -2461.9776      6985.1851     -4867.9023     -442.66967      72520.698      41.701722      41.701722      41.701722      1.0091762      1180.8444     -92.44926      -317.40377    
     11000   11000          450.02592     -98.46888       10854.335      10960.348      9415.5799      1544.7681      3570.561       6473.8063     -8166.7506     -76.176268     -2399.5474      7007.7235     -4864.8485     -434.86801      73821.741      41.949626      41.949626      41.949626      0.99139032    -1206.6151     -121.83387      1033.0423    
     11500   11500          447.65215     -143.72637      10868.391      11023.039      9365.9152      1657.1238      3483.86        6660.1275     -8126.5126     -78.400918     -2413.8839      6997.7396     -4865.8059     -435.12133      73778.763      41.941484      41.941484      41.941484      0.99196783     747.36365     -135.28942     -1043.2533    
     12000   12000          439.57282     -157.171        10752.754      10922.057      9196.8769      1725.1797      3638.3071      6523.4543     -8111.2594     -77.009983     -2390.6536      7001.8999     -4859.5586     -434.63637      73861.085      41.957077      41.957077      41.957077      0.99086224    -1096.65        1467.9736     -842.83659    
     12500   12500          441.71728      1788.3136      12623.856      10705.369      9241.744       1463.6252      3432.1471      6497.5776     -8092.7338     -73.180351     -2416.9465      6987.5879     -4870.8267     -436.41788      73559.575      41.899908      41.899908      41.899908      0.99492363     1599.9292      1505.4774      2259.5341    
     13000   13000          433.77775     -968.8723       9576.5166      10613.908      9075.6307      1538.2777      3619.5089      6472.8568     -8108.1379     -75.447925     -2490.4818      6989.2103     -4869.2307     -437.26165      73417.628      41.87294       41.87294       41.87294       0.99684723    -919.30509     -1254.236      -733.0758     
     13500   13500          437.998       -1277.1674      9398.6248      10768.549      9163.9281      1604.6211      3510.6115      6546.7205     -8111.3266     -77.363741     -2403.8377      6999.4407     -4859.6235     -436.4845       73548.347      41.897776      41.897776      41.897776      0.99507552     143.43666     -1489.605      -2485.3338    
     14000   14000          443.25828     -311.98031      10545.41       10881.641      9273.9852      1607.6556      3495.7287      6599.7054     -8151.6742     -74.429266     -2407.3612      7006.4399     -4860.7537     -434.41691      73898.397      41.964141      41.964141      41.964141      0.99036193    -1055.4104     -794.01321      913.48268    
     14500   14500          437.36226      111.32082      10937.049      10818.186      9150.6269      1667.5596      3528.1649      6496.3356     -8015.0632     -76.79892      -2426.8309      7021.9011     -4860.149      -438.47737      73214.071      41.834205      41.834205      41.834205      0.99961877     418.35803      511.37667     -595.77224    
     15000   15000          431.99666      625.8417       11312.6        10644.222      9038.3661      1605.8561      3513.6742      6599.9371     -8148.8762     -71.800034     -2446.6044      7018.0111     -4858.4856     -438.38919      73228.798      41.83701       41.83701       41.83701       0.99941773    -850.02934      1599.4466      1128.1078    
     15500   15500          431.97107      232.1181       10917.173      10667.638      9037.8307      1629.8071      3476.4415      6535.6517     -8090.6056     -75.614544     -2379.9215      7022.878      -4859.0224     -435.50746      73713.35       41.929085      41.929085      41.929085      0.9928481      1104.9795     -451.94233      43.317152    
     16000   16000          437.1967       787.18539      11586.788      10745.867      9147.163       1598.7044      3497.6851      6662.4427     -8152.1057     -74.88433      -2462.9495      6996.8256     -4868.3094     -438.26786      73249.071      41.84087       41.84087       41.84087       0.99914113     28.753474      1763.4645      569.33819    
     16500   16500          438.06664      1049.2728      12084.556      10959.942      9165.3641      1794.578       3513.474       6762.1222     -8140.5296     -79.642993     -2413.5906      7014.1567     -4861.4117     -436.8201       73491.841      41.887044      41.887044      41.887044      0.9958406      208.95918      1701.41        1237.4494    
     17000   17000          434.55883      1826.1672      12804.025      10851.641      9091.9728      1759.6679      3549.1611      6665.1969     -8125.8823     -78.079291     -2394.8296      7011.9119     -4867.8109     -437.91818      73307.561      41.852004      41.852004      41.852004      0.99834394     660.10185      1695.7391      3122.6606    
     17500   17500          438.46023      510.23089      11034.994      10488.714      9173.599       1315.1146      3347.414       6383.9823     -8086.98       -74.120491     -2403.9212      7012.9808     -4864.2408     -437.28939      73412.972      41.872054      41.872054      41.872054      0.99691046     893.57064      978.93933     -341.81731    
     18000   18000          441.0167      -96.004797      10694.19       10797.165      9227.0862      1570.0787      3438.0988      6485.2794     -8030.2047     -73.902519     -2407.3561      7012.9726     -4854.8087     -436.49573      73546.456      41.897417      41.897417      41.897417      0.99510111    -1259.9767      851.50965      120.45267    
     18500   18500          439.29349     -1000.3898      9812.4852      10892.656      9191.0326      1701.623       3485.7505      6648.02       -8117.1767     -79.951259     -2397.3884      7015.0259     -4852.657      -433.60531      74036.717      41.990307      41.990307      41.990307      0.98851168     849.43784     -2837.2838     -1013.3233    
     19000   19000          447.02819     -172.04815      10777.721      10962.625      9352.8605      1609.7642      3488.7152      6481.1694     -8094.0522     -76.190114     -2355.7328      7026.2227     -4860.368      -435.63436      73691.876      41.925013      41.925013      41.925013      0.99313742    -1580.8267     -190.19521      1254.8774    
     19500   19500          443.25397      700.19759      11812.1        11051.426      9273.8951      1777.5312      3546.0059      6524.8528     -8057.1044     -73.839359     -2333.1038      7031.9486     -4861.2284     -430.96284      74490.676      42.075954      42.075954      42.075954      0.98248752     959.7911      -1244.6416      2385.4433    
     20000   20000          432.64856     -1012.1723      9818.4254      10922.545      9052.0054      1870.5392      3570.1807      6649.8924     -8057.4583     -77.539808     -2355.3494      6998.2112     -4857.3977     -429.19646      74797.248      42.133597      42.133597      42.133597      0.9784606     -534.641       -100.80877     -2401.067     
     20500   20500          440.87465     -301.73236      10391.539      10716.189      9224.1143      1492.0744      3433.4705      6423.9267     -8009.8923     -74.000566     -2433.9359      7011.4577     -4858.9517     -435.13587      73776.298      41.941017      41.941017      41.941017      0.99200098    -1021.6735     -1864.1802      1980.6566    
     21000   21000          436.52113     -1020.3529      9730.7503      10833.733      9133.0285      1700.7049      3494.3267      6596.0767     -8072.6385     -75.144163     -2423.0994      7035.464      -4854.2803     -433.11096      74121.222      42.006277      42.006277      42.006277      0.98738468    -1015.2411     -1627.4674     -418.35017    
     21500   21500          435.59684      608.70849      11564.552      10901.477      9113.6902      1787.7866      3470.7549      6599.8059     -8128.5835     -75.027987     -2268.5831      7044.701      -4855.2806     -429.7976       74692.63       42.113944      42.113944      42.113944      0.97983107    -193.40308      1763.1008      256.42776    
     22000   22000          440.77628     -1369.1606      9528.4786      11026.033      9222.056       1803.9772      3568.1732      6612.9459     -8129.0845     -72.070946     -2358.004       7038.6826     -4856.6651     -428.04496      74998.462      42.171345      42.171345      42.171345      0.97583548    -2181.1136     -936.00632     -990.36204    
     22500   22500          448.98715     -228.55716      10861.597      11110.22       9393.8464      1716.3735      3506.5054      6600.9661     -8114.7214     -79.043522     -2373.9083      7033.3514     -4856.7762     -430.39909      74588.248      42.094317      42.094317      42.094317      0.98120229     1339.1522     -962.63455     -1062.1892    
     23000   23000          441.76352      2023.4621      13350.343      11147.917      9242.7114      1905.206       3569.4641      6521.0881     -8013.9797     -74.172744     -2280.9581      7039.0297     -4855.2654     -430.14171      74632.878      42.102711      42.102711      42.102711      0.98061553     1164.6415      3771.2699      1134.4747    
     23500   23500          438.20303     -1528.0926      9345.3062      11014.016      9168.2178      1845.7982      3469.3087      6738.4772     -8148.6401     -73.879143     -2335.1349      7043.3639     -4847.6973     -428.73258      74878.176      42.148787      42.148787      42.148787      0.97740308    -3470.0011     -1346.7267      232.45009    
     24000   24000          435.41003      493.38596      11323.368      10789.199      9109.7818      1679.4175      3443.4591      6567.599      -8109.7705     -73.003253     -2344.6043      7051.7069     -4855.9695     -432.44024      74236.184      42.027983      42.027983      42.027983      0.98585562     3026.6173     -2094.7563      548.2969     
     24500   24500          439.18562     -1208.2411      9577.0822      10899.357      9188.7758      1710.5816      3424.2629      6572.8427     -8080.9664     -72.510133     -2321.016       7036.3674     -4848.3987     -427.80845      75039.924      42.179115      42.179115      42.179115      0.97529629    -934.13749     -649.95464     -2040.6311    
     25000   25000          443.22689      203.11548      11190.329      10971.384      9273.3285      1698.0557      3477.7612      6489.9003     -8081.4956     -75.373543     -2292.8829      7041.7733     -4861.6271     -434.33633      73912.108      41.966736      41.966736      41.966736      0.99017822    -578.33273      1635.8455     -448.16636    
     25500   25500          440.35543      13.042642      11005.521      10991.376      9213.251       1778.1247      3508.2538      6585.9929     -8030.7526     -70.86134      -2367.4411      7014.8366     -4861.9035     -431.6952       74364.306      42.052147      42.052147      42.052147      0.9841571      86.99442       786.70513     -834.57162    
     26000   26000          440.02545      11.048884      10907.004      10894.963      9206.3469      1688.6158      3407.4551      6755.1107     -8199.9397     -82.039436     -2343.3696      7014.0584     -4862.6598     -429.58583      74729.451      42.120863      42.120863      42.120863      0.97934828     1004.7897      382.1322      -1353.7752    
     26500   26500          444.16939      41.70656       11108.51       11062.885      9293.0477      1769.8369      3598.4167      6542.0036     -8138.4553     -71.45012      -2306.1908      7010.1151     -4864.6024     -427.97411      75010.877      42.173672      42.173672      42.173672      0.97567396    -216.67499      809.76619     -467.97153    
     27000   27000          444.11387     -1165.7851      9782.9341      11044.318      9291.8861      1752.4318      3550.646       6551.3737     -8072.047      -77.61089      -2351.1025      7018.1264     -4866.9539     -432.70199      74191.278      42.019507      42.019507      42.019507      0.98645234    -3112.7944     -1204.5718      820.01088    
     27500   27500          445.83572     -1008.2193      9976.606       11062.907      9327.9112      1734.9962      3523.8164      6576.6316     -8056.9441     -75.324214     -2393.5733      7018.0397     -4857.6499     -434.53253      73878.735      41.960419      41.960419      41.960419      0.99062552    -599.88478     -913.34114     -1511.432     
     28000   28000          441.00429     -1986.756       8868.5077      11039.048      9226.8266      1812.2217      3635.2527      6488.8049     -8029.6976     -76.206506     -2363.5881      7021.4105     -4863.7541     -428.54284      74911.329      42.155007      42.155007      42.155007      0.97697052    -2056.6299     -1337.2896     -2566.3484    
     28500   28500          442.78366      1897.2257      13007.173      10937.49       9264.0552      1673.4349      3414.3065      6477.5368     -8028.7247     -75.453884     -2268.7142      7018.2304     -4863.746      -429.17343      74801.261      42.134351      42.134351      42.134351      0.97840811     648.77072      2088.2773      2954.629     
     29000   29000          436.36408      110.46794      10940.306      10820.234      9129.7427      1690.4918      3458.8564      6583.8906     -8129.2794     -78.286398     -2301.6732      7020.1806     -4863.1967     -430.7391       74529.37       42.083238      42.083238      42.083238      0.98197743     518.67838      828.51186     -1015.7864    
     29500   29500          437.18006      1786.9314      12945.249      10997.569      9146.815       1850.7539      3574.1916      6439.4374     -8002.1626     -74.39481      -2242.0464      7021.7266     -4865.9979     -429.54418      74736.699      42.122225      42.122225      42.122225      0.97925331     1097.7934      2818.4644      1444.5363    
     30000   30000          442.05524     -513.45343      10483.227      11051.126      9248.8149      1802.3115      3539.6612      6489.201      -8042.374      -74.4382       -2260.3284      7011.3739     -4860.784      -423.29924      75839.29       42.328358      42.328358      42.328358      0.96501642    -2071.3682      614.62228     -83.614369    
     30500   30500          440.42013      446.92224      11615.102      11126.354      9214.6047      1911.7496      3515.6807      6711.9237     -8068.2174     -78.189976     -2318.4167      7012.89       -4863.9207     -428.11923      74985.451      42.168906      42.168906      42.168906      0.97600479    -222.68329      1086.8902      476.55987    
     31000   31000          445.39186      590.41595      11718.18       11075.971      9318.6247      1757.3461      3504.9558      6492.0165     -8047.8572     -74.524213     -2279.2189      7026.2326     -4864.2585     -430.42647      74583.502      42.093424      42.093424      42.093424      0.98126472     326.79667      1503.6201     -59.168951    
     31500   31500          439.73798     -254.223        10737.2        11014.725      9200.3325      1814.393       3410.9799      6638.1403     -8021.0572     -73.469901     -2293.0405      7015.5395     -4862.699      -428.87408      74853.472      42.144152      42.144152      42.144152      0.97772566     226.1045      -593.58398     -395.18953    
     32000   32000          438.15302     -1223.1689      9559.9007      10892.41       9167.1715      1725.2388      3542.288       6483.0694     -8039.8262     -77.726536     -2331.6899      7011.2516     -4862.1278     -429.76763      74697.84       42.114923      42.114923      42.114923      0.97976273    -1020.309      -1095.6646     -1553.533     
     32500   32500          438.1196       878.17652      11753.763      10801.618      9166.4723      1635.1454      3399.1929      6612.9324     -8097.8884     -77.929645     -2354.5366      7016.9023     -4863.5276     -431.81331      74343.965      42.048313      42.048313      42.048313      0.98442637     310.1293      -63.889938      2388.2902    
     33000   33000          444.26024     -1240.7424      9821.4879      11185.579      9294.9485      1890.6304      3528.483       6705.6045     -8134.3974     -81.041343     -2294.539       7024.8621     -4858.3414     -425.84927      75385.155      42.243699      42.243699      42.243699      0.97082986    -829.71039     -2008.7295     -883.78719    
     33500   33500          439.19713     -729.09274      10251.889      11038.094      9189.0167      1849.0771      3484.2078      6687.6455     -8074.5134     -79.301064     -2337.0729      7026.0864     -4857.9751     -434.17499      73939.573      41.971934      41.971934      41.971934      0.98981042    -511.8935      -1585.0314     -90.353327    
     34000   34000          445.36939     -305.10326      10806.373      11137.32       9318.1545      1819.1656      3557.1436      6530.4725     -8057.5052     -73.284895     -2321.6646      7040.8513     -4856.8471     -431.62441      74376.502      42.054446      42.054446      42.054446      0.98399572    -506.92314     -619.71361      211.32696    
     34500   34500          440.42931     -1758.8993      9170.1173      11082.95       9214.7967      1868.1529      3647.8863      6542.5176     -8048.5192     -75.231195     -2379.0613      7030.2744     -4849.7136     -430.50848      74569.294      42.090751      42.090751      42.090751      0.98145169     166.83056     -2886.9913     -2556.5372    
     35000   35000          437.25204      152.52048      10910.305      10744.582      9148.3209      1596.2615      3451.0696      6498.9923     -8074.409      -72.200279     -2366.5208      7014.442      -4855.1123     -430.88767      74503.673      42.078401      42.078401      42.078401      0.98231613     753.05464     -1617.0879      1321.5948    
     35500   35500          440.0283       8.9960233      10851.177      10841.398      9206.4065      1634.9911      3465.6349      6546.843      -8131.6604     -70.769995     -2350.353       7034.2218     -4858.9253     -430.70196      74535.797      42.084448      42.084448      42.084448      0.98189276    -339.7242       160.50017      206.2121     
     36000   36000          431.05557      472.81468      11366.595      10850.852      9018.6764      1832.1753      3444.9932      6636.4752     -8066.2012     -70.76779      -2279.7891      7024.1341     -4856.669      -429.21495      74794.024      42.132992      42.132992      42.132992      0.97850276    -921.7341       1776.7111      563.46702    
     36500   36500          439.51024      699.63553      11716.858      10950.386      9195.5676      1754.8187      3421.9224      6517.5081     -8031.7988     -74.676307     -2245.5158      7020.9374     -4853.5582     -427.35952      75118.752      42.193879      42.193879      42.193879      0.97427284     1909.7245     -226.93131      416.11336    
     37000   37000          438.70539      1181.2312      12451.224      11154.277      9178.7282      1975.5484      3506.8498      6719.2919     -8078.1904     -69.782245     -2282.3309      7034.6356     -4854.9253     -426.41282      75285.527      42.225082      42.225082      42.225082      0.9721146      2922.76        1898.8634     -1277.9296    
     37500   37500          437.83048      1436.8564      12572.535      10991.689      9160.4232      1831.2656      3403.9118      6574.4313     -8057.1883     -76.095853     -2215.0887      7047.7557     -4846.4603     -425.54087      75439.789      42.253902      42.253902      42.253902      0.97012679     3307.6793      156.19202      846.69788    
     38000   38000          439.70096      527.3356       11534.402      10958.896      9199.558       1759.3382      3374.6954      6568.8765     -8001.3363     -76.982909     -2283.8644      7034.8465     -4856.8966     -428.9975       74831.936      42.14011       42.14011       42.14011       0.97800703    -480.1633       645.77352      1416.3966    
     38500   38500          436.11289      708.40776      11708.177      10931.083      9124.4872      1806.596       3435.9479      6494.1945     -8039.2995     -78.683095     -2183.7166      7032.6731     -4854.5204     -426.80315      75216.675      42.212206      42.212206      42.212206      0.97300445    -436.15635      815.91858      1745.4611    
     39000   39000          432.44678     -28.265309      10814.585      10845.553      9047.7837      1797.7695      3524.125       6449.0067     -8022.5986     -74.126871     -2251.3492      7029.8538     -4857.1414     -427.32313      75125.149      42.195077      42.195077      42.195077      0.97418988    -583.04239     -1219.8466      1718.0931    
     39500   39500          433.73467      632.83444      11476.914      10789.186      9074.7295      1714.4569      3406.5231      6555.7574     -8096.0957     -74.511959     -2232.9348      7014.8242     -4859.1055     -430.81544      74516.163      42.080752      42.080752      42.080752      0.98215147    -63.147803      1292.7092      668.94188    
     40000   40000          441.40145     -856.00062      10184.779      11125.725      9235.1361      1890.5889      3498.0278      6631.3375     -8065.0671     -78.608239     -2269.9457      7034.1427     -4859.298      -425.91882      75372.846      42.2414        42.2414        42.2414        0.97098841    -637.09491     -2337.0761      406.16915    
     40500   40500          439.31668      865.77842      12034.041      11091.653      9191.5178      1900.1347      3529.3475      6582.0623     -8035.22       -74.606165     -2266.4613      7024.1204     -4859.108      -430.12498      74635.781      42.103257      42.103257      42.103257      0.98057739    -238.47013      1605.0026      1230.8028    
     41000   41000          438.46136      510.00873      11434.637      10880.296      9173.6227      1706.6735      3508.563       6448.2112     -8032.626      -78.553296     -2330.1529      7043.121      -4851.8894     -430.74312      74528.674      42.083107      42.083107      42.083107      0.9819866      1698.1624     -976.47907      808.34291    
     41500   41500          437.77148     -2606.3919      8122.9464      11017          9159.1888      1857.8108      3521.8621      6583.5205     -8086.7751     -78.419534     -2266.7934      7033.5688     -4849.1526     -421.64878      76136.148      42.383515      42.383515      42.383515      0.96125377    -3234.5446     -2259.103      -2325.5283    
     42000   42000          443.70281     -199.34408      11044.666      11263.39       9283.2858      1980.1046      3638.9644      6497.4435     -8044.7332     -70.244928     -2219.8557      7031.0153     -4852.4847     -426.70061      75234.75       42.215587      42.215587      42.215587      0.97277069    -1919.0404     -817.12284      2138.131     
     42500   42500          435.17697     -1165.1         9810.8986      11073.548      9104.9057      1968.6425      3503.3184      6869.3728     -8093.7135     -79.066556     -2422.2922      7046.7216     -4855.6981     -432.01416      74309.401      42.041795      42.041795      42.041795      0.98488427    -1037.9594     -631.5673      -1825.7734    
     43000   43000          440.28725     -1992.9213      8774.0126      10951.596      9211.8244      1739.7711      3457.3402      6590.1581     -8065.5102     -74.790349     -2344.8905      7030.7965     -4853.3327     -428.48248      74921.881      42.156986      42.156986      42.156986      0.97683292    -3523.0289     -1281.5036     -1174.2313    
     43500   43500          439.89004      676.08273      11695.239      10960.512      9203.5139      1756.9977      3444.9205      6653.908      -8155.4992     -76.748421     -2285.4737      7037.3173     -4861.4269     -430.8152       74516.205      42.08076       42.08076       42.08076       0.98215093    -699.24622      1091.8746      1635.6199    
     44000   44000          443.39998      1600.9358      12935.684      11203.331      9276.9499      1926.3815      3481.3667      6701.4485     -8050.9243     -74.290036     -2327.3386      7044.6389     -4848.5197     -432.66833      74197.049      42.020596      42.020596      42.020596      0.98637561    -173.00973      2141.0318      2834.7852    
     44500   44500          444.48534      627.70337      11837.818      11159.718      9299.6583      1860.0593      3501.965       6703.7832     -8072.4773     -72.386958     -2371.8206      7026.7153     -4855.7194     -433.38926      74073.625      41.997284      41.997284      41.997284      0.98801914     812.16095      158.19074      912.75844    
     45000   45000          452.19202      1702.2275      12933.13       11081.645      9460.8998      1620.7457      3411.1565      6555.3257     -8058.1104     -78.319177     -2352.8242      7004.3354     -4860.8182     -430.44253      74580.72       42.092901      42.092901      42.092901      0.98130133     2139.0533      182.10779      2785.5213    
     45500   45500          445.43897      3288.3463      14640.948      11030.846      9319.6102      1711.2357      3409.5198      6442.7071     -8049.6916     -72.953194     -2191.9274      7033.7354     -4860.1543     -426.45741      75277.655      42.22361       42.22361       42.22361       0.97221626     3335.827       4054.6481      2474.5638    
     46000   46000          439.25353      226.98193      11296.676      11047.474      9190.1966      1857.2776      3555.9445      6518.6415     -7984.0297     -76.278514     -2321.1675      7019.0367     -4854.8693     -426.44063      75280.617      42.224164      42.224164      42.224164      0.972178       6.3844346     -196.61927      871.18062    
     46500   46500          438.01941      494.92335      11479.207      10937.813      9164.3761      1773.4372      3452.5062      6626.5853     -8096.2832     -75.545734     -2310.7385      7035.2216     -4858.3086     -427.99882      75006.548      42.17286       42.17286       42.17286       0.97573028    -25.944124      1192.8162      317.89798    
     47000   47000          439.58584      435.12165      11380.598      10908.101      9197.1494      1710.952       3519.2454      6473.5419     -8020.6195     -66.910098     -2350.288       7017.2377     -4861.2555     -431.15159      74458.065      42.069813      42.069813      42.069813      0.98291782    -277.85193      33.191521      1550.0254    
     47500   47500          432.76968     -168.07628      10623.72       10807.063      9054.5395      1752.5238      3413.1515      6558.7666     -8029.4875     -80.210017     -2277.6513      7028.0198     -4860.0653     -429.19982      74796.661      42.133487      42.133487      42.133487      0.97846827     78.100455      330.68723     -913.01653    
     48000   48000          444.59248      248.24717      11447.28       11173.168      9301.8998      1871.2683      3461.56        6598.6258     -8005.5606     -81.338535     -2261.9528      7018.8411     -4858.9065     -424.00858      75712.415      42.30474       42.30474       42.30474       0.96663354     791.77294     -1602.6615      1555.63      
     48500   48500          435.98923     -1090.1497      9848.8285      11045.487      9121.9001      1923.5868      3583.7684      6500.7356     -8063.5256     -74.424265     -2186.8079      7021.3577     -4857.5172     -426.51429      75267.616      42.221733      42.221733      42.221733      0.97234592    -6.9258591     -1839.6963     -1423.8269    
     49000   49000          436.07362      287.47542      11253.995      10939.824      9123.6656      1816.1587      3503.6436      6574.5041     -8095.5187     -72.999047     -2257.864       7020.2107     -4855.8179     -428.40323      74935.741      42.159586      42.159586      42.159586      0.97665224    -584.89696     -365.55395      1812.8772    
     49500   49500          438.26357     -466.44157      10563.972      11077.06       9169.4845      1907.5751      3434.2913      6740.6362     -8044.7785     -77.572052     -2324.0915      7034.3596     -4855.2699     -425.62131      75425.531      42.25124       42.25124       42.25124       0.97031017     618.46707      103.75227     -2121.5441    
     50000   50000          441.79154      1386.1379      12577.831      11061.124      9243.2977      1817.8263      3485.0285      6544.5481     -8078.0295     -73.351268     -2250.0277      7039.061      -4849.4028     -427.88042      75027.302      42.17675       42.17675       42.17675       0.97546037     2611.7073      1017.6559      529.05033    
     50500   50500          444.06287     -50.636767      11092.045      11147.213      9290.819       1856.3938      3497.0974      6700.9104     -8129.9385     -77.901243     -2305.1017      7026.9058     -4855.5784     -429.73077      74704.248      42.116128      42.116128      42.116128      0.97967869    -1065.5297      454.26488      459.35451    
     51000   51000          441.60693      101.59656      11339.842      11229.41       9239.4352      1989.9749      3567.4058      6736.7705     -8122.7966     -77.082508     -2300.7957      7035.7256     -4849.2522     -430.72492      74531.824      42.0837        42.0837        42.0837        0.98194511     393.01087      403.91567     -492.13687    
     51500   51500          443.33366      843.61345      11919.583      10998.315      9275.5624      1722.7527      3527.4747      6501.2809     -8109.4831     -70.952876     -2282.6136      7018.5864     -4861.5397     -428.72148      74880.114      42.149151      42.149151      42.149151      0.97737778    -176.45405      1128.6831      1578.6113    
     52000   52000          430.60494      1279.3307      12374.382      10982.878      9009.2482      1973.6299      3450.5518      6748.9815     -8053.9386     -81.204414     -2263.8864      7026.7944     -4853.6683     -430.44342      74580.565      42.092872      42.092872      42.092872      0.98130337     1633.974       1841.4991      362.51909    
     52500   52500          442.96564     -243.49949      10702.721      10967.545      9267.8625      1699.682       3501.5586      6485.7806     -8059.3641     -76.261009     -2330.3956      7037.1574     -4858.794      -430.48616      74573.16       42.091479      42.091479      42.091479      0.9814008      1441.597      -899.28405     -1272.8114    
     53000   53000          434.62475      1168.4865      12097.309      10838.16       9093.352       1744.8079      3561.6208      6421.9913     -8039.6683     -72.100223     -2321.035       7043.7175     -4849.718      -434.47453      73888.597      41.962286      41.962286      41.962286      0.99049329     419.50866      1400.6968      1685.2539    
     53500   53500          434.59882      6.2832001      10840.381      10833.499      9092.8094      1740.6893      3509.4474      6533.7708     -8058.8355     -74.771247     -2320.9375      7011.1804     -4859.1651     -427.41815      75108.447      42.19195       42.19195       42.19195       0.97440651    -2150.4094      1136.7983      1032.4607    
     54000   54000          449.78823      865.37232      11957.929      11016.267      9410.6069      1605.6598      3416.9913      6404.3816     -7996.7876     -72.2916       -2292.4123      7007.1298     -4861.3513     -430.25434      74613.341      42.099037      42.099037      42.099037      0.98087231     709.69448      1310.8014      575.62106    
     54500   54500          442.68487     -469.033        10547.589      11059.161      9261.9881      1797.1725      3478.1893      6582.206      -8019.4046     -73.660588     -2332.9757      7026.6095     -4863.7914     -429.25412      74787.2        42.13171       42.13171       42.13171       0.97859206    -216.05489     -1650.5131      459.46897    
     55000   55000          439.34914      636.29982      11644.288      10950.49       9192.1971      1758.2931      3472.212       6487.7972     -8006.2543     -73.288664     -2295.5267      7032.4273     -4859.0737     -429.3849       74764.422      42.127433      42.127433      42.127433      0.9788902      2297.1337      2203.5679     -2591.802     
     55500   55500          427.93182     -118.45689      10660.201      10790.925      8953.3204      1837.6049      3456.0835      6591.7092     -8020.3306     -75.256115     -2281.752       7030.8801     -4863.7292     -424.25082      75669.184      42.296687      42.296687      42.296687      0.96718579    -1190.1592      480.07017      354.71838    
     56000   56000          438.26367     -354.30445      10555.762      10941.522      9169.4865      1772.0355      3440.219       6431.5052     -7957.6584     -75.458282     -2244.0664      7035.2186     -4857.7243     -430.00828      74656.037      42.107066      42.107066      42.107066      0.98031135    -593.2762       319.86374     -789.5009     
     56500   56500          454.63229      1243.8929      12686.2        11353.351      9511.9558      1841.3951      3549.4214      6641.5147     -8042.7273     -79.802232     -2380.6333      7015.1133     -4861.4915     -436.93783      73472.04       41.883281      41.883281      41.883281      0.996109      -360.35178      1742.3219      2349.7085    
     57000   57000          441.26428      200.70142      11240.159      11021.322      9232.2661      1789.0563      3472.2338      6583.2786     -7987.3978     -75.811651     -2357.5868      7019.875      -4865.5349     -429.38713      74764.033      42.12736       42.12736       42.12736       0.97889528     72.557313      406.56221      122.98472    
     57500   57500          438.57142     -7.1478099      10921.444      10929.234      9175.9254      1753.3084      3484.938       6579.6937     -8086.6384     -71.383711     -2334.5587      7035.2035     -4853.946      -429.59236      74728.316      42.12065       42.12065       42.12065       0.97936316    -1228.7602     -269.86372      1477.1805    
     58000   58000          433.31793     -491.41995      10312.716      10846.368      9066.0102      1780.3573      3543.5748      6551.5961     -8069.2938     -71.387192     -2355.6054      7034.2155     -4852.7428     -431.13427      74461.058      42.070377      42.070377      42.070377      0.98287833     75.125273     -2125.4024      576.01731    
     58500   58500          433.37731      753.94995      11736.858      10920.149      9067.2527      1852.8966      3493.3333      6620.6292     -8051.659      -77.738328     -2312.0703      7035.6821     -4855.2805     -432.20816      74276.047      42.035504      42.035504      42.035504      0.98532653    -389.42963      618.02857      2033.2509    
     59000   59000          438.62008     -594.97085      10351.429      10997.885      9176.9434      1820.9416      3391.5092      6772.008      -8102.08       -79.370295     -2331.342       7028.0596     -4857.8429     -430.89783      74501.915      42.07807       42.07807       42.07807       0.98233931    -1480.2114      604.43069     -909.1318     
     59500   59500          437.84005      244.41647      11240.899      10972.858      9160.6234      1812.2341      3466.7361      6645.7286     -8117.9238     -73.399829     -2289.2857      7036.7147     -4856.336      -426.91958      75196.161      42.208368      42.208368      42.208368      0.9732699     -42.440095      976.4815      -200.79201    
     60000   60000          435.53321     -4.2261326      10917.706      10922.331      9112.359       1809.9717      3503.8671      6487.0967     -8002.1663     -73.481372     -2278.6704      7030.6043     -4857.2782     -427.79038      75043.093      42.179709      42.179709      42.179709      0.9752551     -168.2349       99.899378      55.657127    
     60500   60500          429.78063      2280.2409      13204.378      10740.025      8992.0016      1748.0237      3543.9464      6594.0275     -8140.8703     -76.488638     -2324.1072      7013.808      -4862.2921     -433.2071       74104.773      42.003169      42.003169      42.003169      0.98760385     1358.4194      3028.2846      2454.0188    
     61000   61000          437.93996     -1549.8933      9303.4205      10983.033      9162.7138      1820.3188      3550.561       6430.2655     -7972.5156     -75.508726     -2280.437       7027.4554     -4859.5018     -432.02655      74307.27       42.041393      42.041393      42.041393      0.98491251    -121.63299     -1943.1566     -2584.8904    
     61500   61500          448.66047      218.35234      11632.722      11393.745      9387.0116      2006.7333      3512.1923      6632.1141     -8019.115      -72.327687     -2231.1558      7036.8097     -4851.7844     -427.77935      75045.028      42.180071      42.180071      42.180071      0.97522996     1750.178       116.55349     -1211.6745    
     62000   62000          438.29395     -1852.5677      8971.8631      11021.65       9170.1201      1851.5302      3519.7678      6561.8271     -7987.1821     -72.476661     -2343.0613      7031.1438     -4858.4886     -423.13889      75868.03       42.333704      42.333704      42.333704      0.96465086    -2548.2533     -1185.8108     -1823.6389    
     62500   62500          439.58902     -310.27603      10681.192      11020.781      9197.2158      1823.565       3438.17        6703.2614     -8123.012      -70.471478     -2313.0771      7045.9381     -4857.244      -427.77208      75046.304      42.18031       42.18031       42.18031       0.97521337     60.207514     -2283.2671      1292.2315    
     63000   63000          446.9577      -209.36963      11077.406      11304.569      9351.3856      1953.1831      3553.9499      6684.3234     -8034.7676     -79.56924      -2362.3319      7044.1722     -4852.5936     -431.5125       74395.79       42.058081      42.058081      42.058081      0.98374061    -159.89602     -617.5115       149.29861    
     63500   63500          442.21334     -224.18528      10944.098      11188.451      9252.1227      1936.3279      3520.4174      6691.6605     -8103.7418     -77.764733     -2287.431       7040.2268     -4847.0394     -429.54457      74736.63       42.122212      42.122212      42.122212      0.97925421    -553.87039      53.011073     -171.69653    
     64000   64000          444.04655      483.32813      11665.919      11132.925      9290.4777      1842.4477      3457.3596      6542.6347     -8065.7822     -74.673335     -2211.7282      7048.3276     -4853.6905     -424.55829      75614.385      42.286474      42.286474      42.286474      0.96788673    -1345.2453      1543.9477      1251.282     
     64500   64500          441.46445     -463.11841      10626.318      11130.687      9236.4543      1894.2329      3557.8965      6618.6026     -8055.4512     -77.739958     -2331.411       7035.6902     -4853.3542     -429.89414      74675.858      42.110792      42.110792      42.110792      0.98005114     1004.052      -2282.6206     -110.78658    
     65000   65000          440.49727     -322.52227      10738.907      11087.761      9216.2185      1871.5421      3517.6595      6697.1743     -8107.7675     -79.152223     -2349.487       7043.4779     -4850.3628     -432.84667      74166.479      42.014824      42.014824      42.014824      0.98678218    -853.24064     -1967.9652      1853.639     
     65500   65500          440.97213      2247.3684      13477.585      11042.893      9226.1537      1816.7389      3442.8859      6655.7952     -8101.8369     -75.652624     -2304.8325      7051.5513     -4851.1716     -432.16324      74283.767      42.03696       42.03696       42.03696       0.98522413     2445.1791      2175.0165      2121.9096    
     66000   66000          440.3445      -559.77866      10396.733      11008.777      9213.0222      1795.755       3500.5491      6587.6401     -8046.0679     -71.742711     -2374.5204      7052.169      -4852.2722     -428.2045       74970.52       42.166107      42.166107      42.166107      0.97619918    -598.05582     -266.13704     -815.14312    
     66500   66500          431.82535     -629.39773      10310.998      11003.585      9034.7819      1968.8029      3514.6036      6607.8346     -8001.81       -72.442852     -2254.1034      7032.3658     -4857.6449     -425.46937      75452.468      42.256269      42.256269      42.256269      0.96996376     920.10785     -949.60811     -1858.6929    
     67000   67000          442.4902       957.76642      12143.806      11101.096      9257.9152      1843.181       3495.4069      6587.2793     -8049.9582     -75.334132     -2289.7028      7024.6699     -4849.1801     -430.04502      74649.658      42.105866      42.105866      42.105866      0.98039511    -469.74866      76.279931      3266.768     
     67500   67500          443.36611      361.40754      11598.819      11204.092      9276.2412      1927.8511      3491.0764      6603.4262     -8000.8825     -75.522753     -2263.7486      7033.8455     -4860.3431     -428.66553      74889.888      42.150985      42.150985      42.150985      0.97725022    -2.2280861      1444.6683     -358.21763    
     68000   68000          442.07262     -251.3159       10952.878      11229.712      9249.1784      1980.5338      3500.9222      6789.9257     -8054.3063     -78.657527     -2354.8228      7033.484      -4856.0116     -425.02853      75530.727      42.270873      42.270873      42.270873      0.96895876     682.7209      -942.59383     -494.07478    
     68500   68500          437.14954     -101.98168      10945.949      11058.119      9146.1763      1911.9424      3496.6909      6601.4979     -8025.1756     -70.491667     -2250.4251      7016.0406     -4856.1948     -425.66118      75418.466      42.249921      42.249921      42.249921      0.97040106    -345.53497     -1138.1214      1177.7113    
     69000   69000          437.21786     -85.806363      10926.776      11020.481      9147.6058      1872.8751      3510.1497      6619.047      -8059.4679     -80.895244     -2279.2844      7023.1501     -4859.824      -428.72192      74880.039      42.149137      42.149137      42.149137      0.97737877    -216.95841      57.686252     -98.146931    
     69500   69500          440.10127      590.02039      11682.636      11038.758      9207.9333      1830.8245      3495.8391      6568.2734     -8031.7984     -73.727631     -2302.9295      7037.1        -4861.9324     -429.02329      74827.439      42.139265      42.139265      42.139265      0.97806581    -11.487069      612.21855      1169.3297    
     70000   70000          444.7328      -144.19998      11096.234      11256.165      9304.8356      1951.3298      3508.1347      6683.1684     -8104.8998     -79.502735     -2227.7371      7026.092      -4853.9256     -422.13294      76048.825      42.367305      42.367305      42.367305      0.96235754    -1136.2164     -267.75405      971.37054    
     70500   70500          436.32923      692.80521      11855.844      11093.956      9129.0136      1964.9422      3421.5444      6710.1826     -7955.7909     -79.54429      -2294.7202      7028.5695     -4865.2989     -425.7331       75405.727      42.247542      42.247542      42.247542      0.970565       601.4283       1195.249       281.73833    
     71000   71000          437.58763      1108.943       12154.222      10939.63       9155.3422      1784.2874      3469.783       6519.8556     -8013.6847     -72.90988      -2313.7116      7047.1905     -4852.2355     -427.46078      75100.957      42.190547      42.190547      42.190547      0.97450369     722.2953       2652.4609     -47.927197    
     71500   71500          438.4122       895.5459       12062.364      11080.524      9172.5941      1907.9294      3466.2072      6589.3444     -8017.9235     -72.787794     -2227.9115      7028.8117     -4857.8111     -427.03592      75175.675      42.204534      42.204534      42.204534      0.97353511    -2621.6215      2866.6305      2441.6286    
     72000   72000          440.38922     -648.0418       10596.924      11305.882      9213.9579      2091.9245      3527.9826      6723.2948     -7987.5533     -79.04233      -2269.103       7036.0096     -4859.6638     -427.95654      75013.957      42.174249      42.174249      42.174249      0.9756339      495.20198     -2416.5007     -22.826662    
     72500   72500          444.35403     -894.88184      10306.979      11285.862      9296.9109      1988.9513      3539.9829      6723.3814     -8085.8596     -73.696377     -2322.9101      7056.274      -4848.2209     -428.00844      75004.861      42.172544      42.172544      42.172544      0.97575222    -235.66945     -1089.937      -1359.0391    
     73000   73000          431.14461      1214.0172      12019.753      10694.057      9020.5393      1673.5176      3444.8238      6427.6058     -8067.9707     -75.434238     -2255.0641      7049.5596     -4850.0027     -428.74427      74876.135      42.148405      42.148405      42.148405      0.97742972     1787.6677      2230.0924     -375.70868    
     73500   73500          443.18418     -556.94025      10637.606      11241.887      9272.4348      1969.4524      3449.6823      6749.313      -7998.6214     -79.332112     -2336.759       7033.4977     -4848.3282     -431.50664      74396.801      42.058272      42.058272      42.058272      0.98372724    -2234.0969      1503.7114     -940.43532    
     74000   74000          449.8705       263.66233      11542.658      11253.303      9412.3281      1840.975       3414.8283      6577.3178     -8021.3564     -72.024858     -2261.9876      7048.7948     -4844.597      -426.61415      75249.997      42.218438      42.218438      42.218438      0.97257359     287.96898     -940.36489      1443.3829    
     74500   74500          430.30594     -1823.5623      8812.4061      10802.456      9002.9924      1799.4632      3469.5234      6594.1901     -8012.9407     -77.691891     -2364.1485      7041.2683     -4850.7376     -429.01684      74828.563      42.139476      42.139476      42.139476      0.97805112    -2959.1942     -1958.9403     -552.55242    
     75000   75000          444.43312      875.58744      12156.668      11197.453      9298.5655      1898.8875      3484.9105      6595.3745     -8066.8204     -76.280711     -2232.3036      7048.7402     -4854.7329     -427.36715      75117.41       42.193628      42.193628      42.193628      0.97429025     310.49267      3299.5983     -983.32868    
     75500   75500          437.08936     -162.0492       11003.22       11180.617      9144.9172      2035.6998      3490.4939      6771.7921     -8030.0254     -77.358851     -2317.3381      7049.4529     -4851.3167     -427.67886      75062.663      42.183375      42.183375      42.183375      0.97500085    -1291.3581     -124.40001      929.61045    
     76000   76000          437.08751     -341.61255      10511.534      10880.993      9144.8786      1736.1144      3344.9605      6663.1841     -7978.7021     -73.612214     -2419.2052      7052.4741     -4852.9849     -432.89744      74157.781      42.013182      42.013182      42.013182      0.98689791     979.02774     -1945.7137     -58.151693    
     76500   76500          436.3198      -112.37397      10659.371      10782.185      9128.8163      1653.3684      3460.2321      6408.0723     -7983.3417     -68.259573     -2352.1079      7043.3863     -4854.613      -428.38744      74938.504      42.160104      42.160104      42.160104      0.97661624     1705.5004      13.845092     -2056.4673    
     77000   77000          439.54591      777.59983      11873.966      11021.706      9196.3139      1825.3919      3423.8209      6524.1635     -8006.6398     -76.204245     -2235.8794      7048.1578     -4852.0269     -427.17059      75151.975      42.200099      42.200099      42.200099      0.97384213     1061.1821      146.45825      1125.1592    
     77500   77500          437.59238     -865.42796      10163.685      11115.505      9155.4416      1960.0637      3541.872       6614.0801     -7961.5349     -73.251817     -2343.2385      7036.6413     -4854.5045     -425.69018      75413.33       42.248962      42.248962      42.248962      0.97046716    -186.41291     -1662.8927     -746.97825    
     78000   78000          453.144        633.90038      12280.104      11581.667      9480.8172      2100.8494      3557.018       6668.2166     -8048.6435     -69.935635     -2215.9704      7059.9336     -4849.7692     -424.92421      75549.269      42.274332      42.274332      42.274332      0.96872095     405.94759      2027.3497     -531.59612    
     78500   78500          436.17878      1372.9545      12537.884      11026.634      9125.8658      1900.7682      3394.8683      6689.6342     -8051.2395     -74.489815     -2232.0038      7030.3672     -4856.3683     -425.34109      75475.224      42.260517      42.260517      42.260517      0.96967132     667.00067      1941.0118      1510.851     
     79000   79000          430.17996     -563.08726      10404.997      11022.765      9000.3567      2022.4087      3553.6116      6728.3912     -8051.1686     -75.693524     -2328.2662      7046.3008     -4850.7664     -426.74403      75227.096      42.214155      42.214155      42.214155      0.97286967    -882.47055      968.56886     -1775.3601    
     79500   79500          442.12295     -852.51715      10236.598      11166.147      9250.2315      1915.9158      3558.1795      6593.2105     -8050.3793     -72.045156     -2331.8532      7066.3772     -4847.5737     -429.38662      74764.121      42.127376      42.127376      42.127376      0.97889413     1031.0867     -1494.5212     -2094.117     
     80000   80000          434.84798      541.97211      11806.51       11207.371      9098.0224      2109.3482      3530.7682      6771.285      -8055.9774     -77.267256     -2260.3318      7048.8215     -4847.95       -423.51301      75801.01       42.321235      42.321235      42.321235      0.96550375    -914.38935      2044.7899      495.51572    
     80500   80500          442.05828      1082.6866      12367.126      11179.374      9248.8784      1930.4959      3541.6122      6572.6925     -8041.1823     -75.143303     -2270.3364      7051.2121     -4848.3589     -426.77079      75222.378      42.213272      42.213272      42.213272      0.97293068     1034.3517      1888.3162      325.39196    
     81000   81000          441.19209      1337.4735      12476.35       11009.738      9230.7558      1778.9827      3389.6574      6525.0736     -8039.8713     -67.718328     -2244.7515      7060.0081     -4843.4154     -426.96052      75188.951      42.207019      42.207019      42.207019      0.97336323     364.25004      2437.3305      1210.84      
     81500   81500          444.50996      998.36231      12378.692      11279.661      9300.1733      1979.4882      3461.7076      6604.1562     -8013.5242     -76.199184     -2198.6219      7050.1037     -4848.1341     -425.30081      75482.372      42.261851      42.261851      42.261851      0.9695795      590.94357     -566.93334      2971.0767    
     82000   82000          441.05748      1344.4964      12547.877      11083.813      9227.9395      1855.8732      3459.0048      6631.7073     -8085.9874     -80.916058     -2284.6455      7063.9583     -4847.2482     -429.94925      74666.286      42.108992      42.108992      42.108992      0.98017678     775.86275      220.41287      3037.2135    
     82500   82500          440.43032     -738.40335      10261.996      11065.847      9214.8178      1851.0296      3515.6086      6554.0058     -8006.8534     -75.887094     -2328.1061      7046.3707     -4854.109      -430.06646      74645.937      42.105167      42.105167      42.105167      0.98044399    -987.23687     -890.14097     -337.8322     
     83000   83000          438.91495     -1223.3616      9852.7417      11195.3        9183.1128      2012.1872      3469.6623      6833.3997     -8057.099      -75.234108     -2352.498       7043.1844     -4849.2282     -426.61816      75249.291      42.218306      42.218306      42.218306      0.97258272    -1643.1622     -1461.2462     -565.67649    
     83500   83500          435.29991     -894.55032      9874.6604      10848.536      9107.4778      1741.0584      3455.4069      6552.6841     -8004.935      -74.332531     -2360.4947      7029.3391     -4856.6095     -430.04986      74648.818      42.105708      42.105708      42.105708      0.98040615     397.26357     -1165.0158     -1915.8988    
     84000   84000          437.64957     -1318.9389      9645.6161      11091.27       9156.6381      1934.6318      3481.3642      6652.0616     -8071.3063     -80.420798     -2255.5599      7057.7644     -4849.2715     -427.14764      75156.013      42.200854      42.200854      42.200854      0.97378981    -3499.8814     -95.557493     -361.37786    
     84500   84500          442.0225      -192.20205      11012.211      11224.881      9248.13        1976.751       3511.0763      6602.7882     -8070.3286     -71.339033     -2219.7304      7069.5573     -4845.2727     -423.12526      75870.473      42.334158      42.334158      42.334158      0.96461979     211.52054     -33.018315     -755.10836    
     85000   85000          438.07028     -1450.7857      9609.6802      11197.753      9165.4402      2032.3125      3580.6262      6716.4075     -8046.7502     -77.451055     -2351.6161      7057.8522     -4846.756      -427.71116      75056.994      42.182313      42.182313      42.182313      0.97507449    -1664.2222     -1393.0807     -1295.0542    
     85500   85500          431.04389     -1303.1515      9349.4672      10763.066      9018.4321      1744.6344      3436.3307      6590.8134     -8052.3858     -75.618557     -2360.1795      7051.8232     -4846.1491     -431.60478      74379.885      42.055084      42.055084      42.055084      0.98395096    -2808.561      -520.11057     -580.78295    
     86000   86000          437.25881     -1059.4907      9873.46        11034.362      9148.4625      1885.8997      3421.1583      6701.3192     -8077.6469     -74.636214     -2283.5455      7049.2925     -4850.0416     -427.2865       75131.59       42.196283      42.196283      42.196283      0.97410636    -1749.3468     -1513.5924      84.467065    
     86500   86500          443.39557     -1522.6195      9453.0279      11122.498      9276.8576      1845.6399      3489.1499      6661.4144     -8085.8684     -75.835629     -2341.4789      7051.1132     -4852.8548     -427.00259      75181.542      42.205632      42.205632      42.205632      0.97345914    -2070.4299     -723.76986     -1773.6588    
     87000   87000          448.08344      1101.5479      12293.45       11088.87       9374.9388      1713.9309      3413.7395      6585.1364     -8088.8328     -73.639782     -2339.4625      7070.5846     -4853.5945     -428.13959      74981.885      42.168238      42.168238      42.168238      0.97605121     2188.9167     -602.20159      1717.9286    
     87500   87500          440.89976     -1685.5903      9312.5815      11149.969      9224.6396      1925.3295      3522.3865      6595.6637     -8005.3361     -74.061789     -2318.6847      7054.9255     -4849.5637     -429.50566      74743.4        42.123484      42.123484      42.123484      0.97916551    -1910.2532     -1842.868      -1303.6498    
     88000   88000          434.08747     -3.1909507      10859.224      10862.715      9082.1108      1780.6038      3469.237       6572.6116     -8183.6947     -78.373755     -2214.9538      7059.8651     -4844.0876     -427.9775       75010.284      42.173561      42.173561      42.173561      0.97568167     934.80696     -363.32635     -581.05346    
     88500   88500          440.67895     -1388.6336      9630.5214      11172.974      9220.0198      1952.9544      3408.0289      6602.049      -7999.9356     -74.091364     -2205.8453      7067.4881     -4844.7394     -421.49597      76163.75       42.388636      42.388636      42.388636      0.96090541    -1281.4994     -1801.8087     -1082.5927    
     89000   89000          439.88892     -895.5645       10310.43       11288.205      9203.4904      2084.7144      3527.816       6588.8993     -7899.9261     -76.676213     -2271.5591      7062.4959     -4846.3355     -428.82058      74862.81       42.145904      42.145904      42.145904      0.97760369    -860.76244     -85.044482     -1740.8866    
     89500   89500          441.46638     -30.414673      11075.767      11108.971      9236.4945      1872.4765      3443.8245      6568.5467     -8001.5513     -75.769823     -2258.5101      7050.6294     -4854.693      -428.85883      74856.133      42.144651      42.144651      42.144651      0.9776909     -2117.0283      1825.1733      200.61101    
     90000   90000          438.46792     -347.34984      10790.866      11177.067      9173.7598      2003.307       3551.8514      6587.0968     -8046.5157     -75.762683     -2215.1771      7052.2125     -4850.3983     -421.08663      76237.789      42.402367      42.402367      42.402367      0.95997223     164.69924     -521.172       -685.57675    
     90500   90500          436.47725     -1175.6207      9860.186       11145.777      9132.1104      2013.6664      3558.7506      6603.8625     -8040.5523     -74.390313     -2249.841       7066.8412     -4851.0044     -428.13637      74982.449      42.168343      42.168343      42.168343      0.97604387    -261.76717     -831.61112     -2433.4839    
     91000   91000          448.20966      964.45233      12547.773      11482.565      9377.5795      2104.9854      3468.2236      6778.4307     -8073.2734     -74.170982     -2213.0874      7068.2381     -4849.3752     -423.90048      75731.722      42.308336      42.308336      42.308336      0.9663871      2140.7775      1062.5549     -309.97539    
     91500   91500          440.52605      769.33523      11929.465      11083.477      9216.8207      1866.6564      3438.2673      6595.0239     -8035.5156     -74.259156     -2259.3162      7056.8531     -4854.3969     -425.76396      75400.261      42.246521      42.246521      42.246521      0.97063537     787.79995     -717.05851      2237.2643    
     92000   92000          440.67835     -490.97488      10594.983      11132.715      9220.0071      1912.7079      3515.6518      6688.7203     -8140.6346     -75.777557     -2260.2092      7045.5383     -4860.5811     -427.47538      75098.391      42.190067      42.190067      42.190067      0.97453699    -1517.3112     -36.955456      81.342058    
     92500   92500          443.6747      -149.74779      11118.685      11283.45       9282.6977      2000.752       3576.3263      6522.2457     -7995.5745     -72.983321     -2221.2217      7048.3747     -4856.4153     -425.51396      75444.561      42.254793      42.254793      42.254793      0.97006542     1195.1145     -139.2714      -1505.0865    
     93000   93000          442.1273      -145.28303      11050.704      11211.559      9250.3226      1961.2359      3476.911       6631.4424     -8082.7175     -74.139884     -2190.6302      7052.4324     -4852.0624     -422.86206      75917.696      42.34294       42.34294       42.34294       0.96401976    -386.92641     -109.21756      60.294891    
     93500   93500          432.66158     -297.17247      10601.502      10928.816      9052.278       1876.538       3486.9615      6544.4791     -8035.4793     -72.38787      -2257.9862      7062.1336     -4851.1828     -425.07094      75523.191      42.269468      42.269468      42.269468      0.96905544    -677.59845     -40.298622     -173.62035    
     94000   94000          443.46153     -996.05601      9956.3736      11046.882      9278.2377      1768.6446      3348.5438      6601.9119     -8020.8118     -77.743524     -2269.5687      7036.9565     -4850.6436     -427.63402      75070.532      42.184849      42.184849      42.184849      0.97489864    -1670.2327     -34.021472     -1283.9139    
     94500   94500          444.63237      1951.7261      13302.771      11177.837      9302.7343      1875.1024      3437.5538      6622.6038     -8024.2118     -78.479669     -2259.4438      7034.2969     -4857.2168     -430.02241      74653.583      42.106604      42.106604      42.106604      0.98034357     1478.6776      1645.5133      2730.9873    
     95000   95000          442.78127     -618.08105      10569.745      11252.235      9264.0051      1988.23        3465.3757      6643.32       -7985.6347     -72.484669     -2262.7161      7051.068      -4850.6983     -424.00092      75713.782      42.304995      42.304995      42.304995      0.96661608    -1077.2808      1014.2167     -1791.179     
     95500   95500          445.53953      633.41495      12002.265      11306.161      9321.7143      1984.447       3581.9847      6519.1091     -8060.8895     -72.270559     -2190.4961      7055.6039     -4848.5947     -426.0217       75354.644      42.238         42.238         42.238         0.97122295     2043.0241     -962.99536      820.21612    
     96000   96000          441.98688      1051.1994      12146.005      10993.162      9247.3847      1745.7775      3337.3458      6574.9088     -8037.7188     -71.470176     -2246.7391      7043.5917     -4854.1408     -426.90628      75198.503      42.208806      42.208806      42.208806      0.97323958     637.98667      2443.3173      72.294302    
     96500   96500          437.90811     -76.475592      10972.91       11057.195      9162.0473      1895.1475      3545.7393      6566.8921     -8056.174      -80.111226     -2262.3541      7040.5216     -4859.3663     -424.80502      75570.467      42.278286      42.278286      42.278286      0.96844922     370.33413     -629.33298      29.572081    
     97000   97000          440.41043      1450.0073      12747.764      11170.364      9214.4018      1955.9619      3538.1245      6670.6461     -8081.659      -75.950248     -2270.3716      7034.6023     -4859.4301     -430.37374      74592.64       42.095143      42.095143      42.095143      0.98114452     1298.6591      2380.3233      671.03945    
     97500   97500          443.49143     -166.02224      11049.663      11232.747      9278.8632      1953.8843      3586.679       6618.7763     -8018.9154     -76.103068     -2313.9231      7014.071      -4856.7005     -424.55424      75615.106      42.286609      42.286609      42.286609      0.9678775     -113.72748      331.76652     -716.10575    
     98000   98000          439.09877     -866.27742      10084.78       11034.779      9186.9586      1847.8208      3460.1056      6649.7984     -8062.0004     -74.424998     -2259.9666      7002.8406     -4868.5318     -426.92457      75195.282      42.208203      42.208203      42.208203      0.97328127    -682.27293     -192.0613      -1724.498     
     98500   98500          438.26685      970.99065      12007.196      10943.705      9169.5531      1774.1515      3498.364       6655.293      -8136.1957     -80.011634     -2311.9098      7006.0856     -4857.474      -427.463        75100.567      42.190474      42.190474      42.190474      0.97450875     1301.6109      161.65298      1449.7081    
     99000   99000          441.71577     -207.12777      10822.129      11050.263      9241.7123      1808.5511      3485.0418      6557.3715     -8058.8677     -77.872585     -2238.262       7003.1938     -4862.0538     -425.07442      75522.572      42.269352      42.269352      42.269352      0.96906339    -761.55767      136.16164      4.0127232    
     99500   99500          439.49988     -1129.7267      9855.445       11089.97       9195.3509      1894.6195      3592.9649      6553.114      -8051.6647     -75.468109     -2282.927       7020.809      -4862.2086     -428.44099      74929.137      42.158347      42.158347      42.158347      0.97673833    -544.54178     -428.83052     -2415.8079    
    100000   100000         437.02102      681.14885      11672.59       10929.616      9143.4875      1786.1282      3518.2155      6600.1704     -8106.5584     -77.284104     -2323.2294      7031.0837     -4856.2694     -429.22559      74792.171      42.132644      42.132644      42.132644      0.97852701    -1.6801318      1296.5014      748.62524    
    100500   100500         434.02586     -400.37749      10406.163      10848.329      9080.8218      1767.5075      3463.7609      6537.8221     -8073.4372     -71.897817     -2273.194       7043.14       -4858.6864     -423.9377       75725.074      42.307098      42.307098      42.307098      0.96647195    -74.459967     -475.93245     -650.74005    
    101000   101000         433.57898     -232.35024      10736.965      10991.942      9071.4719      1920.4697      3480.5927      6610.3536     -8078.9158     -73.234382     -2225.3848      7056.315      -4849.2566     -426.63806      75245.781      42.21765       42.21765       42.21765       0.97262809     61.286491      596.5494      -1354.8866    
    101500   101500         437.71581     -676.84874      10365.689      11107.327      9158.0241      1949.3031      3512.3544      6529.1363     -7985.6388     -75.872422     -2215.2796      7042.624      -4858.0208     -427.28445      75131.949      42.19635       42.19635       42.19635       0.97410171    -2234.4314     -663.33003      867.21523    
    102000   102000         437.83775      1152.9454      12290.518      11016.804      9160.5753      1856.2288      3351.8149      6736.0267     -8135.7656     -76.194934     -2199.9073      7031.8695     -4851.6144     -423.79374      75750.798      42.311888      42.311888      42.311888      0.96614375     882.24556      1819.5367      757.05405    
    102500   102500         442.6955      -145.2061       11051.631      11210.572      9262.2105      1948.3617      3466.1845      6740.4771     -7994.1984     -82.022657     -2346.3284      7020.1124     -4855.8628     -427.72548      75054.48       42.181842      42.181842      42.181842      0.97510715    -637.13922      316.80369     -115.28277    
    103000   103000         440.43986      193.93678      11303.607      11091.4        9215.0173      1876.3829      3437.1452      6695.4679     -8001.9488     -74.265336     -2338.6212      7015.6956     -4857.0905     -427.87563      75028.143      42.176907      42.176907      42.176907      0.97544944    -18.516883      101.41763      498.90959    
[...]
   2229500   2229500        99.704608      574.97685     -4313.4082     -4858.8618      2086.0503     -6944.9121      794.44542      2869.2688     -8988.4382     -23.884801     -3650.1337      6973.5731     -4919.7427     -493.5262       65047.638      40.217078      40.217078      40.217078      1.1251163      1238.0601      1469.6813     -982.81086    
   2230000   2230000        99.783868      66.724727     -4752.4673     -4815.6156      2087.7086     -6903.3242      802.47045      2969.5873     -8991.6959     -25.833632     -3708.452       6968.6428     -4918.0433     -494.70086      64893.183      40.185221      40.185221      40.185221      1.1277943      229.14102     -482.61205      453.64521    
   2230500   2230500        100.33946     -218.84108     -5034.4061     -4826.4655      2099.3329     -6925.7984      807.38998      2917.7959     -9002.8017     -23.810237     -3668.9646      6964.6605     -4920.0683     -492.72787      65153.03       40.238786      40.238786      40.238786      1.1232963     -396.11564     -258.99579     -1.4117998    
   2231000   2231000        99.068767      1043.1473     -3860.1258     -4849.5679      2072.747      -6922.3149      793.30643      2908.2321     -8971.1991     -24.404805     -3687.7405      6977.5065     -4918.0156     -493.59744      65038.25       40.215143      40.215143      40.215143      1.1252787      714.29676      1297.0142      1118.1309    
   2231500   2231500        100.3577      -311.64038     -5118.6344     -4823.2781      2099.7146     -6922.9926      815.03903      2887.9169     -8957.3033     -24.843883     -3696.6663      6972.3471     -4919.4821     -493.99786      64985.532      40.204274      40.204274      40.204274      1.1261916     -448.14081     -19.45038      -467.32996    
   2232000   2232000        101.38589     -144.36103     -4919.9232     -4783.0647      2121.2265     -6904.2912      822.28727      2928.9661     -8992.7284     -25.642824     -3683.4721      6964.8476     -4918.5488     -493.85074      65004.892      40.208266      40.208266      40.208266      1.1258562     -198.26243     -7.4401045     -227.38055    
   2232500   2232500        101.20275     -538.96065     -5284.6385     -4772.7921      2117.395      -6890.1871      812.17962      2941.8376     -8997.2164     -24.24619      -3681.0613      6975.6344     -4917.3149     -492.98656      65118.841      40.231747      40.231747      40.231747      1.1238861     -724.39651      16.03988      -908.52532    
   2233000   2233000        99.978822      3.3824363     -4841.3828     -4844.579       2091.7875     -6936.3665      787.61839      2924.6827     -8978.8942     -23.571729     -3697.8343      6970.9872     -4919.3544     -495.47613      64791.645      40.164251      40.164251      40.164251      1.1295617      585.81715     -109.02429     -466.64555    
   2233500   2233500        98.786161     -340.3395      -5143.6879     -4821.0387      2066.8343     -6887.873       808.67769      2912.9206     -8953.3459     -23.71997      -3680.4164      6968.4704     -4920.4594     -493.85485      65004.35       40.208155      40.208155      40.208155      1.1258656     -95.220255     -279.62826     -646.16997    
   2234000   2234000        98.756064     -316.09399     -5128.817      -4828.8967      2066.2046     -6895.1012      827.03083      2893.0451     -8978.3159     -23.808731     -3661.327       6969.4405     -4921.1661     -493.43279      65059.952      40.219615      40.219615      40.219615      1.1249034     -1121.303       552.55517     -379.53413    
   2234500   2234500        100.35857      141.4363      -4733.3823     -4867.1191      2099.7328     -6966.8519      792.90731      2908.7439     -8991.8624     -23.164625     -3701.7801      6967.3983     -4919.0942     -495.13959      64835.683      40.173348      40.173348      40.173348      1.1287945     -586.36187      1287.3882     -276.71745    
   2235000   2235000        98.774576      263.60835     -4604.9075     -4855.2388      2066.5919     -6921.8307      806.19251      2899.4878     -8978.4327     -23.715548     -3672.0503      6966.8718     -4920.1841     -493.01668      65114.863      40.230927      40.230927      40.230927      1.1239547     -394.692        275.9736       909.54346    
   2235500   2235500        99.462673      485.99394     -4369.7044     -4830.857       2080.9885     -6911.8454      797.43554      2940.1894     -8969.1824     -24.311884     -3706.006       6969.9744     -4919.9446     -493.4053       65063.577      40.220362      40.220362      40.220362      1.1248407      405.56846      549.78409      502.62925    
   2236000   2236000        102.05569      425.75409     -4340.8724     -4743.5625      2135.2402     -6878.8028      806.68722      2955.5442     -8987.8527     -24.738781     -3674.1908      6967.5103     -4921.7622     -495.00033      64853.924      40.177115      40.177115      40.177115      1.128477      -323.37264      1647.2176     -46.58268     
   2236500   2236500        100.0879       24.068564     -4791.0281     -4813.8495      2094.0697     -6907.9192      801.84409      2918.1222     -8965.7806     -24.577849     -3683.2431      6965.1234     -4919.4073     -493.77109      65015.377      40.210428      40.210428      40.210428      1.1256746     -615.04843      1037.9834     -350.72925    
   2237000   2237000        99.840006      381.16175     -4474.0998     -4835.9187      2088.8831     -6924.8019      807.19318      2917.7293     -8977.466      -22.997905     -3691.5024      6961.7149     -4919.4729     -493.21429      65088.774      40.225554      40.225554      40.225554      1.1244053     -406.54007      1464.0002      86.025168    
   2237500   2237500        99.275292     -58.621184     -4906.8005     -4851.2164      2077.068      -6928.2844      793.49835      2921.0754     -8979.2332     -24.447906     -3685.9604      6966.3025     -4919.5192     -493.76629      65016.009      40.210558      40.210558      40.210558      1.1256637     -996.7908       241.32831      579.59894    
   2238000   2238000        99.499988     -449.54837     -5233.2752     -4806.6721      2081.7692     -6888.4413      794.18359      3006.0377     -8993.3184     -26.082605     -3708.4938      6960.6011     -4921.369      -493.36695      65068.635      40.221405      40.221405      40.221405      1.1247533     -714.27581     -94.944629     -539.42466    
   2238500   2238500        100.55312     -828.98149     -5583.9308     -4797.4911      2103.8031     -6901.2943      804.32232      2922.502      -8945.9363     -24.676993     -3702.7123      6966.2198     -4921.0129     -493.51127      65049.606      40.217483      40.217483      40.217483      1.1250823     -1710.9852      5.8729115     -781.83214    
   2239000   2239000        99.237293      121.07018     -4724.9274     -4839.5982      2076.273      -6915.8712      796.82599      2925.46       -8981.5224     -24.426487     -3677.6265      6965.8242     -4920.406      -494.31281      64944.127      40.195734      40.195734      40.195734      1.1269096     -657.86038      1294.2258     -273.15491    
   2239500   2239500        99.307357      131.9512      -4705.8875     -4830.9455      2077.7389     -6908.6844      795.3201       2929.1635     -8978.9282     -25.607952     -3679.0256      6968.7999     -4918.4062     -493.99162      64986.353      40.204444      40.204444      40.204444      1.1261774     -143.85768      827.66958     -287.9583     
   2240000   2240000        99.590234     -114.7213      -4893.3391     -4784.5395      2083.6573     -6868.1969      818.14554      2931.8841     -8945.1212     -23.947463     -3699.2076      6969.8821     -4919.8324     -493.66745      65029.026      40.213242      40.213242      40.213242      1.1254384     -279.25519     -334.46911      269.56039    
   2240500   2240500        100.22033     -836.33713     -5578.2286     -4786.1798      2096.8404     -6883.0202      839.57978      2909.0941     -8977.7094     -24.15799      -3671.8968      6963.1589     -4921.0888     -494.36429      64937.364      40.194338      40.194338      40.194338      1.127027      -1215.9563     -868.35899     -424.6961     
   2241000   2241000        99.474101     -80.131296     -4940.7234     -4865.0817      2081.2276     -6946.3092      802.31408      2929.7989     -9001.0443     -24.535241     -3693.16        6962.0428     -4921.7253     -495.97368      64726.648      40.150816      40.150816      40.150816      1.130696      -790.77943      341.12244      209.2631     
   2241500   2241500        99.004467     -512.85371     -5318.962      -4832.316       2071.4017     -6903.7177      809.08194      2930.044      -9010.967      -23.884538     -3658.605       6969.2673     -4918.6544     -493.39866      65064.453      40.220543      40.220543      40.220543      1.1248256     -1262.9529     -358.78263      83.174396    
   2242000   2242000        100.19392     -365.36257     -5173.9196     -4827.2065      2096.2878     -6923.4943      800.6816       2902.1514     -8962.1838     -23.574837     -3695.1587      6973.8761     -4919.286      -493.36853      65068.426      40.221361      40.221361      40.221361      1.1247569     -1686.0726     -436.69583      1026.6808    
   2242500   2242500        100.07038     -906.30794     -5688.1645     -4829.4378      2093.7031     -6923.1409      809.85154      2897.676      -8972.1473     -24.29078      -3679.8062      6966.2189     -4920.643      -494.12684      64968.568      40.200776      40.200776      40.200776      1.1264856     -1368.3801     -944.66372     -405.88001    
   2243000   2243000        100.8081      -110.61258     -4894.4854     -4789.1778      2109.138      -6898.3158      804.94794      2907.582      -8973.7        -24.382849     -3671.4671      6977.1812     -4918.4769     -491.77023      65279.905      40.264889      40.264889      40.264889      1.1211131     -734.98108      463.47288     -60.329534    
   2243500   2243500        101.48851      194.03792     -4619.4233     -4803.1621      2123.3736     -6926.5357      799.51652      2897.9007     -8966.1277     -23.524473     -3685.3164      6971.5036     -4920.488      -494.42838      64928.946      40.192602      40.192602      40.192602      1.1271731     -781.40683      1232.0962      131.42437    
   2244000   2244000        99.491416      296.82617     -4571.8102     -4853.068       2081.5898     -6934.6579      793.72996      2902.6        -8972.8892     -23.746895     -3685.3694      6969.5311     -4918.5135     -494.10043      64972.042      40.201492      40.201492      40.201492      1.1264254     -56.313124      318.44528      628.34634    
   2244500   2244500        98.614978      191.96349     -4657.325      -4839.0755      2063.2527     -6902.3282      816.42495      2910.1551     -8976.4752     -22.928859     -3678.6194      6968.5876     -4919.4723     -494.4937       64920.369      40.190832      40.190832      40.190832      1.127322       821.92319      675.82209     -921.85481    
   2245000   2245000        100.1988       523.88838     -4313.2942     -4810.052       2096.39       -6906.4419      815.60759      2919.7177     -8980.0664     -23.943095     -3686.6587      6968.9264     -4920.0254     -493.75527      65017.461      40.210857      40.210857      40.210857      1.1256385     -876.25222      1103.213       1344.7043    
   2245500   2245500        101.08889     -453.71762     -5201.8905     -4771.5505      2115.0126     -6886.5632      819.85871      2942.7878     -8971.3319     -26.041908     -3697.8285      6966.5212     -4920.5286     -493.61863      65035.458      40.214567      40.214567      40.214567      1.125327      -716.35762      50.229893     -695.02514    
   2246000   2246000        101.85777     -709.8877      -5443.4325     -4768.7074      2131.0995     -6899.8069      810.86014      2897.9031     -8956.5176     -23.683861     -3680.3318      6971          -4919.0369     -492.58419      65172.034      40.242698      40.242698      40.242698      1.1229688     -1002.5036      322.95423     -1450.1138    
   2246500   2246500        99.943859     -80.882855     -4924.2787     -4847.6887      2091.056      -6938.7447      783.64936      2931.7495     -8982.6145     -24.297514     -3689.5318      6964.596      -4922.2959     -494.42731      64929.087      40.192631      40.192631      40.192631      1.1271706     -629.58872     -13.688153      400.6283     
   2247000   2247000        99.841877      282.25123     -4557.1146     -4824.4977      2088.9223     -6913.42        812.82854      2899.493      -8981.3129     -24.505106     -3671.0666      6970.8585     -4919.7154     -494.21905      64956.447      40.198275      40.198275      40.198275      1.1266958      286.73962      70.759608      489.25447    
   2247500   2247500        101.23829     -38.33815      -4819.61       -4783.3527      2118.1384     -6901.4911      799.75291      2959.7671     -8991.3512     -24.933646     -3693.1755      6968.5127     -4920.0635     -495.05497      64846.766      40.175637      40.175637      40.175637      1.1286015     -307.46072      220.30058     -27.854313    
   2248000   2248000        101.57319     -783.04213     -5549.1365     -4806.5051      2125.1453     -6931.6504      805.60088      2889.603      -8962.9392     -24.853919     -3681.2629      6961.7798     -4919.578      -493.66175      65029.777      40.213396      40.213396      40.213396      1.1254254     -545.78113     -1088.6784     -714.66686    
   2248500   2248500        101.43071      228.82997     -4578.2488     -4795.1388      2122.1643     -6917.3031      799.58871      2907.0096     -8977.9705     -23.853552     -3671.1235      6968.2527     -4919.2065     -493.95923      64990.614      40.205322      40.205322      40.205322      1.1261035     -87.712561      1205.9254     -431.72292    
   2249000   2249000        98.982228      568.49712     -4285.3296     -4824.0664      2070.9364     -6895.0029      818.14244      2874.9968     -8932.5062     -24.691118     -3683.1896      6970.6533     -4918.4085     -494.04807      64978.928      40.202912      40.202912      40.202912      1.1263061      684.73098      619.89123      400.86916    
   2249500   2249500        100.40171      1090.3231     -3778.3698     -4810.4243      2100.6353     -6911.0596      805.80919      2905.0139     -8973.5078     -25.052375     -3675.4705      6971.6851     -4919.5371     -494.61829      64904.016      40.187457      40.187457      40.187457      1.127606       1056.2767      1134.9387      1079.7538    
   2250000   2250000        99.769067      284.63298     -4557.6025     -4826.9994      2087.3989     -6914.3984      808.46142      2944.6487     -8996.3571     -23.459604     -3697.162       6968.3163     -4918.846      -494.66389      64898.034      40.186222      40.186222      40.186222      1.12771       -24.572686      791.65028      86.821352    
Loop time of 784.052 on 4 procs for 125000 steps with 7020 atoms

Performance: 13.775 ns/day, 1.742 hours/ns, 159.428 timesteps/s, 1.119 Matom-step/s
94.5% CPU use with 4 MPI tasks x 1 OpenMP threads

MPI task timing breakdown:
Section |  min time  |  avg time  |  max time  |%varavg| %total
---------------------------------------------------------------
Pair    | 50.687     | 67.269     | 81.371     | 133.7 |  8.58
Bond    | 180.6      | 234.95     | 282.97     | 237.0 | 29.97
Kspace  | 201.6      | 252.96     | 309.06     | 239.4 | 32.26
Neigh   | 39.397     | 52.773     | 60.82      | 110.6 |  6.73
Comm    | 30.242     | 31.054     | 31.964     |  11.6 |  3.96
Output  | 0.016587   | 0.020198   | 0.030517   |   4.2 |  0.00
Modify  | 99.605     | 124.7      | 141.69     | 138.4 | 15.90
Other   |            | 20.33      |            |       |  2.59

Nlocal:           1755 ave        1770 max        1731 min
Histogram: 1 0 0 0 0 1 0 0 0 2
Nghost:          10939 ave       10966 max       10919 min
Histogram: 1 0 0 2 0 0 0 0 0 1
Neighs:              0 ave           0 max           0 min
Histogram: 4 0 0 0 0 0 0 0 0 0
FullNghs:  1.20421e+06 ave 1.22198e+06 max 1.18271e+06 min
Histogram: 1 0 0 1 0 0 0 0 1 1

Total # of neighbors = 4816826
Ave neighs/atom = 686.15755
Ave special neighs/atom = 5.7008547
Neighbor list builds = 1579
Dangerous builds = 0
  unfix npt_tg
  dump per_t_snap all atom 1 per_t_structs.dump
  dump_modify per_t_snap append yes
  run 0
WARNING: No fixes with time integration, atoms won't move
For more information see https://docs.lammps.org/err0028 (src/verlet.cpp:60)
PPPM initialization ...
  using 12-bit tables for long-range coulomb
  G vector (1/distance) = 0.30477959
  grid = 30 30 30
  stencil order = 5
  estimated absolute RMS force accuracy = 0.00028666897
  estimated relative force accuracy = 8.632951e-07
  using double precision KISS FFT
  3d grid and FFT values/proc = 17908 6750
Generated 10 of 10 mixed pair_coeff terms from sixthpower/sixthpower mixing rule
Per MPI rank memory allocation (min/avg/max) = 20.68 | 20.69 | 20.7 Mbytes
   Step          Time           Temp          Press         Enthalpy        TotEng         KinEng         PotEng         E_bond        E_angle        E_dihed        E_impro         E_vdwl         E_coul         E_long         E_tail         Volume           Lx             Ly             Lz          Density          Pxx            Pyy            Pzz      
   2250000   2250000        99.769067      284.63391     -4557.6017     -4826.9995      2087.3989     -6914.3984      808.46142      2944.6487     -8996.3571     -23.459604     -3697.162       6969.5747     -4920.1045     -494.66389      64898.034      40.186222      40.186222      40.186222      1.12771       -24.571771      791.65125      86.822265    
Loop time of 2.60225e-06 on 4 procs for 0 steps with 7020 atoms

124.9% CPU use with 4 MPI tasks x 1 OpenMP threads

MPI task timing breakdown:
Section |  min time  |  avg time  |  max time  |%varavg| %total
---------------------------------------------------------------
Pair    | 0          | 0          | 0          |   0.0 |  0.00
Bond    | 0          | 0          | 0          |   0.0 |  0.00
Kspace  | 0          | 0          | 0          |   0.0 |  0.00
Neigh   | 0          | 0          | 0          |   0.0 |  0.00
Comm    | 0          | 0          | 0          |   0.0 |  0.00
Output  | 0          | 0          | 0          |   0.0 |  0.00
Modify  | 0          | 0          | 0          |   0.0 |  0.00
Other   |            | 2.602e-06  |            |       |100.00

Nlocal:           1755 ave        1774 max        1732 min
Histogram: 1 0 0 1 0 0 0 0 1 1
Nghost:        10941.2 ave       10956 max       10932 min
Histogram: 2 0 0 0 1 0 0 0 0 1
Neighs:              0 ave           0 max           0 min
Histogram: 4 0 0 0 0 0 0 0 0 0
FullNghs:  1.20669e+06 ave 1.22663e+06 max 1.18591e+06 min
Histogram: 1 0 1 0 0 0 0 0 1 1

Total # of neighbors = 4826756
Ave neighs/atom = 687.57208
Ave special neighs/atom = 5.7008547
Neighbor list builds = 0
Dangerous builds = 0
  undump per_t_snap
  print "STAGE COMPLETE: Tg step T=${temps}K P=1.0atm steps=125000"
STAGE COMPLETE: Tg step T=100K P=1.0atm steps=125000
  next temps
  jump SELF TEMP_LOOP

write_data tg_step_out.data
System init for write_data ...
PPPM initialization ...
  using 12-bit tables for long-range coulomb
  G vector (1/distance) = 0.30477959
  grid = 30 30 30
  stencil order = 5
  estimated absolute RMS force accuracy = 0.00028666897
  estimated relative force accuracy = 8.632951e-07
  using double precision KISS FFT
  3d grid and FFT values/proc = 17908 6750
Generated 10 of 10 mixed pair_coeff terms from sixthpower/sixthpower mixing rule
Total wall time: 3:44:09
