units real
atom_style full
boundary p p p

# --- Force Field (injected via PAIR_STYLE_BLOCK) ---
pair_style lj/class2/coul/cut 9.5 9.5
dielectric 1.000000
bond_style class2
angle_style class2
dihedral_style class2
improper_style class2
special_bonds lj/coul 0 0 1
pair_modify mix sixthpower tail yes
neighbor 2.0 bin
neigh_modify delay 0 every 1 check yes
neigh_modify one 4000
# KOKKOS: package loaded via -pk kokkos on the command line

read_data /home/alexzhao/PolyJarvis/data/PS2/lammps/equil/nvt_softheat/nvt_softheat_out.data
Reading data file ...
  orthogonal box = (0 0 0) to (50.734685 50.734685 50.734685)
  1 by 1 by 1 MPI processor grid
WARNING: Pair style lj/class2/coul/long/kk in data file differs from currently defined pair style lj/class2/coul/cut/kk (src/read_data.cpp:811)
  reading atoms ...
  6420 atoms
  reading velocities ...
  6420 velocities
  scanning bonds ...
  4 = max bonds/atom
  scanning angles ...
  14 = max angles/atom
  scanning dihedrals ...
  34 = max dihedrals/atom
  scanning impropers ...
  11 = max impropers/atom
  orthogonal box = (0 0 0) to (50.734685 50.734685 50.734685)
  1 by 1 by 1 MPI processor grid
  reading bonds ...
  6810 bonds
  reading angles ...
  12000 angles
  reading dihedrals ...
  19110 dihedrals
  reading impropers ...
  5600 impropers
Finding 1-2 1-3 1-4 neighbors ...
  special bond factors lj:    0        0        1       
  special bond factors coul:  0        0        1       
     4 = max # of 1-2 neighbors
     8 = max # of 1-3 neighbors
    12 = max # of special neighbors
  special bonds CPU = 0.007 seconds
  read_data CPU = 0.409 seconds
include /home/alexzhao/PolyJarvis/data/PS2/lammps/equil/emc_build.params
# LAMMPS parameters created by EMC v9.4.4, build Jul 31 2025 20:33:44

# Variables

variable	seed		index	472916
variable	ntotal		index	6420
variable	fshape		index	1
variable	output		index	emc_build
variable	field		index	pcff/pcff
variable	location1	index	~/emc/field/
variable	nav		index	0.6022141179
variable	temperature	index	300
variable	radius		index	5
variable	nrelax		index	100
variable	weight_nonbond	index	0.0001
variable	weight_bond	index	0.0001
variable	weight_focus	index	1
variable	cutoff		index	9.5
variable	charge_cutoff	index	9.5
variable	kappa		index	4
variable	density1	index	0.53
variable	lprevious	index	0
variable	lphase		index	50.7346850343
variable	f_poly		index	10
variable	chem_repeat	index	*CC(c1ccccc1)*
variable	chem_cap	index	*[H]
variable	lg_repeat	index	16
variable	lg_cap		index	1
variable	norm_poly	index	100
variable	l_poly		index	642
variable	mg_repeat	index	92.14181
variable	mg_cap		index	1.00797
variable	m_poly		index	3687.68834
variable	n_poly		index	10
variable	mtotal		index	41681.3434
variable	nphase1		index	6420
variable	mphase1		index	41681.3434
variable	vphase1		index	130591.498627
variable	lbox		index	50.7346850343
variable	lphase1		index	50.7346850343
variable	lxx		index	50.7346850343
variable	lyy		index	50.7346850343
variable	lzz		index	50.7346850343
variable	lzy		index	0
variable	lzx		index	0
variable	lyx		index	0
variable	vtotal		index	130591.498627
variable	nl_poly		index	10

# Types

variable	type_c		index	1
variable	type_c1		index	2
variable	type_cp		index	3
variable	type_hc		index	4

variable	type_bond_c_c	index	1
variable	type_bond_c_c1	index	2
variable	type_bond_c_cp	index	3
variable	type_bond_c_hc	index	4
variable	type_bond_c1_cp	index	5
variable	type_bond_c1_hc	index	6
variable	type_bond_cp_cp	index	7
variable	type_bond_cp_hc	index	8

variable	type_angle_c_c_c1 index	1
variable	type_angle_c_c_cp index	2
variable	type_angle_c_c_hc index	3
variable	type_angle_c_c1_c index	4
variable	type_angle_c_c1_cp index	5
variable	type_angle_c_c1_hc index	6
variable	type_angle_c_cp_cp index	7
variable	type_angle_c1_c_c1 index	8
variable	type_angle_c1_c_hc index	9
variable	type_angle_c1_cp_cp index	10
variable	type_angle_cp_c_hc index	11
variable	type_angle_cp_c1_hc index	12
variable	type_angle_cp_cp_cp index	13
variable	type_angle_cp_cp_hc index	14
variable	type_angle_hc_c_hc index	15

# Clusters

variable	n0_poly		index	1
variable	n1_poly		index	10
variable	nl_poly		index	10

# Flags

variable	flag_charged	index	1

# Masses

mass		1    12.01115  # c
mass		2    12.01115  # c1
mass		3    12.01115  # cp
mass		4     1.00797  # hc

# Potentials

pair_modify	mix sixthpower tail yes
special_bonds	lj/coul 0 0 1

# Pair Coeffs

pair_coeff	 1  1    0.05400    4.01000  # c,c
pair_coeff	 2  2    0.05400    4.01000  # c1,c1
pair_coeff	 3  3    0.06400    4.01000  # cp,cp
pair_coeff	 4  4    0.02000    2.99500  # hc,hc

# Bond Coeffs

bond_coeff	1    1.53000  299.67000 -501.77000  679.81000  # c,c
bond_coeff	2    1.53000  299.67000 -501.77000  679.81000  # c,c1
bond_coeff	3    1.50100  321.90210 -521.82080  572.16280  # c,cp
bond_coeff	4    1.10100  345.00000 -691.89000  844.60000  # c,hc
bond_coeff	5    1.50100  321.90210 -521.82080  572.16280  # c1,cp
bond_coeff	6    1.10100  345.00000 -691.89000  844.60000  # c1,hc
bond_coeff	7    1.41700  470.83610 -627.61790 1327.63450  # cp,cp
bond_coeff	8    1.09820  372.82510 -803.45260  894.31730  # cp,hc

# Angle Coeffs

angle_coeff	 1  112.67000   39.51600   -7.44300   -9.55830  # c,c,c1
angle_coeff	 2  108.40000   43.95940   -8.39240   -9.33790  # c,c,cp
angle_coeff	 3  110.77000   41.45300  -10.60400    5.12900  # c,c,hc
angle_coeff	 4  112.67000   39.51600   -7.44300   -9.55830  # c,c1,c
angle_coeff	 5  108.40000   43.95940   -8.39240   -9.33790  # c,c1,cp
angle_coeff	 6  110.77000   41.45300  -10.60400    5.12900  # c,c1,hc
angle_coeff	 7  120.05000   44.71480  -22.73520    0.00000  # c,cp,cp
angle_coeff	 8  112.67000   39.51600   -7.44300   -9.55830  # c1,c,c1
angle_coeff	 9  110.77000   41.45300  -10.60400    5.12900  # c1,c,hc
angle_coeff	10  120.05000   44.71480  -22.73520    0.00000  # c1,cp,cp
angle_coeff	11  111.00000   44.32340   -9.44540    0.00000  # cp,c,hc
angle_coeff	12  111.00000   44.32340   -9.44540    0.00000  # cp,c1,hc
angle_coeff	13  118.90000   61.02260  -34.99310    0.00000  # cp,cp,cp
angle_coeff	14  117.94000   35.15580  -12.46820    0.00000  # cp,cp,hc
angle_coeff	15  107.66000   39.64100  -12.92100   -2.43180  # hc,c,hc

# BondBond Coeffs

angle_coeff	 1 bb    0.00000    1.53000    1.53000  # c,c,c1
angle_coeff	 2 bb    0.00000    1.53000    1.50100  # c,c,cp
angle_coeff	 3 bb    3.38720    1.53000    1.10100  # c,c,hc
angle_coeff	 4 bb    0.00000    1.53000    1.53000  # c,c1,c
angle_coeff	 5 bb    0.00000    1.53000    1.50100  # c,c1,cp
angle_coeff	 6 bb    3.38720    1.53000    1.10100  # c,c1,hc
angle_coeff	 7 bb   12.06760    1.50100    1.41700  # c,cp,cp
angle_coeff	 8 bb    0.00000    1.53000    1.53000  # c1,c,c1
angle_coeff	 9 bb    3.38720    1.53000    1.10100  # c1,c,hc
angle_coeff	10 bb   12.06760    1.50100    1.41700  # c1,cp,cp
angle_coeff	11 bb    2.91680    1.50100    1.10100  # cp,c,hc
angle_coeff	12 bb    2.91680    1.50100    1.10100  # cp,c1,hc
angle_coeff	13 bb   68.28560    1.41700    1.41700  # cp,cp,cp
angle_coeff	14 bb    1.07950    1.41700    1.09820  # cp,cp,hc
angle_coeff	15 bb    5.33160    1.10100    1.10100  # hc,c,hc

# BondAngle Coeffs

angle_coeff	 1 ba    8.01600    8.01600    1.53000    1.53000  # c,c,c1
angle_coeff	 2 ba    0.00000    0.00000    1.53000    1.50100  # c,c,cp
angle_coeff	 3 ba   20.75400   11.42100    1.53000    1.10100  # c,c,hc
angle_coeff	 4 ba    8.01600    8.01600    1.53000    1.53000  # c,c1,c
angle_coeff	 5 ba    0.00000    0.00000    1.53000    1.50100  # c,c1,cp
angle_coeff	 6 ba   20.75400   11.42100    1.53000    1.10100  # c,c1,hc
angle_coeff	 7 ba   47.05790   31.07710    1.50100    1.41700  # c,cp,cp
angle_coeff	 8 ba    8.01600    8.01600    1.53000    1.53000  # c1,c,c1
angle_coeff	 9 ba   20.75400   11.42100    1.53000    1.10100  # c1,c,hc
angle_coeff	10 ba   47.05790   31.07710    1.50100    1.41700  # c1,cp,cp
angle_coeff	11 ba   26.46080   11.77170    1.50100    1.10100  # cp,c,hc
angle_coeff	12 ba   26.46080   11.77170    1.50100    1.10100  # cp,c1,hc
angle_coeff	13 ba   28.87080   28.87080    1.41700    1.41700  # cp,cp,cp
angle_coeff	14 ba   20.00330   24.21830    1.41700    1.09820  # cp,cp,hc
angle_coeff	15 ba   18.10300   18.10300    1.10100    1.10100  # hc,c,hc

# Dihedral Coeffs

dihedral_coeff	 1    0.00000    0.00000    0.05140    0.00000   -0.14300    0.00000  # c,c,c1,c
dihedral_coeff	 2    0.00000    0.00000    0.00000    0.00000    0.15800  180.00000  # c,c,c1,cp
dihedral_coeff	 3    0.00000    0.00000    0.03160    0.00000   -0.16810    0.00000  # c,c,c1,hc
dihedral_coeff	 4   -0.28020    0.00000   -0.06780    0.00000   -0.01220    0.00000  # c,c,cp,cp
dihedral_coeff	 5    0.00000    0.00000    0.05140    0.00000   -0.14300    0.00000  # c,c1,c,c1
dihedral_coeff	 6    0.00000    0.00000    0.03160    0.00000   -0.16810    0.00000  # c,c1,c,hc
dihedral_coeff	 7   -0.28020    0.00000   -0.06780    0.00000   -0.01220    0.00000  # c,c1,cp,cp
dihedral_coeff	 8    0.00000    0.00000    4.40720    0.00000    0.00000    0.00000  # c,cp,cp,cp
dihedral_coeff	 9    0.00000    0.00000    1.55900    0.00000    0.00000    0.00000  # c,cp,cp,hc
dihedral_coeff	10    0.00000    0.00000    0.00000    0.00000    0.15800  180.00000  # c1,c,c,cp
dihedral_coeff	11    0.00000    0.00000    0.03160    0.00000   -0.16810    0.00000  # c1,c,c,hc
dihedral_coeff	12    0.00000    0.00000    0.00000    0.00000    0.15800  180.00000  # c1,c,c1,cp
dihedral_coeff	13    0.00000    0.00000    0.03160    0.00000   -0.16810    0.00000  # c1,c,c1,hc
dihedral_coeff	14    0.00000    0.00000    4.40720    0.00000    0.00000    0.00000  # c1,cp,cp,cp
dihedral_coeff	15    0.00000    0.00000    1.55900    0.00000    0.00000    0.00000  # c1,cp,cp,hc
dihedral_coeff	16   -0.02280    0.00000    0.02800    0.00000   -0.18630    0.00000  # cp,c,c,hc
dihedral_coeff	17   -0.02280    0.00000    0.02800    0.00000   -0.18630    0.00000  # cp,c1,c,hc
dihedral_coeff	18   -0.28010    0.00000   -0.06780    0.00000   -0.01220    0.00000  # cp,cp,c,hc
dihedral_coeff	19   -0.28010    0.00000   -0.06780    0.00000   -0.01220    0.00000  # cp,cp,c1,hc
dihedral_coeff	20    8.36670    0.00000    1.19320    0.00000    0.00000    0.00000  # cp,cp,cp,cp
dihedral_coeff	21    0.00000    0.00000    3.96610    0.00000    0.00000    0.00000  # cp,cp,cp,hc
dihedral_coeff	22   -0.14320    0.00000    0.06170    0.00000   -0.10830    0.00000  # hc,c,c,hc
dihedral_coeff	23   -0.14320    0.00000    0.06170    0.00000   -0.10830    0.00000  # hc,c,c1,hc
dihedral_coeff	24    0.00000    0.00000    1.87690    0.00000    0.00000    0.00000  # hc,cp,cp,hc

# MiddleBondTorsion Coeffs

dihedral_coeff	 1 mbt  -17.78700   -7.18770    0.00000    1.53000  # c,c,c1,c
dihedral_coeff	 2 mbt    0.00000    0.00000    0.00000    1.53000  # c,c,c1,cp
dihedral_coeff	 3 mbt  -14.87900   -3.65810   -0.31380    1.53000  # c,c,c1,hc
dihedral_coeff	 4 mbt    0.00000    0.00000    0.00000    1.50100  # c,c,cp,cp
dihedral_coeff	 5 mbt  -17.78700   -7.18770    0.00000    1.53000  # c,c1,c,c1
dihedral_coeff	 6 mbt  -14.87900   -3.65810   -0.31380    1.53000  # c,c1,c,hc
dihedral_coeff	 7 mbt    0.00000    0.00000    0.00000    1.50100  # c,c1,cp,cp
dihedral_coeff	 8 mbt    0.00000    9.17920    0.00000    1.41700  # c,cp,cp,cp
dihedral_coeff	 9 mbt    0.00000    3.94210    0.00000    1.41700  # c,cp,cp,hc
dihedral_coeff	10 mbt    0.00000    0.00000    0.00000    1.53000  # c1,c,c,cp
dihedral_coeff	11 mbt  -14.87900   -3.65810   -0.31380    1.53000  # c1,c,c,hc
dihedral_coeff	12 mbt    0.00000    0.00000    0.00000    1.53000  # c1,c,c1,cp
dihedral_coeff	13 mbt  -14.87900   -3.65810   -0.31380    1.53000  # c1,c,c1,hc
dihedral_coeff	14 mbt    0.00000    9.17920    0.00000    1.41700  # c1,cp,cp,cp
dihedral_coeff	15 mbt    0.00000    3.94210    0.00000    1.41700  # c1,cp,cp,hc
dihedral_coeff	16 mbt    0.00000    0.00000    0.00000    1.53000  # cp,c,c,hc
dihedral_coeff	17 mbt    0.00000    0.00000    0.00000    1.53000  # cp,c1,c,hc
dihedral_coeff	18 mbt   -5.56790    1.40830    0.30100    1.50100  # cp,cp,c,hc
dihedral_coeff	19 mbt   -5.56790    1.40830    0.30100    1.50100  # cp,cp,c1,hc
dihedral_coeff	20 mbt   27.59890   -2.31200    0.00000    1.41700  # cp,cp,cp,cp
dihedral_coeff	21 mbt    0.00000   -1.15210    0.00000    1.41700  # cp,cp,cp,hc
dihedral_coeff	22 mbt  -14.26100   -0.53220   -0.48640    1.53000  # hc,c,c,hc
dihedral_coeff	23 mbt  -14.26100   -0.53220   -0.48640    1.53000  # hc,c,c1,hc
dihedral_coeff	24 mbt    0.00000    4.82280    0.00000    1.41700  # hc,cp,cp,hc

# EndBondTorsion Coeffs

dihedral_coeff	 1 ebt   -0.07320    0.00000    0.00000   -0.07320    0.00000    0.00000    1.53000    1.53000  # c,c,c1,c
dihedral_coeff	 2 ebt    0.00000    0.00000    0.00000    0.00000    0.00000    0.00000    1.53000    1.50100  # c,c,c1,cp
dihedral_coeff	 3 ebt    0.24860    0.24220   -0.09250    0.08140    0.05910    0.22190    1.53000    1.10100  # c,c,c1,hc
dihedral_coeff	 4 ebt    0.00000    0.00000    0.00000    0.00000    0.00000    0.00000    1.53000    1.41700  # c,c,cp,cp
dihedral_coeff	 5 ebt   -0.07320    0.00000    0.00000   -0.07320    0.00000    0.00000    1.53000    1.53000  # c,c1,c,c1
dihedral_coeff	 6 ebt    0.24860    0.24220   -0.09250    0.08140    0.05910    0.22190    1.53000    1.10100  # c,c1,c,hc
dihedral_coeff	 7 ebt    0.00000    0.00000    0.00000    0.00000    0.00000    0.00000    1.53000    1.41700  # c,c1,cp,cp
dihedral_coeff	 8 ebt    0.00000    0.24210    0.00000    0.00000   -0.69180    0.00000    1.50100    1.41700  # c,cp,cp,cp
dihedral_coeff	 9 ebt    0.00000   -1.79700    0.00000    0.00000   -0.48790    0.00000    1.50100    1.09820  # c,cp,cp,hc
dihedral_coeff	10 ebt    0.00000    0.00000    0.00000    0.00000    0.00000    0.00000    1.53000    1.50100  # c1,c,c,cp
dihedral_coeff	11 ebt    0.24860    0.24220   -0.09250    0.08140    0.05910    0.22190    1.53000    1.10100  # c1,c,c,hc
dihedral_coeff	12 ebt    0.00000    0.00000    0.00000    0.00000    0.00000    0.00000    1.53000    1.50100  # c1,c,c1,cp
dihedral_coeff	13 ebt    0.24860    0.24220   -0.09250    0.08140    0.05910    0.22190    1.53000    1.10100  # c1,c,c1,hc
dihedral_coeff	14 ebt    0.00000    0.24210    0.00000    0.00000   -0.69180    0.00000    1.50100    1.41700  # c1,cp,cp,cp
dihedral_coeff	15 ebt    0.00000   -1.79700    0.00000    0.00000   -0.48790    0.00000    1.50100    1.09820  # c1,cp,cp,hc
dihedral_coeff	16 ebt    0.00000    0.00000    0.00000    0.00000    0.00000    0.00000    1.50100    1.10100  # cp,c,c,hc
dihedral_coeff	17 ebt    0.00000    0.00000    0.00000    0.00000    0.00000    0.00000    1.50100    1.10100  # cp,c1,c,hc
dihedral_coeff	18 ebt   -0.58350    1.12200    0.39780    1.39970    0.77560    0.00000    1.41700    1.10100  # cp,cp,c,hc
dihedral_coeff	19 ebt   -0.58350    1.12200    0.39780    1.39970    0.77560    0.00000    1.41700    1.10100  # cp,cp,c1,hc
dihedral_coeff	20 ebt   -0.11850    6.32040    0.00000   -0.11850    6.32040    0.00000    1.41700    1.41700  # cp,cp,cp,cp
dihedral_coeff	21 ebt    0.00000   -6.89580    0.00000    0.00000   -0.46690    0.00000    1.41700    1.09820  # cp,cp,cp,hc
dihedral_coeff	22 ebt    0.21300    0.31200    0.07770    0.21300    0.31200    0.07770    1.10100    1.10100  # hc,c,c,hc
dihedral_coeff	23 ebt    0.21300    0.31200    0.07770    0.21300    0.31200    0.07770    1.10100    1.10100  # hc,c,c1,hc
dihedral_coeff	24 ebt    0.00000   -0.68900    0.00000    0.00000   -0.68900    0.00000    1.09820    1.09820  # hc,cp,cp,hc

# AngleTorsion Coeffs

dihedral_coeff	 1 at    0.38860   -0.31390    0.13890    0.38860   -0.31390    0.13890  112.67000  112.67000  # c,c,c1,c
dihedral_coeff	 2 at    0.00000    0.00000    0.00000    0.00000    0.00000    0.00000  112.67000  108.40000  # c,c,c1,cp
dihedral_coeff	 3 at   -0.24540    0.00000   -0.11360    0.31130    0.45160   -0.19880  112.67000  110.77000  # c,c,c1,hc
dihedral_coeff	 4 at    0.00000    0.00000    0.00000    0.00000    0.00000    0.00000  108.40000  120.05000  # c,c,cp,cp
dihedral_coeff	 5 at    0.38860   -0.31390    0.13890    0.38860   -0.31390    0.13890  112.67000  112.67000  # c,c1,c,c1
dihedral_coeff	 6 at   -0.24540    0.00000   -0.11360    0.31130    0.45160   -0.19880  112.67000  110.77000  # c,c1,c,hc
dihedral_coeff	 7 at    0.00000    0.00000    0.00000    0.00000    0.00000    0.00000  108.40000  120.05000  # c,c1,cp,cp
dihedral_coeff	 8 at    0.00000   -4.46830    0.00000    0.00000    3.89870    0.00000  120.05000  118.90000  # c,cp,cp,cp
dihedral_coeff	 9 at    0.00000   -0.12420    0.00000    0.00000    3.46010    0.00000  120.05000  117.94000  # c,cp,cp,hc
dihedral_coeff	10 at    0.00000    0.00000    0.00000    0.00000    0.00000    0.00000  112.67000  108.40000  # c1,c,c,cp
dihedral_coeff	11 at   -0.24540    0.00000   -0.11360    0.31130    0.45160   -0.19880  112.67000  110.77000  # c1,c,c,hc
dihedral_coeff	12 at    0.00000    0.00000    0.00000    0.00000    0.00000    0.00000  112.67000  108.40000  # c1,c,c1,cp
dihedral_coeff	13 at   -0.24540    0.00000   -0.11360    0.31130    0.45160   -0.19880  112.67000  110.77000  # c1,c,c1,hc
dihedral_coeff	14 at    0.00000   -4.46830    0.00000    0.00000    3.89870    0.00000  120.05000  118.90000  # c1,cp,cp,cp
dihedral_coeff	15 at    0.00000   -0.12420    0.00000    0.00000    3.46010    0.00000  120.05000  117.94000  # c1,cp,cp,hc
dihedral_coeff	16 at    0.00000    0.00000    0.00000    0.00000    0.00000    0.00000  108.40000  110.77000  # cp,c,c,hc
dihedral_coeff	17 at    0.00000    0.00000    0.00000    0.00000    0.00000    0.00000  108.40000  110.77000  # cp,c1,c,hc
dihedral_coeff	18 at    0.22510    0.65480    0.12370    4.62660    0.16320    0.04610  120.05000  111.00000  # cp,cp,c,hc
dihedral_coeff	19 at    0.22510    0.65480    0.12370    4.62660    0.16320    0.04610  120.05000  111.00000  # cp,cp,c1,hc
dihedral_coeff	20 at    1.97670    1.02390    0.00000    1.97670    1.02390    0.00000  118.90000  118.90000  # cp,cp,cp,cp
dihedral_coeff	21 at    0.00000    2.50140    0.00000    0.00000    2.71470    0.00000  118.90000  117.94000  # cp,cp,cp,hc
dihedral_coeff	22 at   -0.80850    0.55690   -0.24660   -0.80850    0.55690   -0.24660  110.77000  110.77000  # hc,c,c,hc
dihedral_coeff	23 at   -0.80850    0.55690   -0.24660   -0.80850    0.55690   -0.24660  110.77000  110.77000  # hc,c,c1,hc
dihedral_coeff	24 at    0.00000    2.45010    0.00000    0.00000    2.45010    0.00000  117.94000  117.94000  # hc,cp,cp,hc

# AngleAngleTorsion Coeffs

dihedral_coeff	 1 aat  -22.04500  112.67000  112.67000  # c,c,c1,c
dihedral_coeff	 2 aat    0.00000  112.67000  108.40000  # c,c,c1,cp
dihedral_coeff	 3 aat  -16.16400  112.67000  110.77000  # c,c,c1,hc
dihedral_coeff	 4 aat    0.00000  108.40000  120.05000  # c,c,cp,cp
dihedral_coeff	 5 aat  -22.04500  112.67000  112.67000  # c,c1,c,c1
dihedral_coeff	 6 aat  -16.16400  112.67000  110.77000  # c,c1,c,hc
dihedral_coeff	 7 aat    0.00000  108.40000  120.05000  # c,c1,cp,cp
dihedral_coeff	 8 aat  -14.40970  120.05000  118.90000  # c,cp,cp,cp
dihedral_coeff	 9 aat    4.44440  120.05000  117.94000  # c,cp,cp,hc
dihedral_coeff	10 aat    0.00000  112.67000  108.40000  # c1,c,c,cp
dihedral_coeff	11 aat  -16.16400  112.67000  110.77000  # c1,c,c,hc
dihedral_coeff	12 aat    0.00000  112.67000  108.40000  # c1,c,c1,cp
dihedral_coeff	13 aat  -16.16400  112.67000  110.77000  # c1,c,c1,hc
dihedral_coeff	14 aat  -14.40970  120.05000  118.90000  # c1,cp,cp,cp
dihedral_coeff	15 aat    4.44440  120.05000  117.94000  # c1,cp,cp,hc
dihedral_coeff	16 aat    0.00000  108.40000  110.77000  # cp,c,c,hc
dihedral_coeff	17 aat    0.00000  108.40000  110.77000  # cp,c1,c,hc
dihedral_coeff	18 aat   -5.88880  120.05000  111.00000  # cp,cp,c,hc
dihedral_coeff	19 aat   -5.88880  120.05000  111.00000  # cp,cp,c1,hc
dihedral_coeff	20 aat    0.00000  118.90000  118.90000  # cp,cp,cp,cp
dihedral_coeff	21 aat   -4.81410  118.90000  117.94000  # cp,cp,cp,hc
dihedral_coeff	22 aat  -12.56400  110.77000  110.77000  # hc,c,c,hc
dihedral_coeff	23 aat  -12.56400  110.77000  110.77000  # hc,c,c1,hc
dihedral_coeff	24 aat    0.35980  117.94000  117.94000  # hc,cp,cp,hc

# BondBond13 Coeffs

dihedral_coeff	 1 bb13    0.00000    1.53000    1.53000  # c,c,c1,c
dihedral_coeff	 2 bb13    0.00000    1.53000    1.50100  # c,c,c1,cp
dihedral_coeff	 3 bb13    0.00000    1.53000    1.10100  # c,c,c1,hc
dihedral_coeff	 4 bb13    0.00000    1.53000    1.41700  # c,c,cp,cp
dihedral_coeff	 5 bb13    0.00000    1.53000    1.53000  # c,c1,c,c1
dihedral_coeff	 6 bb13    0.00000    1.53000    1.10100  # c,c1,c,hc
dihedral_coeff	 7 bb13    0.00000    1.53000    1.41700  # c,c1,cp,cp
dihedral_coeff	 8 bb13    2.50850    1.50100    1.41700  # c,cp,cp,cp
dihedral_coeff	 9 bb13    0.87430    1.50100    1.09820  # c,cp,cp,hc
dihedral_coeff	10 bb13    0.00000    1.53000    1.50100  # c1,c,c,cp
dihedral_coeff	11 bb13    0.00000    1.53000    1.10100  # c1,c,c,hc
dihedral_coeff	12 bb13    0.00000    1.53000    1.50100  # c1,c,c1,cp
dihedral_coeff	13 bb13    0.00000    1.53000    1.10100  # c1,c,c1,hc
dihedral_coeff	14 bb13    2.50850    1.50100    1.41700  # c1,cp,cp,cp
dihedral_coeff	15 bb13    0.87430    1.50100    1.09820  # c1,cp,cp,hc
dihedral_coeff	16 bb13    0.00000    1.50100    1.10100  # cp,c,c,hc
dihedral_coeff	17 bb13    0.00000    1.50100    1.10100  # cp,c1,c,hc
dihedral_coeff	18 bb13   -3.48260    1.41700    1.10100  # cp,cp,c,hc
dihedral_coeff	19 bb13   -3.48260    1.41700    1.10100  # cp,cp,c1,hc
dihedral_coeff	20 bb13   53.00000    1.41700    1.41700  # cp,cp,cp,cp
dihedral_coeff	21 bb13   -6.27410    1.41700    1.09820  # cp,cp,cp,hc
dihedral_coeff	22 bb13    0.00000    1.10100    1.10100  # hc,c,c,hc
dihedral_coeff	23 bb13    0.00000    1.10100    1.10100  # hc,c,c1,hc
dihedral_coeff	24 bb13   -1.70770    1.09820    1.09820  # hc,cp,cp,hc

# Improper Coeffs

improper_coeff	 1    0.00000    0.00000  # c,c,cp,hc
improper_coeff	 2    0.00000    0.00000  # c,c,hc,c1
improper_coeff	 3    0.00000    0.00000  # c,c,hc,cp
improper_coeff	 4    0.00000    0.00000  # c,c,hc,hc
improper_coeff	 5    0.00000    0.00000  # c,c1,c1,hc
improper_coeff	 6    0.00000    0.00000  # c,c1,hc,hc
improper_coeff	 7    0.00000    0.00000  # c,cp,hc,hc
improper_coeff	 8    0.00000    0.00000  # c,hc,hc,hc
improper_coeff	 9    0.00000    0.00000  # c1,c,c,cp
improper_coeff	10    0.00000    0.00000  # c1,c,c,hc
improper_coeff	11    0.00000    0.00000  # c1,c,cp,hc
improper_coeff	12    7.81530    0.00000  # cp,c,cp,cp
improper_coeff	13    7.81530    0.00000  # cp,c1,cp,cp
improper_coeff	14    4.89120    0.00000  # cp,cp,cp,hc

# AngleAngle Coeffs

improper_coeff	 1 aa    2.04030   -1.82020    1.08270  108.40000  110.77000  111.00000  # c,c,cp,hc
improper_coeff	 2 aa    0.11840   -1.31990   -1.31990  110.77000  112.67000  110.77000  # c,c,hc,c1
improper_coeff	 3 aa    1.08270   -1.82020    2.04030  110.77000  108.40000  111.00000  # c,c,hc,cp
improper_coeff	 4 aa    0.27380   -0.48250    0.27380  110.77000  110.77000  107.66000  # c,c,hc,hc
improper_coeff	 5 aa   -1.31990   -1.31990    0.11840  112.67000  110.77000  110.77000  # c,c1,c1,hc
improper_coeff	 6 aa    0.27380   -0.48250    0.27380  110.77000  110.77000  107.66000  # c,c1,hc,hc
improper_coeff	 7 aa    2.37940    3.01180    2.37940  111.00000  111.00000  107.66000  # c,cp,hc,hc
improper_coeff	 8 aa   -0.31570   -0.31570   -0.31570  107.66000  107.66000  107.66000  # c,hc,hc,hc
improper_coeff	 9 aa    0.00000    0.00000    0.00000  112.67000  108.40000  108.40000  # c1,c,c,cp
improper_coeff	10 aa   -1.31990   -1.31990    0.11840  112.67000  110.77000  110.77000  # c1,c,c,hc
improper_coeff	11 aa    2.04030   -1.82020    1.08270  108.40000  110.77000  111.00000  # c1,c,cp,hc
improper_coeff	12 aa    0.00000    0.00000    0.00000  120.05000  120.05000  118.90000  # cp,c,cp,cp
improper_coeff	13 aa    0.00000    0.00000    0.00000  120.05000  120.05000  118.90000  # cp,c1,cp,cp
improper_coeff	14 aa    0.00000    0.00000    0.00000  118.90000  117.94000  117.94000  # cp,cp,cp,hc


# --- Thermo Output ---
thermo_style custom step time temp press enthalpy etotal ke pe ebond eangle edihed eimp evdwl ecoul vol lx ly lz density pxx pyy pzz
thermo_modify flush yes
thermo 1000

# --- Trajectory ---
dump dump_comp all custom 2000 npt_compress.dump id type mol x y z ix iy iz vx vy vz

restart 10000 compress_1.rst compress_2.rst
velocity all create 600.0 285869 mom yes rot yes dist gaussian
# SHAKE disabled

# --- NPT Compression ---
# High pressure compresses the cell from low to target density
# P ramp: 1.0 -> 50000.0 atm
timestep 0.5
fix npt_comp all npt temp 630.0 630.0 100.0 iso 1.0 50000.0 1000.0

run 500000
Generated 6 of 6 mixed pair_coeff terms from sixthpower/sixthpower mixing rule
Neighbor list info ...
  update: every = 1 steps, delay = 0 steps, check = yes
  max neighbors/atom: 4000, page size: 100000
  master list distance cutoff = 11.5
  ghost atom cutoff = 11.5
  binsize = 11.5, bins = 5 5 5
  1 neighbor lists, perpetual/occasional/extra = 1 0 0
  (1) pair lj/class2/coul/cut/kk, perpetual
      attributes: full, newton off, kokkos_device
      pair build: full/bin/kk/device
      stencil: full/bin/3d
      bin: kk/device
Per MPI rank memory allocation (min/avg/max) = 31.47 | 31.47 | 31.47 Mbytes
   Step          Time           Temp          Press         Enthalpy        TotEng         KinEng         PotEng         E_bond        E_angle        E_dihed        E_impro         E_vdwl         E_coul         Volume           Lx             Ly             Lz          Density          Pxx            Pyy            Pzz      
         0   0              600           -1962.455       19412.351      23149.931      11480.292      11669.639      5232.8446      4778.5346     -609.56434      413.07894      1778.4589      76.286232      130591.5       50.734685      50.734685      50.734685      0.52999999    -1882.6708     -1735.2272     -2269.467     
      1000   500            623.99924      74.797347      23423.734      23284.076      11939.489      11344.587      5156.4659      4668.9491     -692.00343      428.61377      1844.3739     -61.812476      128027.35      50.400431      50.400431      50.400431      0.54061489     857.77094     -154.29463     -479.08426    
      2000   1000           627.38324     -640.78914      22082.795      23245.609      12004.238      11241.372      5277.5751      4735.5936     -685.94887      414.94658      1708.9676     -209.76248      124428.37      49.923666      49.923666      49.923666      0.55625172     494.70253      110.31791     -2527.3879    
      3000   1500           631.94529     -629.56814      22204.098      23312.797      12091.527      11221.27       5017.1162      4849.0107     -508.84394      432.51417      1675.4207     -243.94813      120752.21      49.427089      49.427089      49.427089      0.57318612     61.568226     -1911.5037     -38.768916    
      4000   2000           632.27978      737.80983      24879.804      23624.394      12097.927      11526.467      5245.6878      4804.4057     -576.96963      432.55738      1709.6403     -88.854926      116671.68      48.86394       48.86394       48.86394       0.59323304     680.33779      635.19973      897.89197    
      5000   2500           632.35074      942.41001      24636.434      23081.153      12099.285      10981.868      5141.1136      4793.3169     -797.55024      403.16784      1620.3473     -178.5273       113159.99      48.368687      48.368687      48.368687      0.61164282     1118.9526      2177.7649     -469.48749    
      6000   3000           623.69389      1130.2436      24552.534      22753.682      11933.646      10820.036      5266.5043      4683.6475     -756.22366      411.83901      1635.5165     -421.24801      109130.83      47.787667      47.787667      47.787667      0.63422491     289.29324      969.20513      2132.2325    
      7000   3500           622.9929       967.59982      24381.03       22892.165      11920.234      10971.931      5211.8625      4728.6815     -777.21769      418.16001      1560.9925     -170.54781      105507.57      47.252835      47.252835      47.252835      0.65600501     1528.6547      912.49072      461.65401    
      8000   4000           625.41226     -522.88967      22001.377      22780.94       11966.525      10814.415      5064.9224      4687.042      -548.56809      428.38878      1463.6105     -280.98103      102226.91      46.757908      46.757908      46.757908      0.67705749     41.684231      394.20887     -2004.5621    
      9000   4500           640.89559      140.61061      23229.453      23026.514      12262.781      10763.733      5218.1741      4651.8314     -709.09437      408.90229      1471.1606     -277.24073      98962.693      46.254838      46.254838      46.254838      0.69938975    -373.02731     -793.68176      1588.5409    
     10000   5000           633.67718      946.77272      24282.003      22961.578      12124.665      10836.914      5105.6086      4803.0248     -737.23919      421.55137      1468.8873     -224.9193       95629.495      45.729588      45.729588      45.729588      0.72376721     2461.4129     -1543.8376      1922.7429    
     11000   5500           632.54069      526.84839      23329.684      22618.224      12102.919      10515.305      5053.1402      4858.5978     -745.8101       406.8297       1397.2602     -454.71316      92595.293      45.240733      45.240733      45.240733      0.74748393    -696.1047       554.80757      1721.8423    
     12000   6000           623.72444      278.3716       23013.174      22648.279      11934.231      10714.048      5084.763       4777.4663     -622.39529      410.54626      1318.2303     -254.56236      89880.668      44.794232      44.794232      44.794232      0.77005985     20.136465      35.069049      779.9093     
     13000   6500           633.18109     -9.9027103      22660.348      22672.932      12115.173      10557.759      5275.6744      4709.0192     -734.20242      413.83265      1245.5528     -352.11778      87134.06       44.333224      44.333224      44.333224      0.79433339     671.20904     -1820.212       1119.2948    
     14000   7000           626.05373      521.97769      23356.001      22710.123      11978.799      10731.324      5179.2034      4859.4314     -777.00532      415.44413      1275.1214     -220.87078      84844.302      43.941434      43.941434      43.941434      0.81577067     555.09443      2093.52       -1082.6814    
     15000   7500           627.03421      640.44187      23386.947      22610.698      11997.56       10613.139      4973.4529      4704.843      -612.7253       415.70925      1294.2148     -162.35609      83108.489      43.639704      43.639704      43.639704      0.83280895    -362.91741      1986.4953      297.7477     
     16000   8000           638.32876      2551.6418      25310.271      22267.832      12213.667      10054.164      4904.2465      4615.2048     -766.0965       408.53046      1228.9864     -336.70722      81757.268      43.401905      43.401905      43.401905      0.84657297     2691.5649      2490.5333      2472.8272    
     17000   8500           625.62849      1644.4391      24363.119      22447.525      11970.663      10476.862      5033.1667      4690.774      -714.3956       424.59576      1218.4904     -175.76939      79874.801      43.066204      43.066204      43.066204      0.86652476     3154.5728      881.54644      897.19796    
     18000   9000           628.50199      1967.9893      24964.913      22709.863      12025.644      10684.22       5107.2813      4779.257      -715.96232      426.78808      1219.3412     -132.48569      78570.143      42.830438      42.830438      42.830438      0.88091342     1600.2492      578.7899       3724.9287    
     19000   9500           631.27912      468.66931      23163.043      22632.145      12078.781      10553.364      5113.5838      4703.8876     -676.32697      424.3031       1144.5136     -156.59671      77672.698      42.66674       42.66674       42.66674       0.89109166    -216.38234      2542.5997     -920.20941    
     20000   10000          625.55504     -103.72888      21990.755      22106.973      11969.257      10137.716      4992.0708      4692.0076     -583.15508      399.46187      1016.6664     -379.33608      76823.828      42.510738      42.510738      42.510738      0.90093784    -501.57518      91.486984      98.901543    
     21000   10500          620.9527       1618.2828      24254.856      22464.957      11881.197      10583.76       5141.3452      4774.9692     -621.49525      424.87232      1063.4665     -199.39823      75839.979      42.328486      42.328486      42.328486      0.91262542    -298.71094      1536.5826      3616.9767    
     22000   11000          639.14013      3116.5615      26332.437      22913.466      12229.192      10684.274      5199.5306      4777.0156     -663.15158      433.0078       1090.3372     -152.46545      75221.822      42.213168      42.213168      42.213168      0.92012519     2730.2925      3342.4979      3276.894     
     23000   11500          634.22682      3428.1762      26403.162      22678.057      12135.182      10542.875      5022.2802      4851.4931     -611.55486      425.38258      1109.7875     -254.51349      74507.43       42.079108      42.079108      42.079108      0.92894753     2124.1018      3584.0284      4576.3983    
     24000   12000          625.15026      2482.7261      24887.014      22228.505      11961.512      10266.993      5074.0652      4793.8927     -751.16144      406.18733      1027.5606     -283.55182      73423.228      41.874004      41.874004      41.874004      0.94266481     2230.876       2244.4511      2972.8512    
     25000   12500          632.89793      3594.9085      25960.82       22115.382      12109.755      10005.627      5230.8143      4637.8968     -790.04857      405.99086      996.15888     -475.18558      73346.958      41.8595        41.8595        41.8595        0.94364504     2012.8058      5258.9764      3512.9434    
     26000   13000          644.82245      2473.5854      25378.12       22719.664      12337.916      10381.748      5189.5597      4899.4642     -759.96716      411.16976      942.25453     -300.7335       73693.065      41.925238      41.925238      41.925238      0.93921312     2250.7793      2000.4991      3169.4777    
     27000   13500          624.85819      5913.7709      28427.427      22157.721      11955.924      10201.797      5127.7973      4776.2476     -830.06044      417.05265      1016.1513     -305.39091      72695.37       41.735176      41.735176      41.735176      0.95210318     7113.5038      5548.6123      5079.1966    
     28000   14000          624.96968      2751.0512      25214.372      22324.278      11958.057      10366.221      5100.3548      4753.9057     -602.81514      435.98307      975.11464     -296.32249      72033.987      41.608221      41.608221      41.608221      0.96084496     3039.2948      2758.521       2455.3378    
     29000   14500          633.69668      3042.5221      25755.69       22588.906      12125.038      10463.867      5049.3489      4875.7568     -612.8355       429.45465      991.49945     -269.35681      71368.889      41.479767      41.479767      41.479767      0.96979923     2836.8195      2884.764       3405.9828    
     30000   15000          633.36673      4038.3739      26353.699      22188.366      12118.725      10069.641      5219.9048      4672.4516     -865.19433      392.57915      911.35228     -261.45267      70724.093      41.35447       41.35447       41.35447       0.97864094     2754.3964      2327.0827      7033.6427    
     31000   15500          632.09075      5580.6998      27780.564      22030.789      12094.31       9936.4786      5251.2139      4682.1958     -851.9404       422.03687      916.71934     -483.74687      70645.797      41.339204      41.339204      41.339204      0.97972556     6148.2134      4839.3016      5754.5845    
     32000   16000          637.99439      3576.4927      25946.831      22252.137      12207.27       10044.867      5053.6807      4798.7636     -716.25172      403.69781      835.39249     -330.41576      70834.579      41.375994      41.375994      41.375994      0.97711448     3230.7039      4142.3378      3356.4364    
     33000   16500          637.23123      2411.5056      24881.143      22419.318      12192.667      10226.65       5295.9543      4673.244      -672.35909      439.30149      863.67709     -373.16756      69999.198      41.212696      41.212696      41.212696      0.98877552     1554.9854      2267.235       3412.2963    
     34000   17000          635.80361      1897.1473      24230.764      22301.324      12165.352      10135.972      5042.4252      4991.2627     -656.83561      426.3258       772.03233     -439.23819      69735.575      41.160894      41.160894      41.160894      0.9925134      2109.1024      3443.2835      139.05598    
     35000   17500          629.16614      2678.4769      24799.045      22079.983      12038.352      10041.631      5053.9481      4717.7632     -638.89403      425.89435      747.77226     -264.85283      69607.398      41.13566       41.13566       41.13566       0.99434105     2832.0377      2918.8915      2284.5016    
     36000   18000          633.65839      4795.2721      26779.63       21919.933      12124.305      9795.6272      5249.1711      4653.6774     -869.06576      417.34763      804.87744     -460.38065      69489.638      41.112449      41.112449      41.112449      0.9960261      6217.4841      5317.9137      2850.4184    
     37000   18500          635.59598      4189.9196      26668.893      22422.141      12161.379      10260.762      5247.0963      4810.2        -709.1905       443.16697      809.3216      -339.83204      69498.473      41.114192      41.114192      41.114192      0.99589947     4346.0229      2879.1236      5344.6123    
     38000   19000          639.47896      7601.4552      30114.485      22508.579      12235.675      10272.904      5229.9701      4857.158      -761.37129      441.25558      896.73785     -390.84614      68608.564      40.937952      40.937952      40.937952      1.0088171      7134.3544      7480.2845      8189.7267    
     39000   19500          631.45921      4553.2987      26371.686      21789.094      12082.227      9706.8672      5221.0879      4627.0085     -733.68435      426.6049       776.1259      -610.2757       69009.541      41.01755       41.01755       41.01755       1.0029554      5339.5143      4767.9614      3552.4203    
     40000   20000          627.63993      4152.5687      26121.876      21935.755      12009.149      9926.6056      5053.0865      4763.3776     -817.83455      406.0658       913.94061     -392.03047      69122.44       41.039906      41.039906      41.039906      1.0013173      5490.9648      3616.5895      3350.1517    
     41000   20500          619.26148      4007.8688      25836.506      21854.52       11848.838      10005.683      5216.6305      4741.0228     -822.68929      414.16215      813.86007     -357.30333      68125.587      40.841663      40.841663      40.841663      1.0159691      1540.1402      4440.2978      6043.1684    
     42000   21000          622.65283      3850.2101      25316.256      21486.389      11913.727      9572.6618      5096.1296      4826.1531     -879.62291      406.60153      762.72714     -639.32656      68206.129      40.857752      40.857752      40.857752      1.0147694      3576.1847      5016.9051      2957.5406    
     43000   21500          629.53352      4675.0544      26245.402      21619.875      12045.381      9574.4945      5122.0633      4831.8051     -968.64582      387.74856      784.77773     -583.25441      67841.997      40.784913      40.784913      40.784913      1.020216       3624.1031      4366.8593      6034.2009    
     44000   22000          632.61025      3814.6409      25757.113      21987.85       12104.251      9883.5996      5095.9098      4810.8578     -859.36841      419.9785       819.78411     -403.56224      67752.735      40.767018      40.767018      40.767018      1.0215601      2695.2681      4864.1922      3884.4625    
     45000   22500          621.77122      5213.0421      27089.702      21935.473      11896.858      10038.614      5348.048       4886.6659     -865.2491       403.44385      813.17301     -547.46715      67794.827      40.775458      40.775458      40.775458      1.0209259      4965.62        4505.9688      6167.5375    
     46000   23000          630.27829      3896.96        25687.455      21856.217      12059.631      9796.5856      5252.8854      4721.803      -745.352        414.38618      811.58327     -658.72023      67412.024      40.698567      40.698567      40.698567      1.0267233      4090.9683      4695.3017      2904.61      
     47000   23500          627.66311      5011.3799      26517.488      21647.048      12009.593      9637.4553      4979.2898      4825.1786     -774.22397      406.08538      823.45643     -622.3309       66640          40.542606      40.542606      40.542606      1.0386178      2270.2917      6589.2568      6174.5911    
     48000   24000          624.92042      2723.6631      24169.486      21504.521      11957.115      9547.4062      5109.2932      4789.3537     -858.65157      402.76072      753.06882     -648.41868      67090.679      40.633796      40.633796      40.633796      1.031641       2299.0697      3699.2165      2172.7032    
     49000   24500          618.25555      4086.9596      25672.166      21686.656      11829.59       9857.0658      5140.3383      4793.4977     -773.23602      411.94717      828.35868     -543.84007      66866.356      40.588458      40.588458      40.588458      1.0351019      4512.829       2691.0954      5056.9543    
     50000   25000          628.23576      5145.9981      27144.802      22088.589      12020.55       10068.039      5277.8597      4755.992      -841.77161      438.2271       736.58979     -298.85756      67372.063      40.690524      40.690524      40.690524      1.0273322      4156.9951      5448.2857      5832.7134    
     51000   25500          632.65349      5257.1054      27046.793      21936.56       12105.078      9831.4824      5200.6086      4640.7918     -684.60228      442.11993      786.80946     -554.24514      66652.753      40.545192      40.545192      40.545192      1.0384191      3858.1182      6797.4068      5115.7913    
     52000   26000          629.4601       4605.1857      26521.751      22036.997      12043.976      9993.021       5096.3669      4896.2877     -768.94266      408.58748      717.80153     -357.07999      66775.255      40.570017      40.570017      40.570017      1.0365141      4818.0038      3365.4692      5632.0842    
     53000   26500          629.36799      4968.4422      26877.737      22073.385      12042.214      10031.171      5159.5259      4722.7551     -759.98655      435.43904      678.17174     -204.73383      66303.841      40.47432       40.47432       40.47432       1.0438836      4724.3941      4656.4018      5524.5306    
     54000   27000          623.1824       4162.9718      25820.129      21812.131      11923.86       9888.2714      5103.2748      4873.9329     -780.67673      390.81628      617.0288      -316.1046       66015.836      40.415632      40.415632      40.415632      1.0484377      3557.1183      4895.4234      4036.3736    
     55000   27500          620.93552      3117.2664      24735.268      21736.895      11880.868      9856.0262      5309.8846      4715.5783     -784.82351      420.50659      691.80239     -496.92221      65953.211      40.402848      40.402848      40.402848      1.0494332      2312.3073      4052.3275      2987.1643    
     56000   28000          626.97041      6577.7372      28155.446      21815.611      11996.339      9819.2727      5186.4913      4820.2045     -863.13139      415.62533      787.81029     -527.72735      66088.439      40.430443      40.430443      40.430443      1.0472859      6483.3137      7670.6172      5579.2808    
     57000   28500          628.95047      6465.2058      28113.931      21889.613      12034.225      9855.3879      5148.5822      4901.8812     -803.28425      420.84343      738.21643     -550.85114      66013.622      40.41518       40.41518       40.41518       1.0484729      3840.3126      7827.3663      7727.9386    
     58000   29000          632.05968      6047.4082      27661.237      21900.31       12093.716      9806.5943      5091.1828      4900.7625     -787.74593      421.36668      738.6871      -557.65882      65320.149      40.273161      40.273161      40.273161      1.059604       3890.4346      8317.9589      5933.8312    
     59000   29500          628.8235       5757.707       27391.57       21866.253      12031.796      9834.4575      5110.2917      4865.709      -686.16221      424.52621      695.49512     -575.40231      65800.889      40.37172       40.37172       40.37172       1.0518626      6902.0399      4285.1993      6085.8817    
     60000   30000          632.08572      4640.3118      26245.833      21816.045      12094.214      9721.8305      5116.3613      4615.6898     -674.76121      436.90768      695.82326     -468.19036      65457.578      40.301386      40.301386      40.301386      1.0573794      2900.2732      6321.9079      4698.7543    
     61000   30500          630.71065      5963.0779      27508.243      21854.339      12067.904      9786.4348      5298.822       4763.1408     -842.30028      407.17503      777.03278     -617.43546      65013.28       40.209996      40.209996      40.209996      1.0646055      4797.3126      6879.5506      6212.3704    
     62000   31000          636.51311      6116.7862      27845.209      21987.505      12178.927      9808.5777      5235.4529      4766.545      -787.69149      418.48378      679.34112     -503.5536       65664.136      40.343733      40.343733      40.343733      1.0540532      6467.7076      7982.3095      3900.3415    
     63000   31500          630.53085      7987.4894      29312.41       21778.223      12064.464      9713.7592      5118.7178      4705.1833     -905.00673      407.40315      801.99185     -414.53018      64677.056      40.140559      40.140559      40.140559      1.0701398      7210.247       8040.6979      8711.5233    
     64000   32000          633.45804      6656.5283      28507.307      22139.243      12120.472      10018.771      5161.9682      4879.2907     -763.61565      445.01605      744.78246     -448.67112      65596.971      40.329973      40.329973      40.329973      1.0551325      7143.8124      7420.3052      5405.4672    
     65000   32500          631.24672      8187.579       29962.917      22239.652      12078.161      10161.491      5154.4363      5056.6609     -768.20446      419.82188      792.82244     -494.0456       64679.926      40.141153      40.141153      40.141153      1.0700923      8343.9515      7817.7998      8400.9859    
     66000   33000          623.61828      7946.901       29241.827      21740.38       11932.2        9808.1807      5277.3364      4838.975      -939.89593      413.2895       749.88814     -531.41247      64724.892      40.150452      40.150452      40.150452      1.0693489      7697.5845      10005.572      6137.5464    
     67000   33500          619.35873      5814.3349      27364.133      21866.95       11850.698      10016.252      5143.4846      4808.8928     -771.67221      433.28732      777.2142      -374.95479      64828.238      40.171811      40.171811      40.171811      1.0676442      4929.5809      7649.7952      4863.6285    
     68000   34000          635.14059      3920.5823      25405.145      21706.76       12152.665      9554.0941      4973.6947      4769.0874     -713.53514      399.77588      803.0598      -677.98853      64682.344      40.141653      40.141653      40.141653      1.0700523      3262.5099      3521.1391      4978.098     
     69000   34500          632.49991      4712.2245      26439.429      21987.764      12102.139      9885.6246      5358.0683      4774.7021     -722.44288      433.02481      665.62297     -623.35066      64776.972      40.161218      40.161218      40.161218      1.0684892      3640.1893      5269.3206      5227.1636    
     70000   35000          639.13694      5747.0115      27527.543      22152.292      12229.131      9923.1606      5110.048       4807.5884     -637.0659       441.00155      768.07753     -566.48901      64132.889      40.027666      40.027666      40.027666      1.0792199      6338.5813      4089.7359      6812.7174    
     71000   35500          633.07615      8061.4642      29504.216      21925.198      12113.165      9812.033       5093.8369      4711.2643     -760.38933      416.88589      764.08568     -413.65049      64464.875      40.096615      40.096615      40.096615      1.0736621      6106.7741      8564.9547      9512.6637    
     72000   36000          625.5306       8491.1194      29591.349      21621.611      11968.79       9652.821       5181.5995      4758.4721     -860.39212      418.97553      791.6386      -637.47262      64358.104      40.074466      40.074466      40.074466      1.0754433      8745.9618      8908.5069      7818.8893    
     73000   36500          618.0864       7033.8552      28144.94       21576.708      11826.354      9750.3542      5374.8967      4647.7322     -831.58284      397.82235      810.06947     -648.5836       64029.363      40.006116      40.006116      40.006116      1.0809649      4140.3688      7755.9683      9205.2284    
     74000   37000          624.60412      5136.5774      26314.434      21515.027      11951.063      9563.964       5131.2426      4764.056      -708.68837      421.30975      700.09546     -744.05153      64067.517      40.014061      40.014061      40.014061      1.0803211      3002.4299      6473.1476      5934.1548    
     75000   37500          636.61146      6408.4703      27639.712      21710.83       12180.809      9530.0208      5151.2074      4771.8382     -768.56782      403.96878      744.50689     -772.93273      63436.991      39.882361      39.882361      39.882361      1.0910589      3943.7208      7494.3797      7787.3103    
     76000   38000          636.60398      5174.984       27047.14       22180.554      12180.666      9999.8885      5322.0751      4789.0379     -747.21989      420.46388      685.83336     -470.30188      64482.144      40.100195      40.100195      40.100195      1.0733746      4417.9132      5551.3413      5555.6974    
     77000   38500          633.66677      7956.2695      29322.776      21977.754      12124.466      9853.2887      5189.564       4772.9863     -737.83726      426.47451      779.96424     -577.86312      63300.582      39.853754      39.853754      39.853754      1.0934101      7462.1176      6056.4893      10350.202    
     78000   39000          637.94346      7842.3554      29004.307      21741.457      12206.295      9535.1616      5052.1768      4587.4018     -717.59552      435.39878      804.02908     -626.24936      63501.604      39.895897      39.895897      39.895897      1.0899487      6226.4756      11726.171      5574.4198    
     79000   39500          628.36394      9337.3948      30097.702      21436.589      12023.002      9413.5869      5046.4636      4712.8308     -850.82402      412.13994      766.79454     -673.818        63602.193      39.916951      39.916951      39.916951      1.0882249      10097.301      10138.666      7776.2177    
     80000   40000          627.50175      6428.9193      27995.168      22032.14       12006.505      10025.635      5197.1028      4781.5869     -656.56666      442.32256      740.01598     -478.82656      63599.392      39.916365      39.916365      39.916365      1.0882729      4322.2603      7747.9446      7216.553     
     81000   40500          627.25163      7429.2392      28161.258      21298.633      12001.72       9296.9134      5065.6617      4774.5999     -756.81758      413.30426      746.87458     -946.70946      63338.834      39.86178       39.86178       39.86178       1.0927497      8719.0435      7662.632       5906.0423    
     82000   41000          610.68565      9464.4729      30141.719      21389.526      11684.749      9704.7765      5100.2385      4833.8715     -793.72761      428.42479      796.19263     -660.22337      63408.078      39.876301      39.876301      39.876301      1.0915564      9321.6966      9713.2523      9358.4697    
     83000   41500          637.11381      10880.124      31835.47       21849.292      12190.421      9658.8716      5125.0053      4894.8291     -837.48054      440.58075      771.83911     -735.9021       62934.611      39.776801      39.776801      39.776801      1.0997683      10910.207      10007.267      11722.898    
     84000   42000          639.19032      11200.485      32403.497      22104.888      12230.152      9874.7362      5061.1757      4907.6179     -738.93228      438.19451      883.52531     -676.84487      63047.204      39.800508      39.800508      39.800508      1.0978043      10905.273      10813.661      11882.522    
     85000   42500          625.15816      6732.1506      28013.658      21792.83       11961.663      9831.1665      5089.4805      4880.7286     -664.79656      429.69337      805.80496     -709.74438      63360.482      39.866321      39.866321      39.866321      1.0923764      5900.0182      7508.3178      6788.1158    
     86000   43000          625.53039      8180.8365      29226.178      21715.252      11968.786      9746.466       4983.2332      4851.5892     -791.54211      426.01725      787.69277     -510.52435      62953.505      39.780781      39.780781      39.780781      1.0994383      7940.3956      8344.4318      8257.6822    
     87000   43500          628.93223      9982.5192      30974.399      21788.551      12033.876      9754.6756      5102.15        4794.5183     -784.22603      426.64633      856.911       -641.32401      63096.195      39.810814      39.810814      39.810814      1.0969519      9596.336       10456.084      9895.1378    
     88000   44000          630.14955      8088.7437      29380.58       21955.163      12057.168      9897.9948      5091.9077      4909.5543     -759.03743      420.54084      859.76049     -624.73108      62945.383      39.77907       39.77907       39.77907       1.0995801      7307.7795      7717.1906      9241.2609    
     89000   44500          636.09076      5549.535       27269.379      22166.256      12170.846      9995.4104      5156.0447      4880.057      -705.97547      422.71232      739.21718     -496.64533      63052.672      39.801658      39.801658      39.801658      1.0977091      4788.0856      7335.9102      4524.6092    
     90000   45000          633.92704      9490.4663      30632.457      21992.86       12129.446      9863.4147      5140.2044      4760.875      -781.89869      448.97673      786.63491     -491.37772      62420.9        39.668277      39.668277      39.668277      1.1088192      8557.4755      11015.006      8898.9171    
     91000   45500          625.64596      9106.0761      30268.295      21916.999      11970.997      9946.002       5131.733       4675.3893     -721.79028      436.31394      866.14879     -441.7928       62884.95       39.766336      39.766336      39.766336      1.1006368      9386.1965      7376.4908      10555.541    
     92000   46000          625.72107      8942.1148      30000.497      21874.496      11972.434      9902.0616      4968.0866      4861.7971     -685.92468      433.47765      820.81202     -496.18705      62310.429      39.644862      39.644862      39.644862      1.110785       8854.3012      8842.7415      9129.3018    
     93000   46500          635.65423      10685.322      31593.748      21854.589      12162.493      9692.0955      5208.0348      4728.3874     -863.60232      417.23361      745.63733     -543.59537      62496.823      39.684354      39.684354      39.684354      1.1074722      9935.7168      11814.45       10305.799    
     94000   47000          638.42652      10381.956      31615.86       22153.436      12215.538      9937.8977      5070.182       4877.5273     -804.63015      429.5331       862.32112     -497.03559      62495.297      39.684031      39.684031      39.684031      1.1074992      9868.3928      10676.617      10600.857    
     95000   47500          629.20448      11195.137      32371.021      22212.996      12039.085      10173.911      5201.6266      4820.5855     -852.3605       428.12845      924.87767     -348.94695      62216.274      39.624884      39.624884      39.624884      1.112466       9346.9413      12582.496      11655.973    
     96000   48000          629.59698      7166.6775      28305.896      21755.9        12046.595      9709.3053      4985.8006      4698.5837     -650.99444      434.13592      788.07792     -546.29837      62668.206      39.720596      39.720596      39.720596      1.1044435      6314.2751      7155.2914      8030.4662    
     97000   48500          638.21045      8386.9348      29519.409      21959.041      12211.404      9747.6373      4994.9386      4810.2774     -722.86786      418.69579      872.28287     -625.68948      61810.72       39.538598      39.538598      39.538598      1.1197652      6691.5182      8407.1116      10062.175    
     98000   49000          637.50962      8414.3798      29616.27       21989.696      12197.994      9791.7017      5163.7462      4807.4536     -727.54252      432.60035      733.14953     -617.70545      62148.619      39.610515      39.610515      39.610515      1.1136771      7929.9556      7523.7065      9789.4774    
     99000   49500          630.46889      10828.81       31714.819      21940.941      12063.278      9877.6626      5172.1235      4787.1824     -702.19196      433.75433      782.82372     -596.02941      61888.545      39.555185      39.555185      39.555185      1.1183571      7722.7591      13145.044      11618.628    
    100000   50000          621.59041      9767.3099      30584.476      21783.288      11893.399      9889.8892      5157.2122      4822.3285     -742.41513      419.14491      780.05552     -546.43682      61786.053      39.533338      39.533338      39.533338      1.1202122      9092.4805      9488.4149      10721.034    
    101000   50500          628.25463      8600.8534      29457.74       21667.032      12020.911      9646.1213      5072.4547      4733.584      -726.51187      425.93852      772.79095     -632.13506      62109.711      39.602248      39.602248      39.602248      1.1143747      9328.9803      8263.3799      8210.2001    
    102000   51000          631.38388      10830.83       31640.745      21949.805      12080.785      9869.0192      5209.678       4761.5229     -783.79255      430.76152      902.90355     -652.05429      61351.946      39.440533      39.440533      39.440533      1.1281385      8368.4246      12952.758      11171.306    
    103000   51500          635.77594      10741.431      31750.228      22077.173      12164.822      9912.3508      5259.6161      4743.9561     -726.35485      425.7198       812.11887     -602.70524      61748.389      39.525303      39.525303      39.525303      1.1208955      10904.316      10953.77       10366.206    
    104000   52000          636.15245      10539.585      31317.326      21871.323      12172.026      9699.2971      5207.3657      4665.9437     -767.15521      422.70276      808.76995     -638.32994      61453.792      39.462346      39.462346      39.462346      1.1262689      8228.0523      14399.376      8991.3259    
    105000   52500          624.08795      8353.7622      29450.022      21991.658      11941.186      10050.472      5250.2555      4746.4124     -682.64229      431.2936       871.14032     -565.98772      61218.911      39.412005      39.412005      39.412005      1.1305901      7349.0964      9699.799       8012.3913    
    106000   53000          632.90495      11277.316      31814.469      21698.245      12109.889      9588.3558      5155.5522      4593.9887     -817.5889       420.04141      848.96005     -612.59769      61508.739      39.474103      39.474103      39.474103      1.1252628      10652.269      13965.135      9214.5431    
    107000   53500          636.52765      12322.148      32858.265      21863.358      12179.205      9684.1532      5138.3234      4747.1134     -920.2776       417.08296      866.50039     -564.58946      61182.784      39.404251      39.404251      39.404251      1.1312577      10579.359      10554.169      15832.917    
    108000   54000          637.73489      10890.016      31793.46       22023.404      12202.304      9821.0997      5170.14        4785.9258     -761.8016       423.21365      823.71098     -620.08904      61516.641      39.475794      39.475794      39.475794      1.1251182      9096.6976      14926.128      8647.224     
    109000   54500          636.40564      11088.065      32157.405      22274.461      12176.871      10097.591      5266.0578      4717.9547     -777.14983      436.95783      918.06104     -464.29095      61115.962      39.389901      39.389901      39.389901      1.1324945      12357.262      11507.258      9399.6752    
    110000   55000          627.9847       13060.737      33572.468      21847.081      12015.746      9831.3355      5268.079       4832.2496     -883.75574      420.95437      841.49319     -647.68484      61557.871      39.484611      39.484611      39.484611      1.1243646      13146.823      13661.314      12374.073    
    111000   55500          618.22266      10622.556      31167.32       21733.767      11828.961      9904.8064      5046.5185      4702.8477     -794.03562      420.7107       828.22362     -299.45855      60893.418      39.342032      39.342032      39.342032      1.1366334      9723.7827      8257.9473      13885.938    
    112000   56000          633.59702      9408.1584      30245.387      21824.801      12123.131      9701.6696      5145.3094      4873.5974     -766.45818      426.22344      792.41155     -769.41395      61370.802      39.444574      39.444574      39.444574      1.1277919      9945.5704      8089.6256      10189.279    
    113000   56500          637.90088      13504.764      34056.228      22105.636      12205.48       9900.1559      5094.3003      4794.3233     -736.11803      419.95373      1023.3338     -695.63708      60677.341      39.295442      39.295442      39.295442      1.1406811      11288.335      14934.546      14291.409    
    114000   57000          629.45904      8917.8626      29915.296      21910.887      12043.956      9866.9314      5142.1711      4985.4774     -868.36696      405.67947      829.9506      -627.98023      61544.975      39.481853      39.481853      39.481853      1.1246002      7383.8497      10422.518      8947.2205    
    115000   57500          630.23824      12857.45       33204.53       21826.416      12058.865      9767.5511      5097.4899      4741.3955     -753.46726      432.56661      860.18583     -610.6195       60679.159      39.295835      39.295835      39.295835      1.1406469      11673.715      13383.769      13514.865    
    116000   58000          637.67292      10156.972      30758.998      21660.633      12201.119      9459.5142      5140.0464      4664.1498     -844.45046      418.564        788.21862     -707.01418      61421.9        39.455518      39.455518      39.455518      1.1268537      9131.9475      12722.622      8616.346     
    117000   58500          623.32246      13085.554      33376.581      21786.847      11926.54       9860.3077      5133.018       4735.13       -746.83085      419.99747      964.39455     -645.40138      60730.301      39.306871      39.306871      39.306871      1.1396863      13108.182      13701.995      12446.486    
    118000   59000          629.50159      11149.879      31923.284      21990.085      12044.77       9945.3155      5175.1346      4702.8298     -653.83526      423.22834      889.83318     -591.87524      61086.196      39.383505      39.383505      39.383505      1.1330464      8518.5202      12432.011      12499.106    
    119000   59500          625.45892      12483.254      32707.585      21728.721      11967.418      9761.3033      5094.3496      4818.1384     -829.16755      414.48701      877.7061      -614.21027      60305.052      39.214911      39.214911      39.214911      1.147723       10708.905      15056.365      11684.492    
    120000   60000          631.36971      11073.855      31525.231      21651.888      12080.514      9571.3739      5015.8782      4694.6578     -784.40628      422.28364      831.20891     -608.24841      61134.94       39.393977      39.393977      39.393977      1.132143       11560.787      10350.823      11309.956    
    121000   60500          633.35692      9532.9236      30312.196      21919.2        12118.537      9800.6627      5125.0543      4736.5787     -720.65169      433.25931      887.45261     -661.03049      60369.145      39.228799      39.228799      39.228799      1.1465044      9759.9562      9423.751       9415.0636    
    122000   61000          625.67346      10924.467      31729.077      22074.896      11971.523      10103.373      5230.9544      4861.8733     -756.8774       427.66306      873.3512      -533.59147      60595.346      39.277734      39.277734      39.277734      1.1422246      11232.051      10097.741      11443.61     
    123000   61500          629.51781      13283.507      33567.076      21873.576      12045.08       9828.4957      5133.9429      4735.6574     -812.55034      428.53925      990.896       -647.98954      60360.923      39.227018      39.227018      39.227018      1.1466606      13652.894      12482.236      13715.391    
    124000   62000          635.28267      11375.091      32119.879      22054.853      12155.384      9899.4688      5176.2676      4859.6107     -752.06447      421.32716      841.3963      -647.06855      60671.417      39.294163      39.294163      39.294163      1.1407924      7938.5535      11594.491      14592.229    
    125000   62500          637.23319      11564.474      32069.533      21874.036      12192.705      9681.3312      5077.0943      4739.6584     -802.11812      421.65956      904.40086     -659.36382      60451.435      39.246615      39.246615      39.246615      1.1449438      10823.857      10814.6        13054.964    
    126000   63000          643.21699      11963.634      32594.883      22011.671      12307.198      9704.4733      5088.519       4878.0729     -876.24777      416.73046      932.05192     -734.65317      60656.658      39.290977      39.290977      39.290977      1.14107        9861.3138      10800.288      15229.301    
    127000   63500          637.58111      14010.409      34327.178      22065.002      12199.362      9865.6398      5158.9746      4805.2549     -876.22144      406.41988      910.58127     -539.36947      60012.38       39.151369      39.151369      39.151369      1.1533202      11174.303      15842.809      15014.116    
    128000   64000          630.22546      12992.479      33121.856      21656.113      12058.62       9597.4931      5056.6969      4807.5026     -808.58792      420.9079       893.68114     -772.70758      60510.993      39.2595        39.2595        39.2595        1.1438168      12399.771      12809.859      13767.808    
    129000   64500          634.5793       14194.358      34218.756      21791.188      12141.926      9649.262       5105.8097      4686.8417     -831.25767      423.89158      936.61309     -672.63634      60033.613      39.155986      39.155986      39.155986      1.1529123      14328.816      12251.957      16002.302    
    130000   65000          628.81745      13910.034      34164.184      21957.389      12031.68       9925.7092      5196.964       4795.4935     -787.53893      426.42895      1042.1339     -747.77224      60172.435      39.186144      39.186144      39.186144      1.1502525      15441.075      14151.724      12137.302    
    131000   65500          630.60145      12339.97       33079.828      22232.342      12065.814      10166.527      5143.5587      4914.2343     -731.15296      442.94278      919.15981     -522.21513      60275.263      39.208453      39.208453      39.208453      1.1482902      12819.312      12178.964      12021.635    
    132000   66000          629.26131      12256.768      32492.579      21799.938      12040.172      9759.766       5153.6505      4759.3905     -724.16478      416.97626      869.97888     -716.06535      59818.17       39.10909       39.10909       39.10909       1.1570647      9926.7681      11451.519      15392.018    
    133000   66500          623.60741      13595.148      33860.816      21891.82       11931.992      9959.8281      5219.4758      4839.6896     -812.38386      424.01839      878.10831     -589.08018      60366.765      39.228283      39.228283      39.228283      1.1465496      12844.626      13028.55       14912.269    
    134000   67000          626.95946      13122.737      32969.756      21554.94       11996.129      9558.8106      4941.9837      4840.7292     -776.08993      427.07437      978.40635     -853.29314      59644.251      39.07115       39.07115       39.07115       1.1604386      13783.793      10530.995      15053.423    
    135000   67500          630.81131      13334.958      33495.945      21854.599      12069.83       9784.7692      5009.9799      4759.6569     -706.28941      424.80692      939.92383     -643.30897      59859.855      39.118172      39.118172      39.118172      1.156259       12420.508      13442.416      14141.95     
    136000   68000          641.10636      12319.625      32593.566      21848.499      12266.813      9581.6852      5192.6478      4750.6083     -865.90065      404.9731       897.97143     -798.6148       59804.764      39.106168      39.106168      39.106168      1.1573241      9365.0706      16039.144      11554.66     
    137000   68500          632.0175       13456.603      33595.005      21855.393      12092.909      9762.4843      5007.0385      4886.3452     -797.82932      422.52573      1019.3703     -774.96606      59819.448      39.109368      39.109368      39.109368      1.15704        13093.452      14440.572      12835.783    
    138000   69000          630.1301       15512.081      35328.165      21916.143      12056.796      9859.3475      5103.7073      4785.7106     -865.27898      409.82062      1077.8302     -652.44216      59285.47       38.99265       38.99265       38.99265       1.1674613      13334.466      16052.801      17148.978    
    139000   69500          619.27871      11067.482      31382.65       21671.815      11849.167      9822.6481      5283.0493      4781.5055     -815.43708      412.50606      904.5721      -743.5477       60163.328      39.184167      39.184167      39.184167      1.1504266      12790.259      11173.429      9238.7586    
    140000   70000          631.99239      15849.124      35956.316      22228.727      12092.428      10136.298      5126.9656      4871.2577     -762.11559      426.02901      1048.6421     -574.48037      59389.973      39.015548      39.015548      39.015548      1.165407       13703.938      16559.581      17283.852    
    141000   70500          644.80289      13870.715      34401.212      22370.583      12337.542      10033.041      5102.7607      4693.4407     -628.7356       433.99109      966.50113     -534.91693      59472.146      39.033534      39.033534      39.033534      1.1637968      14234.912      14163.794      13213.438    
    142000   71000          635.05624      13180.763      33313.313      21858.707      12151.052      9707.6554      5068.1723      4705.6157     -773.69242      404.68494      927.49933     -624.62447      59588.673      39.059011      39.059011      39.059011      1.161521       12803.504      12827.192      13911.595    
    143000   71500          640.38851      13820.187      34302.422      22249.211      12253.078      9996.1323      5197.7645      4830.6595     -877.64942      403.10298      972.47371     -530.21895      59801.625      39.105484      39.105484      39.105484      1.1573848      11676.248      15550.997      14233.315    
    144000   72000          640.98122      14596.258      34936.585      22353.874      12264.419      10089.455      5086.3732      4971.9299     -769.28331      422.32058      967.33546     -589.2211       59109.434      38.954019      38.954019      38.954019      1.1709382      14321.05       17377.725      12089.999    
    145000   72500          629.86201      13557.935      33692.039      21947.213      12051.666      9895.5471      5290.603       4749.0281     -830.32408      415.48417      1051.4801     -780.72416      59398.726      39.017464      39.017464      39.017464      1.1652353      14364.801      14331.008      11977.995    
    146000   73000          635.46368      15033.968      35131.77       22125.342      12158.847      9966.4944      5211.4742      4818.6891     -905.23195      411.24534      974.38438     -544.06669      59321.009      39.00044       39.00044       39.00044       1.1667619      13328.576      15728.187      16045.142    
    147000   73500          603.87775      16115.481      35141.167      21300          11554.488      9745.5122      5101.9094      4888.5225     -862.70809      400.41804      972.74954     -755.37914      58891.622      38.906112      38.906112      38.906112      1.1752689      13901.116      17808.895      16636.433    
    148000   74000          629.93798      13643.246      33718.2        21908.861      12053.12       9855.7409      5157.3715      4796.1464     -801.18379      427.28007      1025.8866     -749.75986      59351.544      39.007131      39.007131      39.007131      1.1661616      15481.323      11408.806      14039.608    
    149000   74500          632.05626      18039.534      37472.348      21966.147      12093.651      9872.4969      5127.2305      4829.4111     -857.4042       420.43054      1066.0228     -713.19393      58939.195      38.916586      38.916586      38.916586      1.1743203      18402.819      19717.431      15998.353    
    150000   75000          627.04362      13901.101      33773.86       21751.423      11997.74       9753.6831      5115.5334      4804.8697     -794.46227      445.18884      959.49669     -776.94313      59301.738      38.996216      38.996216      38.996216      1.1671411      12137.549      13328.04       16237.714    
    151000   75500          635.87638      16320.453      36046.16       22058.037      12166.744      9891.2931      5043.8512      4764.7256     -711.01874      434.4603       1067.4456     -708.17088      58769.41       38.879181      38.879181      38.879181      1.1777129      15791.041      19628.178      13542.14     
    152000   76000          632.37979      15291.822      35327.717      22188.958      12099.841      10089.117      5132.0174      4915.7246     -800.60746      419.87642      1068.3038     -646.19752      58914.095      38.911061      38.911061      38.911061      1.1748206      15320.092      17532.719      13022.655    
    153000   76500          637.16305      15253.168      35258.063      22158.619      12191.363      9967.256       5081.4017      4866.4696     -778.68458      421.05273      1051.6791     -674.66267      58886.66       38.90502       38.90502       38.90502       1.175368       18080.952      13275.131      14403.42     
    154000   77000          639.84235      13341.13       33958.574      22486.619      12242.628      10243.991      5105.5266      4842.3563     -730.6399       433.81869      997.43709     -404.50759      58961.555      38.921507      38.921507      38.921507      1.173875       12674.395      12761.893      14587.103    
    155000   77500          625.21769      16766.415      36475.223      22087.809      11962.803      10125.006      5203.8284      4764.6815     -854.17027      443.19606      1098.9014     -531.43083      58839.184      38.894562      38.894562      38.894562      1.1763163      16153.964      15284.556      18860.725    
    156000   78000          629.32797      14443.576      34387.972      21970.487      12041.448      9929.0386      5217.2857      4881.2465     -802.90459      394.89431      1002.6928     -764.17608      58949.895      38.918941      38.918941      38.918941      1.1741072      15095.425      15616.084      12619.22     
    157000   78500          637.76358      16119.508      36151.903      22300.845      12202.853      10097.992      5324.0264      4764.2182     -837.35822      419.76834      1060.3945     -633.05713      58918.983      38.912137      38.912137      38.912137      1.1747231      13933.217      16708.889      17716.419    
    158000   79000          643.28378      18259.393      37984.801      22272.309      12308.476      9963.8335      5057.2081      4894.3244     -812.681        430.19365      1138.0351     -743.24684      59004.188      38.930885      38.930885      38.930885      1.1730268      16689.925      21160.618      16927.637    
    159000   79500          635.14409      17478.641      36794.294      21887.191      12152.732      9734.4588      5170.3828      4798.708      -898.04144      415.59627      1148.443      -900.62975      58480.317      38.815326      38.815326      38.815326      1.1835348      17619.441      17987.292      16829.189    
    160000   80000          632.8892       14826.819      34598.038      21940.268      12109.588      9830.6799      5080.0369      4765.2037     -829.14766      421.30587      1112.9734     -719.69231      58537.389      38.827949      38.827949      38.827949      1.1823809      11638.455      17317.87       15524.132    
    161000   80500          624.01005      15150.262      34734.962      21855.238      11939.696      9915.5425      5085.782       4827.8095     -765.89135      426.23693      1125.6465     -784.04103      58292.212      38.773664      38.773664      38.773664      1.187354       14821.684      13663.014      16966.087    
    162000   81000          617.3282       16953.501      36320.626      21783.61       11811.846      9971.7639      5038.9061      4772.2107     -749.13998      443.24883      1088.6185     -622.08032      58794.946      38.884811      38.884811      38.884811      1.1772014      14410.973      18765.618      17683.91     
    163000   81500          622.38954      16835.072      36368.66       22084.127      11908.689      10175.437      5198.4636      4861.2397     -814.12086      408.45516      1116.7091     -595.30929      58180.2        38.748813      38.748813      38.748813      1.18964        18051.903      17677.821      14775.491    
    164000   82000          628.05889      17107.625      36684.931      22043.411      12017.166      10026.246      5030.1747      4736.4707     -641.96914      457.55681      1118.5867     -674.57389      58684.109      38.860362      38.860362      38.860362      1.1794248      15222.913      18409.036      17690.927    
    165000   82500          637.99321      17746.51       37512.433      22390.225      12207.247      10182.978      5238.7036      4862.8895     -725.67007      446.89458      1116.6892     -756.52915      58428.719      38.803907      38.803907      38.803907      1.18458        19794.743      16499.791      16944.996    
[...]
    449000   224500         643.03065      46561.801      59509.754      24487.072      12303.632      12183.44       5184.0495      4830.0637     -825.52304      450.53251      2800.6731     -256.35611      51575.535      37.223275      37.223275      37.223275      1.341983       45702.772      47469.157      46513.475    
    450000   225000         640.70444      44722.816      58100.609      24398.22       12259.123      12139.097      5215.8836      4884.741      -832.62601      437.47543      2767.1867     -333.56406      51672.046      37.246479      37.246479      37.246479      1.3394765      45519.386      44158.258      44490.804    
    451000   225500         635.90361      43814.124      57096.38       24039.971      12167.265      11872.706      4922.1972      4794.5728     -791.1482       442.70113      2714.6361     -210.25339      51732.76       37.261061      37.261061      37.261061      1.3379045      45014.765      42534.252      43893.356    
    452000   226000         624.69385      47056.286      59341.491      23794.308      11952.779      11841.529      4985.6834      4923.5999     -838.19561      440.06167      2786.0209     -455.64125      51797.84       37.276679      37.276679      37.276679      1.3362235      44155.235      47845.001      49168.623    
    453000   226500         629.81874      49023.737      61059.677      24154.334      12050.838      12103.496      5221.7819      4994.7262     -983.81325      439.41484      2816.9936     -385.60731      51618.686      37.233653      37.233653      37.233653      1.3408612      49321.783      50567.795      47181.634    
    454000   227000         629.31772      47933.386      60381.095      24417.497      12041.252      12376.246      5109.0533      5029.9289     -831.66526      469.41151      2883.0049     -283.48779      51445.707      37.192015      37.192015      37.192015      1.3453697      50556.034      44477.141      48766.983    
    455000   227500         637.13992      49386.829      61441.493      24528.962      12190.92       12338.042      5109.011       4954.5224     -852.02876      445.41695      3070.8862     -389.76618      51249.164      37.144592      37.144592      37.144592      1.3505292      49316.93       49923.052      48920.504    
    456000   228000         633.72113      43195.151      56606.421      24180.47       12125.506      12054.964      4989.1465      5085.196      -846.45461      439.50557      2811.3789     -423.808        51473.28       37.198659      37.198659      37.198659      1.344649       40495.887      44482.275      44607.29     
    457000   228500         622.50471      45487.182      58202.354      23888.024      11910.893      11977.131      5156.5968      4841.8985     -898.83672      436.69299      2735.7756     -294.99643      51726.205      37.259487      37.259487      37.259487      1.3380741      42815.76       46767.274      46878.511    
    458000   229000         618.84819      44411.126      57261.596      23782.98       11840.93       11942.05       5080.5018      4954.6058     -950.09914      415.61155      2695.5426     -254.11247      51689.201      37.2506        37.2506        37.2506        1.339032       40063.226      45536.624      47633.528    
    459000   229500         621.1376       47525.969      59850.481      24119.974      11884.735      12235.239      5066.6726      4847.3333     -872.19154      440.00257      2866.1392     -112.71712      51550.432      37.217235      37.217235      37.217235      1.3426365      47273.15       45605.309      49699.449    
    460000   230000         627.32594      45721.276      58535.962      24295.389      12003.141      12292.247      4957.5658      4848.074      -726.17186      446.07939      2941.9143     -175.21416      51350.751      37.169119      37.169119      37.169119      1.3478575      44486.215      48653.237      44024.377    
    461000   230500         624.54604      46301.207      59068.01       24241.759      11949.951      12291.808      5101.5534      4855.6588     -783.8174       446.10196      2852.1236     -179.81223      51574.915      37.223126      37.223126      37.223126      1.3419992      46978.649      46854.095      45070.878    
    462000   231000         638.21047      47524.008      60055.862      24257.333      12211.404      12045.929      5169.8921      4890.3149     -935.45816      437.03161      2815.1213     -330.97268      51650.702      37.241349      37.241349      37.241349      1.3400301      50215.181      47470.876      44885.966    
    463000   231500         638.9263       48287.538      60827.081      24564.782      12225.101      12339.682      5050.226       4861.9385     -890.73312      459.50585      2954.5712     -95.826982      51492.547      37.2033        37.2033        37.2033        1.3441458      48537.824      47791.394      48533.397    
    464000   232000         624.2348       47439.95       59768.484      24240.79       11943.996      12296.794      5076.5385      4904.2022     -813.33351      436.46388      2969.3731     -276.45051      51350.764      37.169122      37.169122      37.169122      1.3478571      48152.321      48883.964      45283.565    
    465000   232500         633.93191      47295.393      59906.217      24482.793      12129.539      12353.254      5180.515       4937.0167     -843.785        433.31998      2926.4027     -280.21562      51356.546      37.170517      37.170517      37.170517      1.3477054      45540.802      47737.334      48608.043    
    466000   233000         636.06155      48023.29       60272.964      24235.073      12170.287      12064.786      5091.6225      4760.3422     -754.54754      439.48385      2936.4012     -408.51631      51455.473      37.194369      37.194369      37.194369      1.3451143      47205.008      49339.354      47525.508    
    467000   233500         632.81477      45053.947      58117.705      24321.31       12108.164      12213.146      4998.8661      4980.3386     -713.04614      431.17477      2841.5108     -325.69828      51435.344      37.189518      37.189518      37.189518      1.3456407      45084.316      45243.733      44833.792    
    468000   234000         634.57926      44917.496      58005.972      24321.956      12141.925      12180.031      4912.5385      4877.3269     -682.68593      433.14935      2891.0731     -251.37134      51420.044      37.18583       37.18583       37.18583       1.3460411      42961.458      44436.759      47354.271    
    469000   234500         629.40347      44975.29       57708.466      23919.466      12042.893      11876.573      4955.4772      4848.7141     -907.37715      414.69232      2839.4941     -274.42758      51514.025      37.208471      37.208471      37.208471      1.3435854      45468.445      45578.139      43879.285    
    470000   235000         628.88765      45219.859      58042.191      24121.902      12033.023      12088.879      4923.9608      4858.7809     -802.47032      422.80981      2848.5674     -162.76989      51434.492      37.189313      37.189313      37.189313      1.345663       47237.442      41701.465      46720.67     
    471000   235500         634.00509      46642.505      59191.945      24298.513      12130.939      12167.574      5109.0192      4803.5484     -850.28859      429.17307      2939.7219     -263.60008      51296.287      37.155973      37.155973      37.155973      1.3492886      46600.231      47130.753      46196.53     
    472000   236000         636.51888      49444.071      61439.11       24429.969      12179.038      12250.932      5121.535       4921.7326     -859.21219      425.00059      2943.5655     -301.68994      51323.811      37.162618      37.162618      37.162618      1.348565       48426.629      48920.364      50985.22     
    473000   236500         631.91992      46591.587      59286.876      24440.925      12091.042      12349.883      5065.8044      4923.9818     -747.84138      459.38446      2958.9804     -310.42637      51282.468      37.152637      37.152637      37.152637      1.3496521      47575.849      47386.605      44812.308    
    474000   237000         645.95834      46683.961      59202.181      24340.545      12359.65       11980.895      4892.9759      4852.469      -806.02433      438.35874      2931.5255     -328.40996      51204.033      37.133686      37.133686      37.133686      1.3517196      44006.997      48032.314      48012.572    
    475000   237500         639.20869      49644.691      61737.231      24675.24       12230.504      12444.737      5141.0593      4997.9086     -786.35594      422.80421      2934.8593     -265.53873      51189.399      37.130148      37.130148      37.130148      1.352106       49374.062      49862.839      49697.173    
    476000   238000         629.21849      49067.207      61025.177      24255.599      12039.353      12216.246      5110.3689      4921.2556     -795.15367      442.93727      3004.1298     -467.29224      51383.233      37.176954      37.176954      37.176954      1.3470054      45621.307      49809.636      51770.679    
    477000   238500         634.09677      46924.824      59456.931      24237.006      12132.693      12104.313      5055.8591      4907.4852     -836.60942      432.40914      2909.8579     -364.68874      51464.751      37.196604      37.196604      37.196604      1.3448718      49310.768      46392.206      45071.499    
    478000   239000         639.85357      48972.295      60780.631      24211.284      12242.843      11968.441      4849.9687      4881.9453     -843.1241       437.46224      2979.8742     -337.68515      51202.463      37.133306      37.133306      37.133306      1.351761       50006.011      47971.197      48939.678    
    479000   239500         622.34116      51063.006      62377.237      24358.902      11907.764      12451.138      5154.6689      5048.7107     -923.29283      425.84069      3151.2753     -406.06472      51051.774      37.096843      37.096843      37.096843      1.355751       49648.913      54254.987      49285.116    
    480000   240000         628.42807      50280.929      61845.109      24350.191      12024.229      12325.961      5173.8754      4986.7581     -863.76224      450.47653      2993.0681     -414.45452      51132.053      37.116277      37.116277      37.116277      1.3536224      51437.001      48648.078      50757.709    
    481000   240500         633.85765      45061.264      58078.18       24352.743      12128.118      12224.625      5072.3485      4983.3945     -853.50439      424.58929      2872.4754     -274.67851      51319.016      37.16146       37.16146       37.16146       1.348691       44983.634      43449.099      46751.061    
    482000   241000         622.69898      49192.188      61018.878      24290.528      11914.61       12375.918      5238.2126      4849.7782     -895.8229       440.02335      2993.7536     -250.0266       51195.217      37.131554      37.131554      37.131554      1.3519523      48390.546      48860.322      50325.695    
    483000   241500         629.19186      50601.789      62010.582      24284.781      12038.844      12245.937      5068.3689      4924.1447     -906.96178      436.76339      3023.2817     -299.6598       51120.69       37.113528      37.113528      37.113528      1.3539233      49978.666      50055.534      51771.167    
    484000   242000         641.13475      49766.321      61923.545      24756.466      12267.357      12489.109      5128.1996      4951.7625     -901.7142       432.14099      3117.5173     -238.79687      51209.085      37.134907      37.134907      37.134907      1.3515862      49494.067      47067.526      52737.369    
    485000   242500         631.31436      47426.294      59955.53       24560.247      12079.455      12480.792      5127.0446      4927.3352     -735.16097      439.82583      3045.6946     -323.94729      51174.111      37.126451      37.126451      37.126451      1.3525099      45926.517      47068.935      49283.43     
    486000   243000         628.33408      49321.981      61009.227      24181.93       12022.431      12159.499      5045.0138      4991.4461     -931.44081      429.40753      3016.5966     -391.52467      51198.053      37.13224       37.13224       37.13224       1.3518774      51368.519      48627.153      47970.27     
    487000   243500         625.48732      49107.388      60799.275      24100.866      11967.962      12132.905      5056.1603      4842.5458     -903.53845      438.23228      3035.8318     -336.32716      51241.816      37.142817      37.142817      37.142817      1.3507229      45807.274      52046.463      49468.427    
    488000   244000         618.10519      50417.404      61517.788      24020.836      11826.713      12194.123      5118.8104      4855.839      -887.43477      477.15002      3076.2855     -446.52709      50996.408      37.083427      37.083427      37.083427      1.3572229      51477.361      51286.24       48488.613    
    489000   244500         636.33053      50122.996      61629.301      24267.647      12175.434      12092.213      5149.3992      4813.6721     -912.8997       427.58295      3087.3614     -472.90254      51110.859      37.111148      37.111148      37.111148      1.3541837      53498.98       47909.997      48960.012    
    490000   245000         632.34805      47558.134      59981.518      24494.033      12099.234      12394.799      5103.4821      4962.2744     -822.1871       447.42563      2960.8147     -257.01056      51165.183      37.124292      37.124292      37.124292      1.3527459      47521.095      46234.089      48919.218    
    491000   245500         627.52105      51747.076      62843.001      24341.241      12006.875      12334.367      5153.9889      4806.4479     -939.59804      428.41414      3148.0634     -262.94956      51017.464      37.08853       37.08853       37.08853       1.3566627      52134.647      53098.818      50007.764    
    492000   246000         632.22083      48568.996      60274.45       24022.903      12096.799      11926.103      4993.6044      4902.4984     -952.1225       426.63548      2959.9522     -404.46476      51178.969      37.127626      37.127626      37.127626      1.3523815      47985.798      49533.739      48187.451    
    493000   246500         631.08586      46510.155      59009.93       24185.348      12075.083      12110.265      5083.9954      4763.5204     -797.68637      437.85312      2951.8684     -329.28626      51340.754      37.166707      37.166707      37.166707      1.3481199      47810.004      45616.98       46103.481    
    494000   247000         622.70068      49910.67       61557.095      24285.858      11914.643      12371.215      5141.1885      4913.6272     -802.61473      447.92795      2990.7923     -319.70608      51204.075      37.133696      37.133696      37.133696      1.3517185      49314.191      49289.917      51127.901    
    495000   247500         617.96407      47657.96       59921.066      24574.2        11824.013      12750.187      5075.6737      4972.7174     -689.84679      459.5952       3210.9755     -278.92825      50855.694      37.049288      37.049288      37.049288      1.3609782      47470.802      48754.112      46748.965    
    496000   248000         632.47117      47564.23       59850.125      24491.425      12101.589      12389.835      4932.9739      5109.7792     -796.64162      449.14022      3087.5981     -393.01466      50972.969      37.077745      37.077745      37.077745      1.357847       47349.599      49867.317      45475.775    
    497000   248500         640.17913      49435.338      61599.004      24809.956      12249.072      12560.884      5052.9135      4931.5664     -791.93993      446.4045       3165.4747     -243.53513      51027.601      37.090987      37.090987      37.090987      1.3563932      50066.112      48426.596      49813.305    
    498000   249000         627.844        52336.702      63749.104      24865.701      12013.054      12852.647      5077.3772      4959.1927     -719.36462      467.50787      3222.4453     -154.51119      50942.708      37.070406      37.070406      37.070406      1.3586536      51674.444      55900.054      49435.607    
    499000   249500         633.45497      52258.373      63343.229      24544.098      12120.413      12423.685      5080.7162      4803.9804     -819.21777      451.19651      3213.6479     -306.63846      50908.491      37.062104      37.062104      37.062104      1.3595668      54288.973      49838.609      52647.537    
    500000   250000         627.93498      49858.081      61365.869      24297.984      12014.795      12283.189      5026.6847      4881.134      -817.6656       417.87988      3092.2967     -317.14042      50978.418      37.079066      37.079066      37.079066      1.3577019      50294.556      50732.826      48546.862    
Loop time of 491.818 on 1 procs for 500000 steps with 6420 atoms

Performance: 43.919 ns/day, 0.546 hours/ns, 1016.636 timesteps/s, 6.527 Matom-step/s
99.9% CPU use with 1 MPI tasks x 1 OpenMP threads

MPI task timing breakdown:
Section |  min time  |  avg time  |  max time  |%varavg| %total
---------------------------------------------------------------
Pair    | 107.89     | 107.89     | 107.89     |   0.0 | 21.94
Bond    | 144.27     | 144.27     | 144.27     |   0.0 | 29.33
Neigh   | 99.128     | 99.128     | 99.128     |   0.0 | 20.16
Comm    | 17.007     | 17.007     | 17.007     |   0.0 |  3.46
Output  | 3.1294     | 3.1294     | 3.1294     |   0.0 |  0.64
Modify  | 102.5      | 102.5      | 102.5      |   0.0 | 20.84
Other   |            | 17.9       |            |       |  3.64

Nlocal:           6420 ave        6420 max        6420 min
Histogram: 1 0 0 0 0 0 0 0 0 0
Nghost:          20902 ave       20902 max       20902 min
Histogram: 1 0 0 0 0 0 0 0 0 0
Neighs:              0 ave           0 max           0 min
Histogram: 1 0 0 0 0 0 0 0 0 0
FullNghs:  5.10714e+06 ave 5.10714e+06 max 5.10714e+06 min
Histogram: 1 0 0 0 0 0 0 0 0 0

Total # of neighbors = 5107138
Ave neighs/atom = 795.50436
Ave special neighs/atom = 5.8598131
Neighbor list builds = 16754
Dangerous builds = 0

unfix npt_comp

undump dump_comp

write_dump all custom npt_compress_last.dump id type mol x y z xu yu zu vx vy vz modify sort id
write_data /home/alexzhao/PolyJarvis/data/PS2/lammps/equil/npt_compress/npt_compress_out.data
System init for write_data ...
Generated 6 of 6 mixed pair_coeff terms from sixthpower/sixthpower mixing rule

print "STAGE COMPLETE: NPT compression P=1.0->50000.0atm density target reached"
STAGE COMPLETE: NPT compression P=1.0->50000.0atm density target reached
quit
.128     | 99.128     | 99.128     |   0.0 | 20.16
Comm    | 17.007     | 17.007     | 17.007     |   0.0 |  3.46
Output  | 3.1294     | 3.1294     | 3.1294     |   0.0 |  0.64
Modify  | 102.5      | 102.5      | 102.5      |   0.0 | 20.84
Other   |            | 17.9       |            |       |  3.64

Nlocal:           6420 ave        6420 max        6420 min
Histogram: 1 0 0 0 0 0 0 0 0 0
Nghost:          20902 ave       20902 max       20902 min
Histogram: 1 0 0 0 0 0 0 0 0 0
Neighs:              0 ave           0 max           0 min
Histogram: 1 0 0 0 0 0 0 0 0 0
FullNghs:  5.10714e+06 ave 5.10714e+06 max 5.10714e+06 min
Histogram: 1 0 0 0 0 0 0 0 0 0

Total # of neighbors = 5107138
Ave neighs/atom = 795.50436
Ave special neighs/atom = 5.8598131
Neighbor list builds = 16754
Dangerous builds = 0
System init for write_data ...
Generated 6 of 6 mixed pair_coeff terms from sixthpower/sixthpower mixing rule
STAGE COMPLETE: NPT compression P=1.0->50000.0atm density target reached
