LAMMPS data file via write_data, version 22 Jul 2025, timestep = 1000000, units = real

8720 atoms
7 atom types
9480 bonds
7 bond types
15104 angles
9 angle types
22512 dihedrals
13 dihedral types
4864 impropers
5 improper types

4.010758269356156 53.04477028064905 xlo xhi
4.010758269356156 53.04477028064905 ylo yhi
4.010758269356156 53.04477028064905 zlo zhi

Masses

1 12.01115
2 12.01115
3 1.00797
4 1.00797
5 15.9994
6 15.9994
7 15.9994

Pair Coeffs # lj/class2/coul/long/kk

1 0.12 3.308
2 0.064 4.01
3 0.02 2.995
4 0.013 1.098
5 0.267 3.3
6 0.24 3.535
7 0.24 3.535

Bond Coeffs # class2/kk

1 1.489 339.357 -655.724 670.236
2 1.216 823.795 -1878.79 2303.53
3 1.417 470.836 -627.618 1327.63
4 1.0982 372.825 -803.453 894.317
5 1.3768 428.88 -738.235 1114.97
6 1.3768 428.88 -738.235 1114.97
7 0.965 532.506 -1282.9 2004.77

Angle Coeffs # class2/kk

1 108.4 43.9594 -8.3924 -9.3379
2 110.588 34.6214 -7.0939 -7.4032
3 119.3 65.1016 -17.9766 0
4 118.9 61.0226 -34.9931 0
5 117.94 35.1558 -12.4682 0
6 123.42 73.6781 -21.6787 0
7 123.42 73.6781 -21.6787 0
8 109.5 60 0 0
9 108.19 53.125 -8.5016 0

BondBond Coeffs

1 0 1.489 1.417
2 0 1.489 1.489
3 0 1.489 1.216
4 68.2856 1.417 1.417
5 1.0795 1.417 1.0982
6 48.4754 1.417 1.3768
7 48.4754 1.417 1.3768
8 0 1.3768 1.3768
9 20.6577 1.3768 0.965

BondAngle Coeffs

1 0 0 1.489 1.417
2 0 0 1.489 1.489
3 0 0 1.489 1.216
4 28.8708 28.8708 1.417 1.417
5 20.0033 24.2183 1.417 1.0982
6 58.479 107.681 1.417 1.3768
7 58.479 107.681 1.417 1.3768
8 0 0 1.3768 1.3768
9 53.8614 23.9224 1.3768 0.965

Dihedral Coeffs # class2/kk

1 0 0 4.6282 0 0 0
2 0 0 2.167 0 0 0
3 0 0 2.5 0 0 0
4 0 0 0.9063 0 0 0
5 8.3667 0 1.1932 0 0 0
6 0 0 3.9661 0 0 0
7 0 0 4.8498 0 0 0
8 0 0 4.8498 0 0 0
9 0 0 1.8 0 0 0
10 -0.69 0 0.5097 0 0.0095 0
11 0 0 1.8769 0 0 0
12 0 0 1.7234 0 0 0
13 0 0 1.7234 0 0 0

AngleAngleTorsion Coeffs

1 0 108.4 118.9
2 0 108.4 117.94
3 0 110.588 108.4
4 0 108.4 119.3
5 0 118.9 118.9
6 -4.8141 118.9 117.94
7 -21.0247 118.9 123.42
8 -21.0247 118.9 123.42
9 0 123.42 109.5
10 -4.6072 123.42 108.19
11 0.3598 117.94 117.94
12 4.2296 117.94 123.42
13 4.2296 117.94 123.42

EndBondTorsion Coeffs

1 0 0 0 0 0 0 1.489 1.417
2 0 0 0 0 0 0 1.489 1.0982
3 0 0 0 0 0 0 1.489 1.417
4 0 0 0 0 0 0 1.417 1.216
5 -0.1185 6.3204 0 -0.1185 6.3204 0 1.417 1.417
6 0 -6.8958 0 0 -0.4669 0 1.417 1.0982
7 0 0.2655 0 0 4.8905 0 1.417 1.3768
8 0 0.2655 0 0 4.8905 0 1.417 1.3768
9 0 0 0 0 0 0 1.417 1.3768
10 0.9 -1.3456 1.19 3.4132 0.5873 -0.1323 1.417 0.965
11 0 -0.689 0 0 -0.689 0 1.0982 1.0982
12 0 -1.5867 0 0 4.2641 0 1.0982 1.3768
13 0 -1.5867 0 0 4.2641 0 1.0982 1.3768

MiddleBondTorsion Coeffs

1 0 0 0 1.417
2 0 0 0 1.417
3 0 0 0 1.489
4 0 0 0 1.489
5 27.5989 -2.312 0 1.417
6 0 -1.1521 0 1.417
7 0 4.8255 0 1.417
8 0 4.8255 0 1.417
9 0 0 0 1.3768
10 1.158 3.2697 3.5132 1.3768
11 0 4.8228 0 1.417
12 0 5.5432 0 1.417
13 0 5.5432 0 1.417

BondBond13 Coeffs

1 0 1.489 1.417
2 0 1.489 1.0982
3 0 1.489 1.417
4 0 1.417 1.216
5 53 1.417 1.417
6 -6.2741 1.417 1.0982
7 -2.2436 1.417 1.3768
8 -2.2436 1.417 1.3768
9 0 1.417 1.3768
10 1.159 1.417 0.965
11 -1.7077 1.0982 1.0982
12 2.0517 1.0982 1.3768
13 2.0517 1.0982 1.3768

AngleTorsion Coeffs

1 0 0 0 0 0 0 108.4 118.9
2 0 0 0 0 0 0 108.4 117.94
3 0 0 0 0 0 0 110.588 108.4
4 0 0 0 0 0 0 108.4 119.3
5 1.9767 1.0239 0 1.9767 1.0239 0 118.9 118.9
6 0 2.5014 0 0 2.7147 0 118.9 117.94
7 0 10.0155 0 0 1.7404 0 118.9 123.42
8 0 10.0155 0 0 1.7404 0 118.9 123.42
9 0 0 0 0 0 0 123.42 109.5
10 -5.136 -1.0122 0 4.6852 0.023 -0.598 123.42 108.19
11 0 2.4501 0 0 2.4501 0 117.94 117.94
12 0 1.8729 0 0 2.5706 0 117.94 123.42
13 0 1.8729 0 0 2.5706 0 117.94 123.42

Improper Coeffs # class2/kk

1 38.7949 0
2 0 0
3 4.8912 0
4 13.0421 0
5 13.0421 0

AngleAngle Coeffs

1 0 0 0 110.588 119.3 119.3
2 0 0 0 108.4 108.4 118.9
3 0 0 0 118.9 117.94 117.94
4 0 0 0 118.9 123.42 123.42
5 0 0 0 118.9 123.42 123.42

Atoms # full/kk

7586 7 3 0.1268 6.9400798365942284 9.157202661106446 4.570004179465178 2 0 2
7946 8 2 -0.1268 5.537802955795367 8.585184769800254 9.29672200947518 0 1 1
7945 8 2 0.0265 6.868334551241896 8.916708942039964 9.89860931840505 0 1 1
7952 8 5 -0.3964 5.243979187315522 5.784242967993414 6.37549814088696 0 1 1
7965 8 2 -0.1268 7.9739622596164335 8.154367420376069 9.424129967037226 0 1 1
7966 8 3 0.1268 8.996328497107386 7.957899282119037 9.927073322277442 0 1 1
7948 8 2 -0.1268 5.435500467825156 7.7209083796144355 8.22559823432879 0 1 1
7950 8 2 0 6.535771279065182 6.911722453672203 7.835207776025372 0 1 1
7951 8 1 0.3964 6.400217453847402 5.824357626473886 6.832901841160371 0 1 1
7953 8 2 0 7.554156494656837 4.984924413760547 6.332440668236882 0 1 1
7961 8 2 -0.1268 8.596919371132163 4.602470604479778 7.288443708803727 0 1 1
7962 8 3 0.1268 8.703936091310155 4.775963176996287 8.271626502168568 0 1 1
7954 8 2 -0.1268 7.636046594194823 4.63163436181257 5.021552451320054 0 1 1
7963 8 2 -0.1268 7.742870044360856 7.192418024097911 8.43131119933267 0 1 1
7964 8 3 0.1268 8.599526805455652 6.875277591763339 8.00627650374144 0 1 1
7949 8 3 0.1268 4.418756417368529 7.697144241785411 7.531713327911096 0 1 1
7576 7 5 -0.3964 8.638213043386763 7.252205738379265 4.084610715518548 2 0 2
5733 6 3 0.1268 5.74721870744728 51.15700315752653 6.311870110218162 1 0 0
3255 3 3 0.1268 12.096263051573315 5.054025646466036 6.849211013543559 0 -1 0
3254 3 2 -0.1268 12.71285689638613 6.03597085198872 6.726519500677087 0 -1 0
3256 3 2 -0.1268 13.984174595252219 6.1220850231050274 6.170854363850686 0 -1 0
3248 3 2 0 12.749980472525724 10.883498104266199 7.142940837749052 0 -1 0
3251 3 2 0 12.821606310157925 8.413112044889122 7.140930274488922 0 -1 0
3259 3 2 -0.1268 14.13703586360392 8.45167085393071 6.633457969985058 0 -1 0
3260 3 3 0.1268 14.655157136973267 9.423219324526295 6.47698951153213 0 -1 0
3249 3 1 0.3964 12.246107867570194 9.631176711311607 7.842878972019933 0 -1 0
3252 3 2 -0.1268 12.103977123389036 7.188436707653953 7.223546592577773 0 -1 0
3253 3 3 0.1268 11.152663219065717 7.245951255604138 7.84620863842002 0 -1 0
3250 3 5 -0.3964 11.38707472556029 9.748965669936137 8.686165460493315 0 -1 0
4118 4 3 0.1268 14.779412770763782 6.85435628965614 8.63158258720608 1 1 0
3247 3 3 0.1268 11.526687701288349 10.470188529991312 5.453079661607294 0 -1 0
4117 4 2 -0.1268 15.794169773036067 6.4340406737895695 8.971363894632983 1 1 0
3257 3 2 -0.1268 14.644074556267187 7.27941054877064 6.152880218554478 0 -1 0
3258 3 3 0.1268 15.643066544145208 7.404439213992431 5.772218630632408 0 -1 0
4093 4 2 0.0265 16.5682130740878 7.255923184257548 9.778402071004159 1 1 0
7377 7 3 0.1268 17.647763741935613 4.701099482286526 52.74087321858126 2 0 0
4120 4 3 0.1268 15.77178101713094 4.562286036726179 7.845822908282913 1 1 0
7770 8 3 0.1268 20.21729163586351 9.89915877677745 10.45800943497175 0 1 1
7396 7 3 0.1268 23.418694335106387 4.654485928491208 7.567158928110809 2 0 1
7398 7 6 -0.053 24.124124405951516 7.392956046539776 7.766675716767373 2 0 1
7423 7 2 -0.1268 21.303736703985546 7.071264511031549 5.375416271989593 2 0 1
7421 7 2 -0.1268 22.336726249900465 7.581764148475613 6.219618106964739 2 0 1
7392 7 2 0.0265 21.042420327561036 5.6697189281112355 5.285982680547094 2 0 1
7397 7 2 0.0265 23.1436461886218 6.757521431564172 7.002643247440131 2 0 1
7393 7 2 -0.1268 21.813448430066828 4.921990742454636 6.140227229290422 2 0 1
7391 7 6 -0.053 19.961833569855337 5.104189540337458 4.565088113426534 2 0 1
7378 7 2 0.0265 19.54505690453626 5.643760615360461 52.42260223287534 2 0 0
7376 7 2 -0.1268 18.149890796925433 5.481668772788104 52.109110196946524 2 0 0
7395 7 2 -0.1268 22.888069191121065 5.344567530722424 6.904384718010779 2 0 1
7424 7 3 0.1268 20.644904591280156 7.837423551270435 4.855451599497106 2 0 1
7422 7 3 0.1268 22.716276077001453 8.628773985545173 6.162294119503045 2 0 1
7014 7 3 0.1268 22.332102871962398 10.073925178821707 52.32776119014054 1 1 0
4089 4 2 -0.1268 18.494572839119655 5.790908657163571 9.516627525687255 1 1 0
4119 4 2 -0.1268 16.370589668951254 5.257741653100768 8.516452025644892 1 1 0
4088 4 2 0.0265 17.614651500246055 4.858049581103515 8.872905355948998 1 1 0
7013 7 2 -0.1268 22.860325260971955 9.783941290609807 51.478749531141496 1 1 0
7399 7 2 0.0265 23.945643787406468 7.291978007490777 9.147134052124844 2 0 1
3521 4 3 0.1268 27.42801637244568 11.984200060668119 7.578384714269509 0 0 0
3518 4 2 -0.1268 27.856251942242526 10.989759255314915 9.553083191470417 0 0 0
7401 7 3 0.1268 25.878569906225167 7.031682566268566 9.444707876598695 2 0 1
3517 4 2 0.0265 27.376013954719326 10.374962828417235 10.711008991524611 0 0 0
6993 7 3 0.1268 23.265603307338495 6.201633298813029 52.93369982739342 1 1 0
6992 7 2 -0.1268 24.367549850651713 6.145457823819274 52.75326505416872 1 1 0
7400 7 2 -0.1268 24.998918433438728 6.978019312195464 9.974437702433983 2 0 1
3519 4 3 0.1268 28.85103474506916 11.406285800992075 9.813812147587699 0 0 0
2064 2 2 0.0265 28.34182914940768 6.24475964145142 8.046581790916457 0 1 0
2066 2 3 0.1268 28.211952933155313 7.418579084219168 6.237619256403234 0 1 0
2065 2 2 -0.1268 28.578789514923756 7.375898530287142 7.26302215194055 0 1 0
6996 7 2 0 26.47109616268981 4.985541279028115 52.81708147354692 1 1 0
6989 7 2 0.0265 23.961794131592026 8.964263238928364 51.460597439077034 1 1 0
6991 7 2 0.0265 25.056875692289978 7.404051143113465 52.75760978694399 1 1 0
7011 7 2 -0.1268 26.43363997181447 7.348983185937177 4.01400520054956 1 1 1
6990 7 6 -0.053 24.422176265418358 8.66299261145684 52.71552312367884 1 1 0
7009 7 2 -0.1268 27.123983939938828 6.192492017260806 52.83319364524838 1 1 0
7012 7 3 0.1268 27.041769731886845 8.30605418768825 4.11936675400935 1 1 1
2070 2 3 0.1268 32.641633087726476 6.890433105513553 9.32438638846932 0 1 0
1762 2 3 0.1268 32.815070706520615 6.481483634188338 4.038849732587978 0 1 0
1752 2 5 -0.3964 32.173722602715316 4.657940941846665 5.628852472988907 0 1 0
2056 2 2 0 32.269149151147886 8.919555426294208 10.01210823250715 0 1 0
2058 2 5 -0.3964 31.25993661097216 10.17924604080267 8.61829903000782 0 1 0
2068 2 3 0.1268 30.188700805945135 8.85935372322838 6.662792196016018 0 1 0
2067 2 2 -0.1268 29.64278085480069 8.208990420698111 7.509535043951375 0 1 0
2060 2 2 -0.1268 29.830577047531268 7.339576468312471 9.691017815674847 0 1 0
2059 2 2 0 30.307331177491385 8.089194301239054 8.698276262755474 0 1 0
2057 2 1 0.3964 31.26147349446652 9.080048153339325 9.0278199448054 0 1 0
2062 2 2 -0.1268 28.86248416368022 6.343613018327941 9.354629066566611 0 1 0
1750 2 2 0 33.73190196307929 4.245343211239699 7.186276049895336 0 1 0
1751 2 1 0.3964 33.08870372218518 5.129466098165622 6.253098057264867 0 1 0
1760 2 3 0.1268 33.20718790297494 8.879158684203459 52.52034581475756 0 1 -1
1761 2 2 -0.1268 33.18872711329584 7.130970648322029 4.87413008434573 0 1 0
1753 2 2 0 33.64761202176499 6.586602528147907 6.057362328846695 0 1 0
1758 2 2 0.0265 34.25699131521576 9.245136444176271 5.252209253407764 0 1 0
1754 2 2 -0.1268 34.502633474627594 7.418246174140023 6.752090258512001 0 1 0
1759 2 2 -0.1268 33.54156728672642 8.374405857576484 4.382716360801182 0 1 0
3119 3 3 0.1268 41.06939856566838 51.890119166438836 7.8564540183223865 -1 -2 0
3114 3 5 -0.3964 38.906358234385394 6.924109635788594 8.6068653204688 -1 -1 0
3117 3 3 0.1268 40.76906847144332 4.978824934388846 8.7657146997773 -1 -1 0
3113 3 1 0.3964 39.74769814115257 7.160311106126002 7.6937516501419285 -1 -1 0
1755 2 3 0.1268 35.08000174205718 7.063735136408205 7.535876206875779 0 1 0
3118 3 2 -0.1268 40.8285480363901 52.702660109630315 7.130291241202833 -1 -2 0
1764 2 3 0.1268 35.139146765937 52.8153619184701 5.63557376299582 0 0 0
3116 3 2 -0.1268 40.59736637629386 5.009050126518222 7.648421603961715 -1 -1 0
1763 2 2 -0.1268 34.97288870817535 52.70745020805214 6.77867490948522 0 0 0
1757 2 3 0.1268 35.534938914639746 9.398508057322 7.141601006162545 0 1 0
3133 3 6 -0.053 40.924221321310284 51.29634367550612 5.143547857573418 -1 -2 0
3115 3 2 0 40.176684402115114 6.067169470741286 6.805592793137407 -1 -1 0
7090 7 3 0.1268 36.31601029490264 52.327576634042 52.89966174053766 1 0 0
1756 2 2 -0.1268 34.80866125140086 8.78248336195114 6.48142683972925 0 1 0
3112 3 2 0 39.98274882263502 8.648865110792094 7.481577375538741 -1 -1 0
3123 3 2 -0.1268 40.14289145517684 5.86868090115441 5.409764462424618 -1 -1 0
3124 3 3 0.1268 39.90835073064183 6.717730908684306 4.6291930446042935 -1 -1 0
3120 3 2 0.0265 40.783251137327596 52.59245063962611 5.68945319122158 -1 -2 0
3121 3 2 -0.1268 40.596064338813264 4.629284483615953 4.905950669282459 -1 -1 0
3110 3 2 -0.1268 41.28382231213433 9.017151833563371 7.023694119304035 -1 -1 0
3122 3 3 0.1268 40.79307507185854 4.422778150331312 52.890148835152836 -1 -1 -1
5226 5 5 -0.3964 43.97735129680592 8.277060781626176 4.609755285512554 -1 1 0
5234 5 3 0.1268 46.73493633933646 9.358067308952837 9.635093519165801 -1 1 0
3136 3 3 0.1268 43.4523419536206 52.67872064124049 6.037963370387087 -1 -2 0
5245 5 6 -0.053 45.71355078857776 7.133243724232331 10.576972961570876 -1 1 0
5723 6 6 -0.053 48.3292621705326 5.326668313336293 52.939538684378476 0 1 -1
5233 5 2 -0.1268 46.29009306541775 8.7963853250019 8.816177078096192 -1 1 0
5228 5 2 -0.1268 44.71429640679743 7.275579962239762 7.118889013913209 -1 1 0
5229 5 3 0.1268 44.01513534632842 6.712512102347994 6.487479074668347 -1 1 0
5231 5 3 0.1268 44.15270485395567 5.9835326310581465 8.591287508712206 -1 1 0
5235 5 2 -0.1268 46.16105299514557 9.215041261070468 7.508319680669841 -1 1 0
5232 5 2 0.0265 45.59027125467131 7.541767574362122 9.288185093086556 -1 1 0
5225 5 1 0.3964 44.83190657357825 8.817066845288938 5.235398749976717 -1 1 0
5230 5 2 -0.1268 44.868701903362535 6.808851730888149 8.350153221541772 -1 1 0
3111 3 3 0.1268 42.021240672986295 8.372015552347914 6.560523668810197 -1 -1 0
5227 5 2 0 45.32509264958718 8.48970974871608 6.608547354471018 -1 1 0
5755 6 2 -0.1268 50.15387143179329 4.605725770700873 5.192498249806468 0 1 0
5729 6 2 0.0265 52.014915467234786 52.43388457847098 4.2073663454564825 0 0 0
3370 4 3 0.1268 51.620446751487776 8.54964463824475 5.922738708527586 -1 0 0
3369 4 2 -0.1268 51.919471487456775 9.074015057872018 5.096406307511076 -1 0 0
3200 3 3 0.1268 50.33262165238838 6.895091228795296 7.985876189096347 -1 -1 0
3199 3 2 -0.1268 50.2814681395533 7.614283335347591 8.817901141072278 -1 -1 0
3197 3 2 -0.1268 49.747904046534515 8.867920062506334 8.56018987672508 -1 -1 0
3152 3 2 -0.1268 49.89077103788226 4.514708190364203 9.288978722133676 -1 -1 0
3153 3 3 0.1268 49.065795808276704 5.248450406348042 9.349732443969081 -1 -1 0
3173 3 2 0.0265 49.30611489931812 9.670597560185033 9.673042161791354 -1 -1 0
5756 6 3 0.1268 49.834797106433186 5.3522731829420795 5.869283459901056 0 1 0
5223 5 3 0.1268 47.77460275398791 9.472312835623187 5.0913619779725 -1 1 0
5730 6 6 -0.053 4.287108911482736 51.835334847468786 4.334368997440926 1 0 0
5754 6 3 0.1268 51.89930779249369 53.04067491399431 6.23946267165168 0 0 0
5753 6 2 -0.1268 51.41360207017456 4.0581499025969725 5.322950727021066 0 1 0
3198 3 3 0.1268 49.237612676801604 9.11310322662699 7.55486228500151 -1 -1 0
5724 6 2 0.0265 49.54831365866977 4.621833232526514 52.97788334096629 0 1 -1
3348 4 2 -0.1268 4.9716451524100655 12.502164695985265 7.622802699446316 0 0 0
3352 4 2 0 52.62594027836684 14.202930155261875 8.806211187176102 -1 0 0
3349 4 3 0.1268 5.688630048138487 11.683291009247554 7.725929765071105 0 0 0
3350 4 2 -0.1268 4.777728992053621 13.654869561907043 8.39085577597878 0 0 0
3353 4 1 0.3964 52.543791760398264 15.163343815602717 10.116385341358638 -1 0 0
3447 4 2 0.0265 8.85668611138428 16.498040964187503 9.556361563890084 0 0 0
3351 4 3 0.1268 5.739910806880388 13.883946498256593 8.792827090208842 0 0 0
3471 4 2 -0.1268 8.261141638767665 15.540796821717644 8.636648985401226 0 0 0
3472 4 3 0.1268 8.89167460226819 14.650845847297912 8.281889923864693 0 0 0
7584 7 3 0.1268 6.436990937214171 11.62452652141287 4.751904072363924 2 0 2
7968 8 3 0.1268 8.370753208192845 11.68551505658045 9.47749901478998 0 1 1
3448 4 6 -0.053 9.987044126255686 16.08768321631242 10.132312037962093 0 0 0
3263 3 2 -0.1268 14.130649292826696 12.773321244311663 7.0722864162050705 0 -1 0
3240 3 3 0.1268 12.6094235861201 15.292001850347416 6.876778768122595 0 -1 0
3243 3 2 0.0265 13.582049639741902 13.003377648798775 5.753304264932229 0 -1 0
3262 3 3 0.1268 13.945278427811079 11.740606429859078 8.757238296094537 0 -1 0
3239 3 2 -0.1268 13.099144996146077 15.832943875607796 5.904236408218229 0 -1 0
3246 3 2 -0.1268 12.374167308421033 11.037914527964297 5.823576079552369 0 -1 0
3241 3 2 0.0265 13.906057517594125 15.234920656083784 4.894740466773224 0 -1 0
3242 3 6 -0.053 14.287097578756072 13.904430394315087 4.900478475083425 0 -1 0
3264 3 3 0.1268 14.982005858465095 13.350614745123279 7.426353212091262 0 -1 0
3265 3 2 -0.1268 14.311779031897808 16.12756871209273 52.87176579834515 0 -1 -1
3244 3 2 -0.1268 12.673508746016319 12.191466790308127 5.1371829589731295 0 -1 0
3261 3 2 -0.1268 13.630525501209997 11.729698646803904 7.781772519317097 0 -1 0
5988 6 3 0.1268 14.191602538810278 15.371651183843666 8.973333962616417 0 0 1
5987 6 2 -0.1268 15.115265457290013 15.69655098693476 9.454232712473377 0 0 1
3451 4 3 0.1268 11.031415762894227 15.476626946784442 12.374161610187892 0 0 0
3449 4 2 0.0265 10.936536246887538 16.820006836975217 10.76400873546226 0 0 0
3450 4 2 -0.1268 11.49937103936405 16.331704777672265 11.898696256850362 0 0 0
5976 6 5 -0.3964 13.739190922653027 13.52490530170285 10.898534466092666 0 0 1
7970 8 3 0.1268 10.696912577714706 12.607099295275518 10.580028259662276 0 1 1
7753 8 3 0.1268 21.783788431054294 11.313682892468439 5.870753008803062 0 1 1
7754 8 2 0.0265 19.897684864992065 11.811097457725932 6.919326901145165 0 1 1
7769 8 2 -0.1268 20.689187857581697 10.83788978332715 10.467835993340547 0 1 1
7768 8 2 0.0265 20.67302181682935 11.622725734605794 9.290715397554088 0 1 1
7799 8 2 -0.1268 21.17543905408737 12.890246758962915 9.367066725582122 0 1 1
7767 8 6 -0.053 20.036113407634407 11.048232414535295 8.108815835953113 0 1 1
7752 8 2 -0.1268 20.740171978087904 11.698727625676263 5.8302620589331005 0 1 1
7756 8 3 0.1268 18.11899151631099 12.607250224154987 7.661999022644775 0 1 1
7755 8 2 -0.1268 18.728988453426997 12.681064294083866 6.854862701830474 0 1 1
7800 8 3 0.1268 20.916672357265547 13.53750311121761 8.442559113257794 0 1 1
7797 8 2 -0.1268 21.69762995548232 13.378434174548854 10.540459978151905 0 1 1
7798 8 3 0.1268 21.8376793049447 14.430076685540325 10.751468787919405 0 1 1
3527 4 3 0.1268 23.056819911247093 13.70328986378854 6.880285259597346 0 0 0
7757 8 2 -0.1268 18.49229949814974 13.542258555423647 5.78055425632226 0 1 1
7758 8 3 0.1268 17.692689772010606 14.332153998814945 6.033314674342461 0 1 1
7749 8 2 0 19.39194276564091 13.418987166596457 4.77700178967876 0 1 1
5989 6 2 -0.1268 15.792140312087614 16.82062740306513 9.039417354803819 0 0 1
7750 8 2 -0.1268 20.319111850531645 12.451960377860258 4.6724089891895755 0 1 1
3524 4 5 -0.3964 23.620303724633484 11.052131834196846 7.53993258818582 0 0 0
5974 6 2 0 15.675941655458553 14.781223324505135 10.444419719628863 0 0 1
3534 4 3 0.1268 26.40839474770033 11.542808903825241 5.550918126196195 0 0 0
3522 4 2 0 25.63927162963698 11.355275777249712 8.618317877683605 0 0 0
3533 4 2 -0.1268 25.777343758168268 12.364460372758597 5.296918536668926 0 0 0
3520 4 2 -0.1268 27.014667676206027 11.396298842099759 8.432620773547177 0 0 0
4977 5 2 -0.1268 26.502486982008836 15.256829507280326 9.407419288154662 0 1 0
4979 5 2 0.0265 25.9622005995192 16.311164449495095 8.648778641068377 0 1 0
3523 4 1 0.3964 24.66426871070271 11.741326987356812 7.586218233083729 0 0 0
4981 5 2 0.0265 24.752069785015685 16.879706853005928 6.593447748215482 0 1 0
4980 5 6 -0.053 25.86077177291909 16.341710467563 7.306119956743035 0 1 0
3535 4 2 -0.1268 25.248249974793726 10.640908748691592 9.781264749971827 0 0 0
3525 4 2 0 24.801694740157885 12.678296529600122 6.321102316186159 0 0 0
4982 5 2 -0.1268 24.9084329658544 17.59673092481517 5.441975451245199 0 1 0
3526 4 2 -0.1268 23.77054258008091 13.64660701579481 6.0367934588490115 0 0 0
3536 4 3 0.1268 24.2489161293293 10.136276040695055 9.58210735735327 0 0 0
4978 5 3 0.1268 27.038716496522646 14.447957854925415 8.873719422899383 0 1 0
4983 5 3 0.1268 25.877808513882524 17.71963573868588 4.967866595533667 0 1 0
4483 5 3 0.1268 29.18738329362146 14.237002211126644 9.44262443919881 0 1 0
4486 5 3 0.1268 33.428237602051254 14.869372474987024 8.856327879310385 0 1 0
4530 5 3 0.1268 29.642661051200847 15.460446854292732 5.538683070329986 0 1 0
4482 5 2 -0.1268 30.25534763680321 14.334912006131955 9.778382463351448 0 1 0
6503 6 2 -0.1268 32.857882091946976 16.668802731910553 4.535477875181906 -1 0 2
4527 5 2 -0.1268 29.378616947643913 13.487133840275341 4.62090078364187 0 1 0
4529 5 2 -0.1268 29.718266407655452 14.398465386139435 5.559902509571642 0 1 0
4503 5 2 0.0265 29.553518414562934 12.110074505882638 4.820177861243434 0 1 0
4497 5 6 -0.053 30.93919094026106 14.945951578163703 7.500800200452085 0 1 0
4501 5 2 -0.1268 30.41367986674278 11.877423821519356 5.870286806047854 0 1 0
4484 5 2 0.0265 31.289577029071427 14.690645281512799 8.878494571759163 0 1 0
4498 5 2 0.0265 30.53773830767325 14.010925148302647 6.642009905945343 0 1 0
4502 5 3 0.1268 30.578235491409355 10.755214919936435 5.797482451157931 0 1 0
4499 5 2 -0.1268 30.85723530100322 12.707844599007608 6.786601122468714 0 1 0
4500 5 3 0.1268 31.25577780477943 12.432602846842029 7.766764333730186 0 1 0
4485 5 2 -0.1268 32.54357695099894 14.695476818637871 9.399579556702083 0 1 0
1776 2 3 0.1268 35.24683134551533 12.740493352882552 8.545214735945624 0 1 0
1774 2 3 0.1268 33.7553958520078 11.30333599507956 7.03939631598791 0 1 0
1773 2 2 -0.1268 34.650433046088686 11.837837730667129 6.76715210226644 0 1 0
1437 2 2 0.0265 39.373996440835725 13.696273270568094 51.82340314855834 0 0 -1
1435 2 2 -0.1268 40.50411208737806 12.790056990052925 51.92617923617761 0 0 -1
3125 3 2 -0.1268 39.205967178440915 9.567788342341476 8.182270916722837 -1 -1 0
3127 3 2 -0.1268 39.329748262859894 10.853149878227573 7.692134946489979 -1 -1 0
1799 2 2 -0.1268 38.40661144322324 15.981969204084647 8.759244389921244 0 1 0
3128 3 3 0.1268 38.526826638098925 11.690508417535456 7.761564865732045 -1 -1 0
6473 6 2 -0.1268 35.02046013703109 16.787405679092185 5.464842472145516 -1 0 2
3126 3 3 0.1268 38.22414929975953 9.4477211884447 8.667983404443094 -1 -1 0
1460 2 3 0.1268 38.85130913451377 16.695280927091407 5.319542507049989 0 0 0
1772 2 2 0.0265 35.2202067929225 11.402181352583607 5.568096515665265 0 1 0
1771 2 6 -0.053 34.628565057137564 10.477529959096305 4.708778368008469 0 1 0
1775 2 2 -0.1268 35.496345564759395 12.758421922467162 7.450054874700345 0 1 0
1804 2 3 0.1268 37.19116235991267 11.487351151077936 4.384742014390717 0 1 0
3107 3 2 0.0265 40.50777433748611 11.331290140797362 7.072766286044889 -1 -1 0
1802 2 3 0.1268 38.0225168292707 13.439462392986453 5.540126543327537 0 1 0
1801 2 2 -0.1268 37.03956056726649 12.957310324945647 5.848843096825393 0 1 0
1803 2 2 -0.1268 36.4954447944891 11.802058284269991 5.184891411581121 0 1 0
1778 2 6 -0.053 36.858930160791104 14.775925568845308 7.470025197219048 0 1 0
1777 2 2 0.0265 36.541192263537454 13.547918608772154 6.998853638092043 0 1 0
1436 2 3 0.1268 41.33111465171153 13.040884789342611 52.63023202069921 0 0 -1
1439 2 2 0.0265 40.248086975378826 15.635757765646622 4.029658556296062 0 0 0
1459 2 2 -0.1268 39.84659679034374 16.717254066410234 4.844082908891946 0 0 0
1438 2 6 -0.053 39.280052547469424 14.753452216377859 52.74002070328703 0 0 -1
5222 5 2 -0.1268 47.17426802557752 9.97822811353026 4.3387396891159185 -1 1 0
3129 3 2 -0.1268 42.024986402656566 14.650438209289893 6.916383679750485 -1 -1 0
1440 2 2 -0.1268 41.55560825913851 15.722428502084874 52.54857184236281 0 0 -1
1444 2 2 0 42.006006314572346 17.904425756676666 4.340336592113482 0 0 0
3132 3 3 0.1268 43.61943095989706 16.254709247372688 6.788258124223196 -1 -1 0
1442 2 2 -0.1268 42.429394913972274 16.82254427256062 52.582693712222294 0 0 -1
5236 5 3 0.1268 46.74144763884142 10.14342402165283 7.262140768454899 -1 1 0
5238 5 3 0.1268 44.05025060574637 10.584759534145618 52.367621187249334 -1 1 -1
3099 3 6 -0.053 45.276984915222684 15.488657854838708 8.578511969968783 -1 -1 0
3101 3 2 -0.1268 43.898545910445435 13.487172480508752 8.664953711204893 -1 -1 0
3108 3 2 -0.1268 41.55427066616154 10.39257773380633 6.902665338844402 -1 -1 0
3106 3 6 -0.053 40.69839650195058 12.674858172342622 6.8873221358649195 -1 -1 0
3109 3 3 0.1268 42.45030535882536 10.443716626342596 6.1964706660812645 -1 -1 0
3130 3 3 0.1268 41.24178540407826 15.047567092331661 6.246783036613149 -1 -1 0
5224 5 2 0 45.77224425480506 9.839825730220353 4.4101544287396415 -1 1 0
5237 5 2 -0.1268 45.13916528678726 10.543238239779079 52.35492414585002 -1 1 -1
3100 3 2 0.0265 44.1421902669191 14.777165050827877 8.191984508778004 -1 -1 0
3131 3 2 -0.1268 43.23305097294566 15.253606863922656 7.217068015934022 -1 -1 0
3105 3 2 0.0265 41.73475461317318 13.373708445772372 7.49992833867734 -1 -1 0
5239 5 2 -0.1268 45.796381925402116 11.47097903818414 51.51758695342971 -1 1 -1
5220 5 2 -0.1268 47.84787115171359 10.828180123524428 52.594850420581054 -1 1 -1
3084 3 2 -0.1268 47.229075459451266 14.96722085512677 7.123821335810866 -1 -1 0
3365 4 2 -0.1268 51.512727885450715 13.857829833271916 7.90652455630977 -1 0 0
3366 4 3 0.1268 50.53079407454899 14.434775919014472 8.003952955427117 -1 0 0
3346 4 6 -0.053 52.997202964529905 10.724880380521558 6.444209641464 -1 0 0
3367 4 2 -0.1268 51.587103988666826 12.774733085852192 7.053182223357164 -1 0 0
3368 4 3 0.1268 50.651022778770326 12.281142766491824 6.641093456416581 -1 0 0
3345 4 2 0.0265 52.5429055648022 10.346947778713826 5.295228332538156 -1 0 0
3347 4 2 0.0265 52.823898855505746 12.046123457085601 7.030964949221784 -1 0 0
3083 3 3 0.1268 48.6313677566401 14.739583743035569 5.57248887259754 -1 -1 0
3077 3 3 0.1268 49.43477769308542 15.171845844801805 52.67963797579158 -1 -1 -1
3354 4 5 -0.3964 51.59911635621903 15.960965859587812 10.264282461599421 -1 0 0
3082 3 2 -0.1268 48.14259554877631 15.46304835771895 6.131888012776808 -1 -1 0
3343 4 2 -0.1268 52.542855479459504 11.092350023359579 4.128656255113211 -1 0 0
3174 3 6 -0.053 48.67063258907761 10.868634694558661 9.344209437514088 -1 -1 0
3177 3 3 0.1268 47.01898206942141 12.67689261300315 9.383444534527019 -1 -1 0
3344 4 3 0.1268 4.086669109829948 12.03521754723292 4.2536051563641015 0 0 0
5219 5 2 0.0265 47.21124384550258 11.480235791494604 51.58455408996806 -1 1 -1
5221 5 3 0.1268 48.920976445122974 11.100242927011685 52.716831720840915 -1 1 -1
3085 3 3 0.1268 46.93141010862608 13.923069202316244 7.149663013292442 -1 -1 0
3086 3 2 0.0265 46.212224406063484 15.933529930452483 7.6287359074133025 -1 -1 0
3427 4 3 0.1268 5.773197133254472 19.908264920642864 6.440795046747013 0 0 0
3441 4 6 -0.053 5.39959390825893 17.45743794706222 7.2626969141546365 0 0 0
3215 3 1 0.3964 8.334393872914617 21.42448393875522 7.057065262837068 0 -1 0
3214 3 2 0 8.212149453488474 21.394187074155347 8.52930884821925 0 -1 0
3216 3 5 -0.3964 7.451464044893033 21.711340235156367 6.261763303898449 0 -1 0
3474 4 3 0.1268 6.753894774136404 15.268450180790522 7.093015571662381 0 0 0
3473 4 2 -0.1268 7.076159551454264 15.88941875807086 8.005504943479044 0 0 0
3426 4 2 -0.1268 4.760495821009435 19.676360807196843 6.938937526819139 0 0 0
3428 4 2 0.0265 4.607506536073801 18.477122679684477 7.54621451422448 0 0 0
3227 3 2 -0.1268 6.9610308010514 21.80414808506155 9.089949192374544 0 -1 0
3226 3 3 0.1268 8.848209835179494 19.243496301948653 5.258055872203759 0 -1 0
3442 4 2 0.0265 6.398091338965028 17.056771410239477 8.118325707439858 0 0 0
3443 4 2 -0.1268 6.953078980281292 17.924819499432303 9.077471289272552 0 0 0
3444 4 3 0.1268 6.316660067095155 18.734713170906737 9.293661164111604 0 0 0
3212 3 2 -0.1268 9.047444953581785 20.797114031378907 9.533386785827028 0 -1 0
3470 4 3 0.1268 11.723407480327136 18.098713133378496 9.011604098310965 0 0 0
3445 4 2 -0.1268 8.131461417963141 17.690025818559686 9.720505725690753 0 0 0
3217 3 2 0 9.569541942415647 20.868239041361004 6.627715612518935 0 -1 0
3225 3 2 -0.1268 9.668212077254989 19.764963928232355 5.654591406445427 0 -1 0
3213 3 3 0.1268 10.012852287286913 20.32743065007886 9.239895597252072 0 -1 0
3228 3 3 0.1268 6.118890008148856 21.95066831502338 8.416134303870049 0 -1 0
3229 3 2 -0.1268 6.634733352060945 21.770557001995726 10.462137971470616 0 -1 0
3446 4 3 0.1268 8.602030837891965 18.44698254844588 10.470254624419765 0 0 0
3267 3 2 -0.1268 14.184125404061263 17.59477312939796 52.954391174927764 0 -1 -1
3237 3 2 -0.1268 13.175860883717268 17.257247467104214 6.01333760103179 0 -1 0
3238 3 3 0.1268 12.471461336033306 17.667984506449933 6.791827675288503 0 -1 0
3268 3 3 0.1268 14.504416299135487 18.30533431788102 52.137776227107004 0 -1 -1
3224 3 3 0.1268 11.097405461118033 18.412085382550444 4.723329888137816 0 -1 0
3236 3 2 0.0265 13.57736923477709 18.127961859939738 4.983331661974895 0 -1 0
3218 3 2 -0.1268 10.77440762673659 21.48558093369892 7.040519979075266 0 -1 0
3223 3 2 -0.1268 11.004258568645739 19.299707878101167 5.37844321644727 0 -1 0
3220 3 2 -0.1268 12.071123684588283 21.081491737801265 6.710938607005054 0 -1 0
3219 3 3 0.1268 10.783366936155065 22.19368160972121 7.837131082794404 0 -1 0
3222 3 2 0.0265 12.18310063556458 19.95013108253886 5.7458905439697965 0 -1 0
3235 3 6 -0.053 13.474516712273532 19.42813221755288 5.3253176383136935 0 -1 0
3221 3 3 0.1268 12.996330253731081 21.633563168077103 7.064432004102776 0 -1 0
3468 4 3 0.1268 12.70695557311687 19.70601861931627 10.390982426599207 0 0 0
3469 4 2 -0.1268 11.673379741712683 17.898199747168825 10.123278048467412 0 0 0
3467 4 2 -0.1268 12.495045963909568 18.75562292912491 10.849239154168524 0 0 0