units real
atom_style full
boundary p p p

# --- Force Field Styles ---
pair_style lj/class2/coul/long 9.5 9.5
kspace_style pppm 1e-6
dielectric 1.000000
bond_style class2
angle_style class2
dihedral_style class2
improper_style class2
special_bonds lj/coul 0 0 1
pair_modify mix sixthpower tail yes
neighbor 2.0 bin
neigh_modify delay 0 every 1 check yes
neigh_modify one 4000
package gpu 1 neigh no

read_data /home/alexzhao/PolyJarvis/data/PROPSULFIDE_STOCK/lammps/equil/npt_cool/npt_cool_out.data
Reading data file ...
  orthogonal box = (0.56739897 0.56739897 0.56739897) to (29.579085 29.579085 29.579085)
  2 by 2 by 2 MPI processor grid
  reading atoms ...
  2020 atoms
  reading velocities ...
  2020 velocities
  scanning bonds ...
  4 = max bonds/atom
  scanning angles ...
  6 = max angles/atom
  scanning dihedrals ...
  11 = max dihedrals/atom
  scanning impropers ...
  4 = max impropers/atom
  orthogonal box = (0.56739897 0.56739897 0.56739897) to (29.579085 29.579085 29.579085)
  2 by 2 by 2 MPI processor grid
  reading bonds ...
  2010 bonds
  reading angles ...
  3800 angles
  reading dihedrals ...
  4770 dihedrals
  reading impropers ...
  2400 impropers
Finding 1-2 1-3 1-4 neighbors ...
  special bond factors lj:    0        0        1       
  special bond factors coul:  0        0        1       
     4 = max # of 1-2 neighbors
     7 = max # of 1-3 neighbors
    11 = max # of special neighbors
  special bonds CPU = 0.000 seconds
  read_data CPU = 0.053 seconds
include /home/alexzhao/PolyJarvis/data/PROPSULFIDE_STOCK/lammps/build/emc_build.params
# LAMMPS parameters created by EMC v9.4.4, build Jul 31 2025 20:33:44

# Variables

variable	seed		index	1001
variable	ntotal		index	2020
variable	fshape		index	1
variable	output		index	emc_build
variable	field		index	pcff/pcff
variable	location1	index	~/emc/field/
variable	nav		index	0.6022141179
variable	temperature	index	300
variable	radius		index	5
variable	nrelax		index	100
variable	weight_nonbond	index	0.0001
variable	weight_bond	index	0.0001
variable	weight_focus	index	1
variable	cutoff		index	9.5
variable	charge_cutoff	index	9.5
variable	kappa		index	4
variable	density1	index	0.9
variable	lprevious	index	0
variable	lphase		index	30.146484098
variable	f_poly		index	10
variable	chem_repeat	index	*CC(C)S*
variable	chem_cap	index	*[H]
variable	lg_repeat	index	10
variable	lg_cap		index	1
variable	norm_poly	index	100
variable	l_poly		index	202
variable	mg_repeat	index	30.07012
variable	mg_cap		index	0
variable	m_poly		index	601.4024
variable	n_poly		index	10
variable	mtotal		index	14849.2134
variable	nphase1		index	2020
variable	mphase1		index	14849.2134
variable	vphase1		index	27397.441391
variable	lbox		index	30.146484098
variable	lphase1		index	30.146484098
variable	lxx		index	30.146484098
variable	lyy		index	30.146484098
variable	lzz		index	30.146484098
variable	lzy		index	0
variable	lzx		index	0
variable	lyx		index	0
variable	vtotal		index	27397.441391
variable	nl_poly		index	10

# Types

variable	type_c		index	1
variable	type_c1		index	2
variable	type_hc		index	3
variable	type_hs		index	4
variable	type_s		index	5
variable	type_sc		index	6

variable	type_bond_c_c1	index	1
variable	type_bond_c_hc	index	2
variable	type_bond_c_sc	index	3
variable	type_bond_c1_hc	index	4
variable	type_bond_c1_s	index	5
variable	type_bond_c1_sc	index	6
variable	type_bond_hs_s	index	7

variable	type_angle_c_c1_c index	1
variable	type_angle_c_c1_hc index	2
variable	type_angle_c_c1_s index	3
variable	type_angle_c_c1_sc index	4
variable	type_angle_c_sc_c1 index	5
variable	type_angle_c1_c_hc index	6
variable	type_angle_c1_c_sc index	7
variable	type_angle_c1_s_hs index	8
variable	type_angle_hc_c_hc index	9
variable	type_angle_hc_c_sc index	10
variable	type_angle_hc_c1_s index	11
variable	type_angle_hc_c1_sc index	12

# Clusters

variable	n0_poly		index	1
variable	n1_poly		index	10
variable	nl_poly		index	10

# Flags

variable	flag_charged	index	1

# Masses

mass		1    12.01115  # c
mass		2    12.01115  # c1
mass		3     1.00797  # hc
mass		4     1.00797  # hs
mass		5    32.06400  # s
mass		6    32.06400  # sc

# Potentials

pair_modify	mix sixthpower tail yes
special_bonds	lj/coul 0 0 1

# Pair Coeffs

pair_coeff	 1  1    0.05400    4.01000  # c,c
pair_coeff	 2  2    0.05400    4.01000  # c1,c1
pair_coeff	 3  3    0.02000    2.99500  # hc,hc
pair_coeff	 4  4    0.02000    2.99500  # hs,hs
pair_coeff	 5  5    0.07100    4.02700  # s,s
pair_coeff	 6  6    0.07100    4.02700  # sc,sc

# Bond Coeffs

bond_coeff	1    1.53000  299.67000 -501.77000  679.81000  # c,c1
bond_coeff	2    1.10100  345.00000 -691.89000  844.60000  # c,hc
bond_coeff	3    1.82300  225.27680 -327.70570  488.97220  # c,sc
bond_coeff	4    1.10100  345.00000 -691.89000  844.60000  # c1,hc
bond_coeff	5    1.82300  225.27680 -327.70570  488.97220  # c1,s
bond_coeff	6    1.82300  225.27680 -327.70570  488.97220  # c1,sc
bond_coeff	7    1.32610  275.11230 -531.31810  562.96300  # hs,s

# Angle Coeffs

angle_coeff	 1  112.67000   39.51600   -7.44300   -9.55830  # c,c1,c
angle_coeff	 2  110.77000   41.45300  -10.60400    5.12900  # c,c1,hc
angle_coeff	 3  112.56420   47.02760  -10.67900  -10.16870  # c,c1,s
angle_coeff	 4  112.56420   47.02760  -10.67900  -10.16870  # c,c1,sc
angle_coeff	 5   97.50000   57.69380   -5.05590  -11.82060  # c,sc,c1
angle_coeff	 6  110.77000   41.45300  -10.60400    5.12900  # c1,c,hc
angle_coeff	 7  112.56420   47.02760  -10.67900  -10.16870  # c1,c,sc
angle_coeff	 8   96.84790   56.73360   14.27130    0.00000  # c1,s,hs
angle_coeff	 9  107.66000   39.64100  -12.92100   -2.43180  # hc,c,hc
angle_coeff	10  107.85220   51.49490  -13.52700    7.02600  # hc,c,sc
angle_coeff	11  107.85220   51.49490  -13.52700    7.02600  # hc,c1,s
angle_coeff	12  107.85220   51.49490  -13.52700    7.02600  # hc,c1,sc

# BondBond Coeffs

angle_coeff	 1 bb    0.00000    1.53000    1.53000  # c,c1,c
angle_coeff	 2 bb    3.38720    1.53000    1.10100  # c,c1,hc
angle_coeff	 3 bb   10.91860    1.53000    1.82300  # c,c1,s
angle_coeff	 4 bb   10.91860    1.53000    1.82300  # c,c1,sc
angle_coeff	 5 bb  -22.31440    1.82300    1.82300  # c,sc,c1
angle_coeff	 6 bb    3.38720    1.53000    1.10100  # c1,c,hc
angle_coeff	 7 bb   10.91860    1.53000    1.82300  # c1,c,sc
angle_coeff	 8 bb   -0.57000    1.82300    1.32610  # c1,s,hs
angle_coeff	 9 bb    5.33160    1.10100    1.10100  # hc,c,hc
angle_coeff	10 bb    7.04630    1.10100    1.82300  # hc,c,sc
angle_coeff	11 bb    7.04630    1.10100    1.82300  # hc,c1,s
angle_coeff	12 bb    7.04630    1.10100    1.82300  # hc,c1,sc

# BondAngle Coeffs

angle_coeff	 1 ba    8.01600    8.01600    1.53000    1.53000  # c,c1,c
angle_coeff	 2 ba   20.75400   11.42100    1.53000    1.10100  # c,c1,hc
angle_coeff	 3 ba   -3.56210   22.38650    1.53000    1.82300  # c,c1,s
angle_coeff	 4 ba   -3.56210   22.38650    1.53000    1.82300  # c,c1,sc
angle_coeff	 5 ba  -13.00150  -13.00150    1.82300    1.82300  # c,sc,c1
angle_coeff	 6 ba   20.75400   11.42100    1.53000    1.10100  # c1,c,hc
angle_coeff	 7 ba   -3.56210   22.38650    1.53000    1.82300  # c1,c,sc
angle_coeff	 8 ba   10.73250    5.12210    1.82300    1.32610  # c1,s,hs
angle_coeff	 9 ba   18.10300   18.10300    1.10100    1.10100  # hc,c,hc
angle_coeff	10 ba    9.32250   44.98740    1.10100    1.82300  # hc,c,sc
angle_coeff	11 ba    9.32250   44.98740    1.10100    1.82300  # hc,c1,s
angle_coeff	12 ba    9.32250   44.98740    1.10100    1.82300  # hc,c1,sc

# Dihedral Coeffs

dihedral_coeff	 1    0.00000    0.00000    0.03160    0.00000   -0.16810    0.00000  # c,c1,c,hc
dihedral_coeff	 2   -0.70170    0.00000    0.02010    0.00000    0.10400    0.00000  # c,c1,c,sc
dihedral_coeff	 3   -0.48710    0.00000   -0.45140    0.00000   -0.14280    0.00000  # c,c1,s,hs
dihedral_coeff	 4   -0.50730    0.00000    0.01550    0.00000   -0.06710    0.00000  # c,c1,sc,c
dihedral_coeff	 5   -0.33380    0.00000   -0.06840    0.00000   -0.17060    0.00000  # c,sc,c1,hc
dihedral_coeff	 6   -0.50730    0.00000    0.01550    0.00000   -0.06710    0.00000  # c1,c,sc,c1
dihedral_coeff	 7   -0.33380    0.00000   -0.06840    0.00000   -0.17060    0.00000  # c1,sc,c,hc
dihedral_coeff	 8   -0.14320    0.00000    0.06170    0.00000   -0.10830    0.00000  # hc,c,c1,hc
dihedral_coeff	 9   -0.20780    0.00000   -0.10600    0.00000   -0.35950    0.00000  # hc,c,c1,s
dihedral_coeff	10   -0.20780    0.00000   -0.10600    0.00000   -0.35950    0.00000  # hc,c,c1,sc
dihedral_coeff	11   -0.20780    0.00000   -0.10600    0.00000   -0.35950    0.00000  # hc,c1,c,sc
dihedral_coeff	12   -0.53740    0.00000   -0.50910    0.00000   -0.13610    0.00000  # hc,c1,s,hs
dihedral_coeff	13   -1.20020    0.00000   -1.29990    0.00000   -0.16260    0.00000  # s,c1,c,sc
dihedral_coeff	14   -1.20020    0.00000   -1.29990    0.00000   -0.16260    0.00000  # sc,c,c1,sc

# MiddleBondTorsion Coeffs

dihedral_coeff	 1 mbt  -14.87900   -3.65810   -0.31380    1.53000  # c,c1,c,hc
dihedral_coeff	 2 mbt   -4.25930   -5.64680   -3.38350    1.53000  # c,c1,c,sc
dihedral_coeff	 3 mbt    0.50200   -1.02040   -0.91770    1.82300  # c,c1,s,hs
dihedral_coeff	 4 mbt   -2.51720   -2.01070   -2.85470    1.82300  # c,c1,sc,c
dihedral_coeff	 5 mbt   -0.69550   -2.94270   -1.23720    1.82300  # c,sc,c1,hc
dihedral_coeff	 6 mbt   -2.51720   -2.01070   -2.85470    1.82300  # c1,c,sc,c1
dihedral_coeff	 7 mbt   -0.69550   -2.94270   -1.23720    1.82300  # c1,sc,c,hc
dihedral_coeff	 8 mbt  -14.26100   -0.53220   -0.48640    1.53000  # hc,c,c1,hc
dihedral_coeff	 9 mbt   -5.75370   -2.01040    0.28130    1.53000  # hc,c,c1,s
dihedral_coeff	10 mbt   -5.75370   -2.01040    0.28130    1.53000  # hc,c,c1,sc
dihedral_coeff	11 mbt   -5.75370   -2.01040    0.28130    1.53000  # hc,c1,c,sc
dihedral_coeff	12 mbt   -0.37290    0.53730   -0.70350    1.82300  # hc,c1,s,hs
dihedral_coeff	13 mbt    1.70010   -3.34790   -0.80670    1.53000  # s,c1,c,sc
dihedral_coeff	14 mbt    1.70010   -3.34790   -0.80670    1.53000  # sc,c,c1,sc

# EndBondTorsion Coeffs

dihedral_coeff	 1 ebt    0.24860    0.24220   -0.09250    0.08140    0.05910    0.22190    1.53000    1.10100  # c,c1,c,hc
dihedral_coeff	 2 ebt   -0.15860   -0.72440   -0.26080   -0.79910   -0.95900    0.58550    1.53000    1.82300  # c,c1,c,sc
dihedral_coeff	 3 ebt    0.10260    0.09360   -0.04040   -0.30080    0.06060    0.45010    1.53000    1.32610  # c,c1,s,hs
dihedral_coeff	 4 ebt   -0.25420   -0.79840   -0.65250   -0.30470   -0.01090   -0.37630    1.53000    1.82300  # c,c1,sc,c
dihedral_coeff	 5 ebt    0.25920   -0.01660    0.13060   -0.41000    0.06680    0.41870    1.82300    1.10100  # c,sc,c1,hc
dihedral_coeff	 6 ebt   -0.25420   -0.79840   -0.65250   -0.30470   -0.01090   -0.37630    1.53000    1.82300  # c1,c,sc,c1
dihedral_coeff	 7 ebt    0.25920   -0.01660    0.13060   -0.41000    0.06680    0.41870    1.82300    1.10100  # c1,sc,c,hc
dihedral_coeff	 8 ebt    0.21300    0.31200    0.07770    0.21300    0.31200    0.07770    1.10100    1.10100  # hc,c,c1,hc
dihedral_coeff	 9 ebt   -0.15260   -0.37100    0.10480    1.06610    0.32980    0.42500    1.10100    1.82300  # hc,c,c1,s
dihedral_coeff	10 ebt   -0.15260   -0.37100    0.10480    1.06610    0.32980    0.42500    1.10100    1.82300  # hc,c,c1,sc
dihedral_coeff	11 ebt   -0.15260   -0.37100    0.10480    1.06610    0.32980    0.42500    1.10100    1.82300  # hc,c1,c,sc
dihedral_coeff	12 ebt    0.43760    0.20010   -1.06960    0.29020    0.06950    0.17260    1.10100    1.32610  # hc,c1,s,hs
dihedral_coeff	13 ebt   -0.32520    0.50080    0.51910   -0.32520    0.50080    0.51910    1.82300    1.82300  # s,c1,c,sc
dihedral_coeff	14 ebt   -0.32520    0.50080    0.51910   -0.32520    0.50080    0.51910    1.82300    1.82300  # sc,c,c1,sc

# AngleTorsion Coeffs

dihedral_coeff	 1 at   -0.24540    0.00000   -0.11360    0.31130    0.45160   -0.19880  112.67000  110.77000  # c,c1,c,hc
dihedral_coeff	 2 at   -2.09270   -0.14980   -1.78480    1.11790    0.36380    0.94230  112.67000  112.56420  # c,c1,c,sc
dihedral_coeff	 3 at   -0.60450    3.89410    0.88850    1.01930   -0.60160    0.20970  112.56420   96.84790  # c,c1,s,hs
dihedral_coeff	 4 at    5.12890    2.09270   -2.40040   -4.54890    0.08860    0.62370  112.56420   97.50000  # c,c1,sc,c
dihedral_coeff	 5 at   -1.08880   -0.20000   -0.09090    0.59620    3.34790    0.22650   97.50000  107.85220  # c,sc,c1,hc
dihedral_coeff	 6 at    5.12890    2.09270   -2.40040   -4.54890    0.08860    0.62370  112.56420   97.50000  # c1,c,sc,c1
dihedral_coeff	 7 at   -1.08880   -0.20000   -0.09090    0.59620    3.34790    0.22650   97.50000  107.85220  # c1,sc,c,hc
dihedral_coeff	 8 at   -0.80850    0.55690   -0.24660   -0.80850    0.55690   -0.24660  110.77000  110.77000  # hc,c,c1,hc
dihedral_coeff	 9 at   -2.03820    0.21020   -0.90230    0.33220   -0.05190   -0.35530  110.77000  112.56420  # hc,c,c1,s
dihedral_coeff	10 at   -2.03820    0.21020   -0.90230    0.33220   -0.05190   -0.35530  110.77000  112.56420  # hc,c,c1,sc
dihedral_coeff	11 at   -2.03820    0.21020   -0.90230    0.33220   -0.05190   -0.35530  110.77000  112.56420  # hc,c1,c,sc
dihedral_coeff	12 at   -2.25330    2.69480   -0.17230    1.43400   -0.19150   -0.26110  107.85220   96.84790  # hc,c1,s,hs
dihedral_coeff	13 at   -5.05650   -0.63550    0.60150   -5.05650   -0.63550    0.60150  112.56420  112.56420  # s,c1,c,sc
dihedral_coeff	14 at   -5.05650   -0.63550    0.60150   -5.05650   -0.63550    0.60150  112.56420  112.56420  # sc,c,c1,sc

# AngleAngleTorsion Coeffs

dihedral_coeff	 1 aat  -16.16400  112.67000  110.77000  # c,c1,c,hc
dihedral_coeff	 2 aat  -26.71000  112.67000  112.56420  # c,c1,c,sc
dihedral_coeff	 3 aat  -28.17280  112.56420   96.84790  # c,c1,s,hs
dihedral_coeff	 4 aat  -32.89490  112.56420   97.50000  # c,c1,sc,c
dihedral_coeff	 5 aat  -26.49000   97.50000  107.85220  # c,sc,c1,hc
dihedral_coeff	 6 aat  -32.89490  112.56420   97.50000  # c1,c,sc,c1
dihedral_coeff	 7 aat  -26.49000   97.50000  107.85220  # c1,sc,c,hc
dihedral_coeff	 8 aat  -12.56400  110.77000  110.77000  # hc,c,c1,hc
dihedral_coeff	 9 aat  -13.10260  110.77000  112.56420  # hc,c,c1,s
dihedral_coeff	10 aat  -13.10260  110.77000  112.56420  # hc,c,c1,sc
dihedral_coeff	11 aat  -13.10260  110.77000  112.56420  # hc,c1,c,sc
dihedral_coeff	12 aat  -18.63340  107.85220   96.84790  # hc,c1,s,hs
dihedral_coeff	13 aat  -13.96740  112.56420  112.56420  # s,c1,c,sc
dihedral_coeff	14 aat  -13.96740  112.56420  112.56420  # sc,c,c1,sc

# BondBond13 Coeffs

dihedral_coeff	 1 bb13    0.00000    1.53000    1.10100  # c,c1,c,hc
dihedral_coeff	 2 bb13    0.00000    1.53000    1.82300  # c,c1,c,sc
dihedral_coeff	 3 bb13    0.00000    1.53000    1.32610  # c,c1,s,hs
dihedral_coeff	 4 bb13    0.00000    1.53000    1.82300  # c,c1,sc,c
dihedral_coeff	 5 bb13    0.00000    1.82300    1.10100  # c,sc,c1,hc
dihedral_coeff	 6 bb13    0.00000    1.53000    1.82300  # c1,c,sc,c1
dihedral_coeff	 7 bb13    0.00000    1.82300    1.10100  # c1,sc,c,hc
dihedral_coeff	 8 bb13    0.00000    1.10100    1.10100  # hc,c,c1,hc
dihedral_coeff	 9 bb13    0.00000    1.10100    1.82300  # hc,c,c1,s
dihedral_coeff	10 bb13    0.00000    1.10100    1.82300  # hc,c,c1,sc
dihedral_coeff	11 bb13    0.00000    1.10100    1.82300  # hc,c1,c,sc
dihedral_coeff	12 bb13    0.00000    1.10100    1.32610  # hc,c1,s,hs
dihedral_coeff	13 bb13    0.00000    1.82300    1.82300  # s,c1,c,sc
dihedral_coeff	14 bb13    0.00000    1.82300    1.82300  # sc,c,c1,sc

# Improper Coeffs

improper_coeff	 1    0.00000    0.00000  # c,c1,hc,hc
improper_coeff	 2    0.00000    0.00000  # c,c1,hc,sc
improper_coeff	 3    0.00000    0.00000  # c,hc,hc,hc
improper_coeff	 4    0.00000    0.00000  # c,hc,hc,sc
improper_coeff	 5    0.00000    0.00000  # c1,c,c,hc
improper_coeff	 6    0.00000    0.00000  # c1,c,c,s
improper_coeff	 7    0.00000    0.00000  # c1,c,c,sc
improper_coeff	 8    0.00000    0.00000  # c1,c,hc,s
improper_coeff	 9    0.00000    0.00000  # c1,c,hc,sc
improper_coeff	10    0.00000    0.00000  # c1,c,s,hc
improper_coeff	11    0.00000    0.00000  # c1,c,sc,hc

# AngleAngle Coeffs

improper_coeff	 1 aa    0.27380   -0.48250    0.27380  110.77000  110.77000  107.66000  # c,c1,hc,hc
improper_coeff	 2 aa    2.79850   -3.00310   -0.06680  110.77000  112.56420  107.85220  # c,c1,hc,sc
improper_coeff	 3 aa   -0.31570   -0.31570   -0.31570  107.66000  107.66000  107.66000  # c,hc,hc,hc
improper_coeff	 4 aa    0.50860    0.50860   -0.06400  107.66000  107.85220  107.85220  # c,hc,hc,sc
improper_coeff	 5 aa   -1.31990   -1.31990    0.11840  112.67000  110.77000  110.77000  # c1,c,c,hc
improper_coeff	 6 aa   -0.25640   -0.25640   -0.87660  112.67000  112.56420  112.56420  # c1,c,c,s
improper_coeff	 7 aa   -0.25640   -0.25640   -0.87660  112.67000  112.56420  112.56420  # c1,c,c,sc
improper_coeff	 8 aa    2.79850   -3.00310   -0.06680  110.77000  112.56420  107.85220  # c1,c,hc,s
improper_coeff	 9 aa    2.79850   -3.00310   -0.06680  110.77000  112.56420  107.85220  # c1,c,hc,sc
improper_coeff	10 aa   -0.06680   -3.00310    2.79850  112.56420  110.77000  107.85220  # c1,c,s,hc
improper_coeff	11 aa   -0.06680   -3.00310    2.79850  112.56420  110.77000  107.85220  # c1,c,sc,hc


# --- Thermo Output ---
thermo_style custom step time temp press enthalpy etotal ke pe ebond eangle edihed eimp evdwl ecoul elong etail vol lx ly lz density pxx pyy pzz
thermo_modify flush yes
thermo 1000

# --- Trajectory ---
dump dump_nvt all custom 1000 nvt_production.dump id type mol x y z ix iy iz vx vy vz

# --- Restart Checkpointing ---
# No restart checkpointing

# --- Initial Velocities (optional) ---
# Velocities read from data file

# --- SHAKE Constraints ---
# Constrains H-X bonds to allow 2fs timestep
# SHAKE disabled

# --- NVT Thermostat (Nose-Hoover) ---
# T_damp = 100.0 fs  (coupling timescale for heat exchange)
# Ramp: 300.0 K -> 300.0 K over 1000000 steps
timestep 1.0
fix nvt_fix all nvt temp 300.0 300.0 100.0

run 1000000

CITE-CITE-CITE-CITE-CITE-CITE-CITE-CITE-CITE-CITE-CITE-CITE-CITE

Your simulation uses code contributions which should be cited:

- GPU package (short-range, long-range and three-body potentials): doi:10.1016/j.cpc.2010.12.021, doi:10.1016/j.cpc.2011.10.012, doi:10.1016/j.cpc.2013.08.002, doi:10.1016/j.commatsci.2014.10.068, doi:10.1016/j.cpc.2016.10.020, doi:10.3233/APC200086

@Article{Brown11,
 author = {W. M. Brown and P. Wang and S. J. Plimpton and A. N. Tharrington},
 title = {Implementing Molecular Dynamics on Hybrid High Performance Computers---Short Range Forces},
 journal = {Comput.\ Phys.\ Commun.},
 year =    2011,
 volume =  182,
 pages =   {898--911},
 doi =     {10.1016/j.cpc.2010.12.021}
}

@Article{Brown12,
 author = {W. M. Brown and A. Kohlmeyer and S. J. Plimpton and A. N. Tharrington},
 title = {Implementing Molecular Dynamics on Hybrid High Performance Computers - Particle-Particle Particle-Mesh},
 journal = {Comput.\ Phys.\ Commun.},
 year =    2012,
 volume =  183,
 doi =     {10.1016/j.cpc.2011.10.012},
 pages =   {449--459}
}

@Article{Brown13,
 author = {W. M. Brown and Y. Masako},
 title = {Implementing Molecular Dynamics on Hybrid High Performance Computers---Three-Body Potentials},
 journal = {Comput.\ Phys.\ Commun.},
 year =    2013,
 volume =  184,
 pages =   {2785--2793},
 doi =     {10.1016/j.cpc.2013.08.002},
}

@Article{Trung15,
 author = {T. D. Nguyen and S. J. Plimpton},
 title = {Accelerating Dissipative Particle Dynamics Simulations for Soft Matter Systems},
 journal = {Comput.\ Mater.\ Sci.},
 year =    2015,
 doi =     {10.1016/j.commatsci.2014.10.068},
 volume =  100,
 pages =   {173--180}
}

@Article{Trung17,
 author = {T. D. Nguyen},
 title = {{GPU}-Accelerated {T}ersoff Potentials for Massively Parallel
    Molecular Dynamics Simulations},
 journal = {Comput.\ Phys.\ Commun.},
 year =    2017,
 doi =     {10.1016/j.cpc.2016.10.020},
 volume =  212,
 pages =   {113--122}
}

@inproceedings{Nikolskiy19,
 author = {V. Nikolskiy and V. Stegailov},
 title = {{GPU} Acceleration of Four-Site Water Models in {LAMMPS}},
 booktitle = {Proceedings of the International Conference on Parallel
    Computing (ParCo 2019), Prague, Czech Republic},
 doi =     {10.3233/APC200086},
 year =    2019
}

CITE-CITE-CITE-CITE-CITE-CITE-CITE-CITE-CITE-CITE-CITE-CITE-CITE

PPPM initialization ...
  using 12-bit tables for long-range coulomb
  G vector (1/distance) = 0.28920779
  grid = 18 18 18
  stencil order = 5
  estimated absolute RMS force accuracy = 0.00029416381
  estimated relative force accuracy = 8.8586559e-07
  using double precision KISS FFT
  3d grid and FFT values/proc = 4096 810
Generated 15 of 15 mixed pair_coeff terms from sixthpower/sixthpower mixing rule
Neighbor list info ...
  update: every = 1 steps, delay = 0 steps, check = yes
  max neighbors/atom: 4000, page size: 100000
  master list distance cutoff = 11.5
  ghost atom cutoff = 11.5
  binsize = 5.75, bins = 6 6 6
  1 neighbor lists, perpetual/occasional/extra = 1 0 0
  (1) pair lj/class2/coul/long/gpu, perpetual
      attributes: full, newton on
      pair build: full/bin
      stencil: full/bin/3d
      bin: standard
Per MPI rank memory allocation (min/avg/max) = 15.48 | 15.48 | 15.49 Mbytes
   Step          Time           Temp          Press         Enthalpy        TotEng         KinEng         PotEng         E_bond        E_angle        E_dihed        E_impro         E_vdwl         E_coul         E_long         E_tail         Volume           Lx             Ly             Lz          Density          Pxx            Pyy            Pzz      
         0   0              306.22743     -347.25016     -651.28534     -527.62306      1842.9549     -2370.578       713.09947      1125.5        -3415.2137     -0.96506344    -386.63804      267.02712     -673.38788     -85.90688       24418.496      29.011686      29.011686      29.011686      1.0097959     -758.44563      444.95441     -728.25926    
      1000   1000           297.24705      111.87892     -608.68264     -648.52481      1788.9087     -2437.4335      683.15398      1119.3395     -3500.4462      1.1391236     -339.09952      270.00229     -671.52271     -85.90688       24418.496      29.011686      29.011686      29.011686      1.0097959      23.526768     -588.80177      900.91175    
      2000   2000           300.11451      1860.1294      81.911064     -580.51585      1806.1658     -2386.6816      689.27376      1152.7231     -3481.491       0.69854086    -343.24413      268.31537     -672.95722     -85.90688       24418.496      29.011686      29.011686      29.011686      1.0097959      2570.9342      118.29072      2891.1634    
      3000   3000           306.13506     -896.11862     -873.56006     -554.43545      1842.399      -2396.8344      712.26176      1096.5712     -3439.8831      0.58662358    -362.78776      270.23385     -673.81697     -85.90688       24418.496      29.011686      29.011686      29.011686      1.0097959     -2056.9174     -1001.7507      370.31217    
      4000   4000           302.03314      1663.3551      31.46134      -560.89053      1817.7126     -2378.6031      688.23455      1089.615      -3405.5574      0.76523357    -347.2541       267.90758     -672.31397     -85.90688       24418.496      29.011686      29.011686      29.011686      1.0097959     -1212.2197      2043.2586      4159.0263    
      5000   5000           291.21533      425.91106     -532.77909     -684.45399      1752.6082     -2437.0622      697.80759      1062.4566     -3439.5933      2.9341535     -357.57918      270.49352     -673.58161     -85.90688       24418.496      29.011686      29.011686      29.011686      1.0097959     -368.44107      900.74835      745.4259     
      6000   6000           288.13969     -57.849427     -635.17998     -614.57871      1734.0983     -2348.677       728.35311      1140.3616     -3467.4082      0.94452607    -346.4382       269.87182     -674.36171     -85.90688       24418.496      29.011686      29.011686      29.011686      1.0097959      1359.9827      400.71929     -1934.2503    
      7000   7000           309.95522      296.27627     -435.00989     -540.51941      1865.3897     -2405.9091      705.36059      1099.3783     -3469.1995      2.6822393     -338.32608      269.59919     -675.40383     -85.90688       24418.496      29.011686      29.011686      29.011686      1.0097959      1330.87       -1988.4363      1546.395     
      8000   8000           297.06416     -584.54338     -822.54752     -614.38068      1787.808      -2402.1887      704.46447      1117.0518     -3465.121       1.1156631     -351.58981      267.17497     -675.28478     -85.90688       24418.496      29.011686      29.011686      29.011686      1.0097959     -517.9797      -218.09981     -1017.5506    
      9000   9000           294.9116      -88.056115     -698.34826     -666.98983      1774.8534     -2441.8432      701.38056      1080.2953     -3464.1836     -0.091182021   -351.65254      265.98506     -673.57674     -85.90688       24418.496      29.011686      29.011686      29.011686      1.0097959      319.3507      -104.12583     -479.39321    
     10000   10000          298.37258     -560.08811     -809.18791     -609.73005      1795.6824     -2405.4124      707.09657      1121.93       -3453.6748      0.54879564    -375.82496      266.54785     -672.03583     -85.90688       24418.496      29.011686      29.011686      29.011686      1.0097959     -1546.6868      707.6941      -841.27165    
     11000   11000          293.3334       409.27035     -532.70866     -678.45749      1765.3553     -2443.8128      653.09858      1106.9046     -3454.6369      1.4037373     -350.80931      271.247       -671.02051     -85.90688       24418.496      29.011686      29.011686      29.011686      1.0097959      1438.017      -364.40122      154.19529    
     12000   12000          299.86957     -615.38949     -859.22753     -640.07581      1804.6917     -2444.7675      696.95693      1084.7406     -3465.6131      2.4706009     -360.64629      269.96406     -672.6403      -85.90688       24418.496      29.011686      29.011686      29.011686      1.0097959     -1480.6533      349.67675     -715.1919     
     13000   13000          299.94943      1019.5238     -231.51082     -594.58231      1805.1723     -2399.7546      677.07543      1142.9861     -3467.8685      0.83734727    -347.78377      268.78175     -673.78291     -85.90688       24418.496      29.011686      29.011686      29.011686      1.0097959      1022.0645      2555.0177     -518.51093    
     14000   14000          299.36611     -1744.0153     -1234.2476     -613.17107      1801.6617     -2414.8328      710.17684      1087.7722     -3440.3221     -0.01265881    -369.06695      270.13624     -673.51634     -85.90688       24418.496      29.011686      29.011686      29.011686      1.0097959      1404.2187     -3716.589      -2919.6756    
     15000   15000          304.235       -94.958926     -598.20964     -564.39299      1830.964      -2395.357       674.90216      1140.9692     -3479.7173      1.5595631     -331.43725      268.18689     -669.8202      -85.90688       24418.496      29.011686      29.011686      29.011686      1.0097959      791.13358     -1582.7085      506.69818    
     16000   16000          303.87773      768.04466     -332.75224     -606.26732      1828.8138     -2435.0811      664.8893       1108.7976     -3466.6314      1.7011348     -346.87262      274.26025     -671.22536     -85.90688       24418.496      29.011686      29.011686      29.011686      1.0097959      1682.9575      170.70547      450.471      
     17000   17000          300.53304     -50.969422     -613.25044     -595.09927      1808.6846     -2403.7839      682.05479      1119.5467     -3453.4781      3.2783407     -353.51785      270.70447     -672.37223     -85.90688       24418.496      29.011686      29.011686      29.011686      1.0097959     -1020.8434     -166.33207      1034.2672    
     18000   18000          288.04762      71.062456     -641.17419     -666.48086      1733.5442     -2400.0251      701.11071      1092.6153     -3440.4146      1.2105735     -352.97738      270.63928     -672.20893     -85.90688       24418.496      29.011686      29.011686      29.011686      1.0097959      793.07863     -1406.6879      826.79667    
     19000   19000          296.11306     -898.8742      -981.60802     -661.50209      1782.0841     -2443.5862      683.92631      1087.3749     -3466.5948      0.72447231    -345.98383      269.57279     -672.60605     -85.90688       24418.496      29.011686      29.011686      29.011686      1.0097959     -2230.2569      795.49637     -1261.8621    
     20000   20000          302.85642     -558.68608     -822.53255     -623.57397      1822.6673     -2446.2413      700.00782      1088.3261     -3460.9353     -0.33361921    -370.73315      270.19757     -672.77068     -85.90688       24418.496      29.011686      29.011686      29.011686      1.0097959     -3219.9158      226.49065      1317.3669    
     21000   21000          300.40142     -230.89991     -710.10368     -627.8759       1807.8925     -2435.7684      701.94664      1075.9235     -3477.2151      1.6099106     -337.86398      270.99195     -671.16126     -85.90688       24418.496      29.011686      29.011686      29.011686      1.0097959     -858.01682     -1977.4257      2142.7428    
     22000   22000          305.22771      253.28144     -470.58158     -560.77984      1836.9384     -2397.7182      671.32474      1139.8364     -3469.3828      1.2489632     -339.12483      269.59154     -671.21217     -85.90688       24418.496      29.011686      29.011686      29.011686      1.0097959     -1436.0193     -80.400151      2276.2637    
     23000   23000          301.84365      2227.1567      163.75867     -629.37352      1816.5722     -2445.9457      687.55336      1092.7459     -3474.211       0.35503413    -345.70536      267.10499     -673.78854     -85.90688       24418.496      29.011686      29.011686      29.011686      1.0097959      3427.8254      917.42639      2336.2182    
     24000   24000          306.73287      60.529477     -509.74116     -531.29684      1845.9968     -2377.2936      705.46777      1111.3741     -3453.3419      1.4867943     -340.02831      269.6505      -671.90252     -85.90688       24418.496      29.011686      29.011686      29.011686      1.0097959      743.5593       853.11461     -1415.0855    
     25000   25000          285.56644     -586.02694     -836.99547     -628.30031      1718.6118     -2346.9121      747.20997      1118.9419     -3447.1154      0.54709434    -361.36776      268.41185     -673.53975     -85.90688       24418.496      29.011686      29.011686      29.011686      1.0097959     -168.47868     -1286.909      -302.69315    
     26000   26000          304.65794      2873.3701      466.01771     -557.24317      1833.5093     -2390.7525      695.28712      1146.8768     -3496.5315      1.7171861     -328.84398      265.63823     -674.8964      -85.90688       24418.496      29.011686      29.011686      29.011686      1.0097959      4837.3708      1347.8591      2434.8804    
     27000   27000          298.37178     -422.84612     -845.21065     -694.62723      1795.6776     -2490.3048      700.57793      1075.8015     -3482.5728      0.67032881    -380.11425      268.84895     -673.51646     -85.90688       24418.496      29.011686      29.011686      29.011686      1.0097959     -756.69667     -62.547662     -449.29401    
     28000   28000          300.10047     -469.65608     -806.16722     -638.9139       1806.0813     -2444.9952      715.53314      1064.4283     -3468.0516      2.2759962     -355.97599      268.79593     -672.00099     -85.90688       24418.496      29.011686      29.011686      29.011686      1.0097959     -547.07774     -718.0792      -143.81131    
     29000   29000          304.65046      1241.1557     -163.08407     -605.08283      1833.4643     -2438.5471      703.38099      1092.7931     -3489.3882     -0.28396785    -343.13087      268.30424     -670.22246     -85.90688       24418.496      29.011686      29.011686      29.011686      1.0097959     -322.37824      2765.6562      1280.189     
     30000   30000          297.55521      1010.3836     -222.65993     -582.47643      1790.7633     -2373.2397      713.6097       1126.5774     -3448.8301      1.3116182     -361.59839      267.00994     -671.31981     -85.90688       24418.496      29.011686      29.011686      29.011686      1.0097959      1830.0139     -967.94225      2169.0791    
     31000   31000          298.17537      2807.3673      417.43102     -582.32503      1794.4955     -2376.8206      706.45588      1147.89       -3482.7305      1.2519243     -346.2061       268.11182     -671.59364     -85.90688       24418.496      29.011686      29.011686      29.011686      1.0097959      5152.7685      2045.95        1223.3835    
     32000   32000          308.56047     -362.09211     -686.83429     -557.88651      1856.9958     -2414.8823      695.0388       1101.0131     -3451.1556      1.0324468     -356.88615      268.92853     -672.85339     -85.90688       24418.496      29.011686      29.011686      29.011686      1.0097959     -134.5477      -607.63214     -344.0965     
     33000   33000          298.45636      1089.398      -241.09634     -629.05137      1796.1866     -2425.238       696.55913      1104.971      -3457.7818      0.6443081     -366.74699      269.14182     -672.02551     -85.90688       24418.496      29.011686      29.011686      29.011686      1.0097959      814.83912      2416.3313      37.023722    
     34000   34000          302.01752      2179.9402      152.38387     -623.93364      1817.6186     -2441.5522      691.34061      1118.6204     -3491.8351      1.8264903     -359.17327      268.17856     -670.5099      -85.90688       24418.496      29.011686      29.011686      29.011686      1.0097959      1950.9319      1880.9628      2707.9259    
     35000   35000          304.50995      182.62766     -520.63752     -585.67465      1832.6187     -2418.2933      704.24162      1095.0047     -3449.2873      1.1878559     -364.99627      268.93315     -673.37714     -85.90688       24418.496      29.011686      29.011686      29.011686      1.0097959     -185.74694     -1838.908       2572.5379    
     36000   36000          297.05389      341.79229     -492.57714     -614.29577      1787.7462     -2402.042       712.50679      1151.033      -3498.226       2.3481944     -360.83686      264.8376      -673.7047      -85.90688       24418.496      29.011686      29.011686      29.011686      1.0097959      372.56593     -581.75778      1234.5687    
     37000   37000          292.05502      707.13315     -421.06364     -672.88699      1757.6617     -2430.5487      704.2086       1124.6223     -3486.8022      2.2827803     -367.34746      266.88785     -674.40061     -85.90688       24418.496      29.011686      29.011686      29.011686      1.0097959     -1523.6644     -461.19595      4106.2598    
     38000   38000          303.82954      126.65733     -557.80166     -602.90671      1828.5238     -2431.4305      668.37498      1118.4916     -3456.9063      1.4313622     -359.19871      267.79459     -671.41806     -85.90688       24418.496      29.011686      29.011686      29.011686      1.0097959      970.92332      341.19983     -932.15117    
     39000   39000          299.69914     -292.35684     -731.83275     -627.71901      1803.666      -2431.385       666.39732      1139.8023     -3475.6344      1.2253756     -359.14518      268.00874     -672.03918     -85.90688       24418.496      29.011686      29.011686      29.011686      1.0097959      773.28278     -1269.4256     -380.92771    
     40000   40000          297.09629      100.90962     -552.85489     -588.7907       1788.0014     -2376.7921      686.1889       1158.4944     -3473.4401      3.0146392     -346.04524      269.08582     -674.09056     -85.90688       24418.496      29.011686      29.011686      29.011686      1.0097959      1613.1777     -1369.7758      59.326996    
     41000   41000          301.64052     -796.59757     -904.42867     -620.74537      1815.3497     -2436.0951      664.80354      1136.9395     -3460.9443      1.9969566     -373.02108      267.24064     -673.11029     -85.90688       24418.496      29.011686      29.011686      29.011686      1.0097959     -667.36752     -1581.6461     -140.77913    
     42000   42000          299.9969       376.95445     -445.41168     -579.65222      1805.458      -2385.1102      720.52033      1126.803      -3461.0497      1.6900029     -365.87648      265.85564     -673.05294     -85.90688       24418.496      29.011686      29.011686      29.011686      1.0097959      379.95414     -231.65622      982.56543    
     43000   43000          293.77286      842.76641     -392.07315     -692.19804      1768.0002     -2460.1982      667.3839       1096.5577     -3455.8142      1.4626394     -365.20287      268.71727     -673.30272     -85.90688       24418.496      29.011686      29.011686      29.011686      1.0097959     -44.401396     -1404.8859      3977.5865    
     44000   44000          293.50039      1222.646      -167.90875     -603.31586      1766.3603     -2369.6762      692.85296      1182.8521     -3487.369       0.10663255    -353.58217      268.47579     -673.01245     -85.90688       24418.496      29.011686      29.011686      29.011686      1.0097959      2190.1721     -1200.0591      2677.8249    
     45000   45000          303.1715       17.403535     -549.59312     -555.79084      1824.5635     -2380.3544      703.69256      1164.6811     -3480.5504      1.9946329     -366.56307      269.47428     -673.08345     -85.90688       24418.496      29.011686      29.011686      29.011686      1.0097959     -1069.9312      752.60984      369.53199    
     46000   46000          299.44697      2310.0253      220.50141     -602.14182      1802.1483     -2404.2902      682.57587      1102.6122     -3473.2584      2.5502424     -311.72936      267.12044     -674.16109     -85.90688       24418.496      29.011686      29.011686      29.011686      1.0097959      3157.9302      1586.8406      2185.305     
     47000   47000          304.5719      -382.83974     -775.92775     -639.59135      1832.9915     -2472.5829      669.80377      1072.6967     -3456.6671      0.1842532     -352.21076      267.52527     -673.91498     -85.90688       24418.496      29.011686      29.011686      29.011686      1.0097959     -1885.733       977.08608     -239.87231    
     48000   48000          305.40001      255.27744     -502.6561      -593.56518      1837.9753     -2431.5405      673.51265      1141.9123     -3507.0228      1.6729115     -334.11046      266.74079     -674.24594     -85.90688       24418.496      29.011686      29.011686      29.011686      1.0097959      1172.0177      1152.3468     -1558.5321    
     49000   49000          305.05208     -422.52496     -694.82797     -544.35892      1835.8814     -2380.2403      694.03258      1142.2351     -3484.914       4.3785494     -326.93135      264.31632     -673.35745     -85.90688       24418.496      29.011686      29.011686      29.011686      1.0097959     -358.27577     -980.99201      71.692889    
     50000   50000          294.96354     -272.63371     -753.37507     -656.2851       1775.1659     -2431.4511      682.90758      1135.6464     -3486.2694      1.5492485     -359.80667      266.62967     -672.10784     -85.90688       24418.496      29.011686      29.011686      29.011686      1.0097959     -354.81779      561.35267     -1024.436     
     51000   51000          306.77479      1682.2095      5.8546692     -593.21162      1846.2491     -2439.4607      659.81965      1106.6381     -3445.822       0.99305434    -355.73803      267.94765     -673.29908     -85.90688       24418.496      29.011686      29.011686      29.011686      1.0097959      1705.921       808.19574      2532.5117    
     52000   52000          299.4781      -1913.0939     -1293.9594     -612.67086      1802.3357     -2415.0066      707.15898      1129.5134     -3474.0224      0.98572789    -373.10844      266.76925     -672.30308     -85.90688       24418.496      29.011686      29.011686      29.011686      1.0097959     -1921.5874     -1268.4628     -2549.2316    
     53000   53000          301.31408      669.71336     -400.0235      -638.52097      1813.3851     -2451.9061      689.14816      1075.1214     -3477.7264      2.053716      -334.25182      267.17665     -673.42785     -85.90688       24418.496      29.011686      29.011686      29.011686      1.0097959      1449.7882      1708.7796     -1149.4277    
     54000   54000          294.0303       1779.3923     -11.785744     -645.46065      1769.5495     -2415.0101      661.60009      1139.149      -3473.3385      1.9326105     -335.88163      264.51314     -672.98479     -85.90688       24418.496      29.011686      29.011686      29.011686      1.0097959      3050.4412      2581.5265     -293.79076    
     55000   55000          299.93567      428.2202      -476.35384     -628.85107      1805.0895     -2433.9406      667.70852      1133.0118     -3459.208       2.7203971     -373.18034      267.92863     -672.9216      -85.90688       24418.496      29.011686      29.011686      29.011686      1.0097959     -2620.7739      3899.5851      5.8493631    
     56000   56000          307.08488      1471.3882     -66.59821      -590.58707      1848.1152     -2438.7023      672.43898      1140.4956     -3495.3851      1.4721362     -348.41379      265.31084     -674.62101     -85.90688       24418.496      29.011686      29.011686      29.011686      1.0097959      2936.481       352.57564      1125.1078    
     57000   57000          306.21263      1704.4627      0.27692899    -606.71415      1842.8659     -2449.58        689.12305      1109.1084     -3481.6084      1.6545456     -363.11175      268.4974      -673.24327     -85.90688       24418.496      29.011686      29.011686      29.011686      1.0097959      906.72625      4243.183      -36.521164    
     58000   58000          299.11072     -167.9906      -636.65972     -576.83513      1800.1247     -2376.9599      680.1196       1138.6489     -3427.0974      2.4335887     -365.82993      268.08702     -673.32167     -85.90688       24418.496      29.011686      29.011686      29.011686      1.0097959     -1478.064       1122.4042     -148.31204    
     59000   59000          291.40696      1819.5219     -66.682444     -714.64824      1753.7615     -2468.4098      674.31138      1098.6358     -3492.6372      0.55650319    -342.88717      266.34309     -672.73221     -85.90688       24418.496      29.011686      29.011686      29.011686      1.0097959      2654.9657      3429.5393     -625.93938    
     60000   60000          300.22848      321.5137      -423.01589     -537.51294      1806.8517     -2344.3646      748.75524      1101.6397     -3468.2616      1.4600263     -317.76268      263.19045     -673.38577     -85.90688       24418.496      29.011686      29.011686      29.011686      1.0097959     -453.47945      647.1115       770.90904    
     61000   61000          301.83565      1046.4839     -278.98767     -651.66018      1816.524      -2468.1842      664.55411      1088.8641     -3461.4963      2.491864      -351.21342      262.45141     -673.836       -85.90688       24418.496      29.011686      29.011686      29.011686      1.0097959      396.9163      -185.55968      2928.0951    
     62000   62000          290.57747     -536.75846     -819.89862     -628.74888      1748.7695     -2377.5183      721.26168      1130.7106     -3446.0358      0.13415958    -376.83403      265.75918     -672.51416     -85.90688       24418.496      29.011686      29.011686      29.011686      1.0097959      544.58038      79.392407     -2234.2482    
     63000   63000          299.61934      268.78425     -524.70574     -620.42484      1803.1858     -2423.6106      694.75525      1124.0369     -3481.316       2.191864      -358.0891       267.75337     -672.9428      -85.90688       24418.496      29.011686      29.011686      29.011686      1.0097959      934.88714      526.62319     -655.15757    
     64000   64000          300.45831     -1299.9647     -1029.1321     -566.19031      1808.2349     -2374.4252      724.43976      1137.3521     -3461.263       0.85404907    -365.19211      263.58291     -674.19886     -85.90688       24418.496      29.011686      29.011686      29.011686      1.0097959     -669.90905     -1025.8187     -2204.1663    
     65000   65000          302.26856     -1807.6632     -1222.7292     -578.98645      1819.1294     -2398.1159      737.18669      1084.8291     -3460.4425      1.3073671     -347.97377      261.45117     -674.47393     -85.90688       24418.496      29.011686      29.011686      29.011686      1.0097959     -3687.2766     -1082.2912     -653.42179    
     66000   66000          290.4044       419.21342     -560.47882     -709.76856      1747.7279     -2457.4964      681.28438      1097.4678     -3464.554       2.3525711     -364.27288      264.38313     -674.15743     -85.90688       24418.496      29.011686      29.011686      29.011686      1.0097959      2027.1052     -491.73683     -277.72806    
     67000   67000          295.92045      605.39771     -477.8579      -693.45136      1780.9249     -2474.3762      646.02212      1122.1397     -3486.5292      1.2000455     -350.68259      266.33058     -672.85694     -85.90688       24418.496      29.011686      29.011686      29.011686      1.0097959      2942.6234     -1352.4199      225.98962    
     68000   68000          300.01954     -1725.5133     -1232.5173     -618.02973      1805.5943     -2423.624       683.46253      1135.451      -3463.9064      0.69228585    -371.10018      265.4998      -673.72304     -85.90688       24418.496      29.011686      29.011686      29.011686      1.0097959     -1490.4271     -1061.0019     -2625.1109    
     69000   69000          306.52639     -516.79141     -720.42666     -536.38756      1844.7541     -2381.1417      716.56043      1138.941      -3471.1764      2.1683217     -358.28384      263.65171     -673.00285     -85.90688       24418.496      29.011686      29.011686      29.011686      1.0097959      1149.1628     -1131.01       -1568.527     
     70000   70000          300.08533     -957.49958     -963.32678     -622.34326      1805.9902     -2428.3335      690.58669      1153.6966     -3501.9385      2.3676153     -366.58248      266.14599     -672.60938     -85.90688       24418.496      29.011686      29.011686      29.011686      1.0097959     -1036.6411     -219.34104     -1616.5166    
     71000   71000          295.52893     -849.13379     -976.87305     -674.48062      1778.5686     -2453.0492      682.64391      1081.6803     -3459.2712      2.6577706     -359.55983      270.85038     -672.05059     -85.90688       24418.496      29.011686      29.011686      29.011686      1.0097959     -823.97109     -2211.4265      487.9962     
     72000   72000          303.9594       1688.3646      36.210699     -565.04753      1829.3053     -2394.3529      705.351        1108.453      -3477.4313      3.0025931     -329.94321      268.86922     -672.65417     -85.90688       24418.496      29.011686      29.011686      29.011686      1.0097959      1081.7029      1520.5732      2462.8177    
     73000   73000          304.47419      1682.4524      22.467952     -576.68485      1832.4035     -2409.0883      713.04628      1092.8986     -3443.7437      2.1991391     -370.58267      269.93925     -672.84515     -85.90688       24418.496      29.011686      29.011686      29.011686      1.0097959     -1047.8822      1268.9604      4826.279     
     74000   74000          309.8629      -284.68376     -635.23787     -533.85666      1864.8341     -2398.6908      720.376        1115.7577     -3475.3147      2.0335632     -356.70478      268.0299      -672.86847     -85.90688       24418.496      29.011686      29.011686      29.011686      1.0097959     -404.89654      1498.7817     -1947.9365    
     75000   75000          302.34008      442.71671     -436.85574     -594.51544      1819.5598     -2414.0753      659.34492      1121.1893     -3464.2491      1.2445276     -323.82488      266.71775     -674.49781     -85.90688       24418.496      29.011686      29.011686      29.011686      1.0097959     -885.44167      3216.6112     -1003.0194    
     76000   76000          308.05088      1983.8813      141.36608     -565.13119      1853.9289     -2419.0601      693.02674      1110.1452     -3482.5068      1.1673618     -335.43508      267.44919     -672.90671     -85.90688       24418.496      29.011686      29.011686      29.011686      1.0097959      3277.9445     -178.15029      2851.8498    
     77000   77000          298.67972      712.64101     -364.88268     -618.66748      1797.5309     -2416.1983      691.05187      1150.9663     -3493.2608      2.0443366     -354.84031      261.58518     -673.74497     -85.90688       24418.496      29.011686      29.011686      29.011686      1.0097959      1013.4677      316.00939      808.44593    
     78000   78000          295.07815      487.26253     -426.59002     -600.11332      1775.8557     -2375.969       689.2199       1161.6905     -3467.8977      0.88711877    -348.85476      263.35072     -674.36481     -85.90688       24418.496      29.011686      29.011686      29.011686      1.0097959      102.63951      1413.5808     -54.432735    
     79000   79000          297.8382      -908.9761      -956.60677     -632.90337      1792.4664     -2425.3698      694.61142      1124.8299     -3459.896       2.7903373     -380.22827      266.01677     -673.49386     -85.90688       24418.496      29.011686      29.011686      29.011686      1.0097959     -2173.2568      1.6024915     -555.27396    
     80000   80000          299.58439     -1157.0626     -1030.5729     -618.52124      1802.9754     -2421.4966      679.43515      1129.4261     -3472.2467      1.6773587     -354.60715      266.8763      -672.05765     -85.90688       24418.496      29.011686      29.011686      29.011686      1.0097959     -99.828551     -1714.9479     -1656.4113    
     81000   81000          295.26788     -888.95556     -956.1345      -639.56079      1776.9976     -2416.5583      671.87219      1128.1591     -3445.5047      2.3082515     -364.85472      264.98807     -673.52651     -85.90688       24418.496      29.011686      29.011686      29.011686      1.0097959     -2399.9959      1075.004      -1341.8748    
     82000   82000          299.24318      119.95189     -554.02472     -596.74183      1800.9219     -2397.6637      725.22602      1118.476      -3481.2471      3.3984409     -360.02675      269.407       -672.89733     -85.90688       24418.496      29.011686      29.011686      29.011686      1.0097959      1188.8937      295.47807     -1124.5161    
     83000   83000          294.25123      1194.6673     -228.06697     -653.51036      1770.8791     -2424.3895      684.11072      1120.412      -3485.1995      1.4921175     -338.60037      265.82402     -672.4284      -85.90688       24418.496      29.011686      29.011686      29.011686      1.0097959     -12.065717      652.69251      2943.3751    
     84000   84000          300.81066      1303.5689     -122.4168      -586.64208      1810.3554     -2396.9975      714.18892      1100.8229     -3461.0131      1.0664787     -348.5963       268.75533     -672.22169     -85.90688       24418.496      29.011686      29.011686      29.011686      1.0097959      2506.9591      1748.2583     -344.51076    
     85000   85000          308.36806     -1844.3781     -1208.1761     -551.3585       1855.8378     -2407.1963      704.89814      1137.9473     -3475.5301      2.2259325     -365.47061      262.55095     -673.81799     -85.90688       24418.496      29.011686      29.011686      29.011686      1.0097959     -4244.8697      537.89615     -1826.1609    
     86000   86000          293.24773      2617.0211      261.99699     -669.97319      1764.8398     -2434.813       679.84856      1101.883      -3479.6433      1.5283892     -331.15306      265.7463      -673.02281     -85.90688       24418.496      29.011686      29.011686      29.011686      1.0097959      3483.6357      3280.7169      1086.7106    
     87000   87000          297.9314      -317.49286     -771.10934     -658.04419      1793.0273     -2451.0715      656.2147       1129.9217     -3487.101      -0.24906589    -339.79475      264.03992     -674.10302     -85.90688       24418.496      29.011686      29.011686      29.011686      1.0097959      963.16819     -1077.8997     -837.74707    
     88000   88000          299.39229     -388.96897     -724.86395     -586.34482      1801.8193     -2388.1641      713.96835      1135.3784     -3505.6278      1.072511      -325.75319      265.80389     -673.00622     -85.90688       24418.496      29.011686      29.011686      29.011686      1.0097959     -2589.765       1826.8525     -403.99443    
     89000   89000          293.63508     -1024.5378     -1012.4752     -647.6181       1767.1709     -2414.789       701.2025       1122.3886     -3488.7178      2.1266261     -348.70702      268.34384     -671.42578     -85.90688       24418.496      29.011686      29.011686      29.011686      1.0097959     -1267.6722     -1366.7108     -439.23043    
     90000   90000          303.48648     -893.1573      -942.58023     -624.5102       1826.4592     -2450.9694      664.7449       1072.7357     -3448.9942      2.1270827     -342.53512      270.77927     -669.82698     -85.90688       24418.496      29.011686      29.011686      29.011686      1.0097959     -1482.4961     -159.04053     -1037.9352    
     91000   91000          297.31977     -259.63936     -787.80468     -695.34224      1789.3464     -2484.6886      675.79502      1096.0361     -3473.7354      1.6114199     -384.51351      271.02037     -670.90259     -85.90688       24418.496      29.011686      29.011686      29.011686      1.0097959     -436.36766      722.10108     -1064.6515    
     92000   92000          302.52265      2277.9192      224.15908     -587.05058      1820.6586     -2407.7092      672.23312      1119.0816     -3495.182       2.0369619     -298.72906      264.72975     -671.87958     -85.90688       24418.496      29.011686      29.011686      29.011686      1.0097959      749.64224      3160.0258      2924.0895    
     93000   93000          294.83583      1212.9378     -224.37256     -656.32242      1774.3973     -2430.7198      671.23757      1113.2378     -3481.6005      0.81940052    -335.16555      271.09571     -670.34417     -85.90688       24418.496      29.011686      29.011686      29.011686      1.0097959      701.4799       2312.8097      624.52387    
     94000   94000          293.86443      480.65036     -532.70237     -703.87097      1768.5512     -2472.4222      641.9448       1076.9023     -3435.9082      1.7700089     -354.19855      268.67571     -671.6082      -85.90688       24418.496      29.011686      29.011686      29.011686      1.0097959      1127.9824      138.627        175.34172    
     95000   95000          305.52263      148.66231     -499.77863     -552.72006      1838.7133     -2391.4333      680.19131      1127.038      -3457.8669      1.480599      -339.36805      268.21591     -671.12422     -85.90688       24418.496      29.011686      29.011686      29.011686      1.0097959      2152.6289     -669.6938      -1036.9482    
     96000   96000          295.47159      497.3158      -473.01385     -650.11732      1778.2235     -2428.3408      679.73417      1082.9938     -3421.7711      1.0892372     -368.12619      270.07795     -672.33867     -85.90688       24418.496      29.011686      29.011686      29.011686      1.0097959      1639.1806      460.53841     -607.77164    
     97000   97000          313.33893     -827.60572     -814.18995     -519.46406      1885.7537     -2405.2178      698.8996       1113.3741     -3458.232       1.6569569     -360.29997      270.23726     -670.85365     -85.90688       24418.496      29.011686      29.011686      29.011686      1.0097959      1197.8537     -1973.533      -1707.1378    
     98000   98000          299.60547      1221.8493     -186.07482     -621.19822      1803.1023     -2424.3005      695.68396      1091.6306     -3471.2121      0.85889078    -338.57749      269.92852     -672.61283     -85.90688       24418.496      29.011686      29.011686      29.011686      1.0097959      1730.6615      1035.0321      899.85418    
     99000   99000          290.9844      -1176.1704     -1115.9214     -697.0651       1751.2185     -2448.2836      686.00239      1141.8505     -3517.1191      0.016406156   -353.19007      265.78206     -671.62582     -85.90688       24418.496      29.011686      29.011686      29.011686      1.0097959     -2565.7291      1123.9414     -2086.7234    
    100000   100000         294.82263      88.03027      -629.00859     -660.35782      1774.3179     -2434.6757      680.72971      1081.3806     -3437.5293      1.3177377     -353.31839      265.80872     -673.06478     -85.90688       24418.496      29.011686      29.011686      29.011686      1.0097959     -13.556        -2184.845       2462.4919    
    101000   101000         284.52701      312.29156     -598.14565     -709.35852      1712.3563     -2421.7148      726.27556      1097.2532     -3488.6298      0.45606034    -356.50171      270.5172      -671.08529     -85.90688       24418.496      29.011686      29.011686      29.011686      1.0097959      389.53407     -441.40244      988.74306    
    102000   102000         297.66588     -761.74709     -952.40624     -681.13384      1791.4293     -2472.5632      693.95476      1081.4407     -3476.0066      2.2110739     -368.95319      267.79422     -673.00406     -85.90688       24418.496      29.011686      29.011686      29.011686      1.0097959     -889.97318     -1331.5304     -63.737686    
    103000   103000         295.03992     -197.68307     -698.82377     -628.42513      1775.6256     -2404.0508      700.34558      1127.0424     -3459.7145      1.1962104     -364.46044      265.35494     -673.81498     -85.90688       24418.496      29.011686      29.011686      29.011686      1.0097959     -2568.2864      588.82918      1386.408     
    104000   104000         296.78918      489.15084     -496.39276     -670.58853      1786.1531     -2456.7417      673.37766      1084.8735     -3447.4659      0.37384018    -356.24386      262.33409     -673.99093     -85.90688       24418.496      29.011686      29.011686      29.011686      1.0097959      617.35994     -937.28994      1787.3825    
    105000   105000         291.49887     -1090.1515     -1089.581      -701.35767      1754.3147     -2455.6724      648.34965      1101.4493     -3433.2187      2.3910538     -360.81266      262.54386     -676.37482     -85.90688       24418.496      29.011686      29.011686      29.011686      1.0097959     -541.80268     -1122.9442     -1605.7077    
    106000   106000         295.89034      735.31011     -401.93869     -663.79638      1780.7437     -2444.5401      687.97022      1094.5813     -3475.9546      2.5070525     -350.58141      269.27449     -672.33706     -85.90688       24418.496      29.011686      29.011686      29.011686      1.0097959      1147.1163     -751.38921      1810.2033    
    107000   107000         301.93755     -2540.5296     -1512.5975     -607.86732      1817.1373     -2425.0047      707.17996      1084.7045     -3459.3986      1.5686539     -351.90701      265.72196     -672.87417     -85.90688       24418.496      29.011686      29.011686      29.011686      1.0097959     -3253.0854     -3538.3028     -830.20057    
    108000   108000         296.7623      -548.80156     -826.77544     -631.33693      1785.9913     -2417.3283      684.80785      1100.1583     -3452.4089      1.2890517     -341.9406       264.45547     -673.68944     -85.90688       24418.496      29.011686      29.011686      29.011686      1.0097959     -1348.8418      573.76832     -871.33119    
    109000   109000         289.61231     -155.92188     -773.61059     -718.08389      1742.9609     -2461.0448      697.95881      1059.9415     -3472.9697      2.4526935     -345.86972      270.30186     -672.86024     -85.90688       24418.496      29.011686      29.011686      29.011686      1.0097959     -1395.6492      1307.145      -379.26142    
    110000   110000         307.90096      2255.7959      181.9058      -621.42535      1853.0267     -2474.452       677.52413      1084.4098     -3484.9603      1.1190168     -346.28241      266.45597     -672.71831     -85.90688       24418.496      29.011686      29.011686      29.011686      1.0097959      1475.3285      888.67715      4403.3821    
    111000   111000         303.88592      2573.5472      312.63569     -603.85266      1828.8631     -2432.7158      683.55227      1118.7179     -3499.2133      1.9707285     -326.29208      261.61469     -673.066       -85.90688       24418.496      29.011686      29.011686      29.011686      1.0097959      2711.7178      4898.8115      110.11245    
    112000   112000         299.33988      315.9102      -538.41173     -650.91326      1801.5039     -2452.4171      679.29377      1118.0127     -3504.3853      2.879571      -341.63887      265.74676     -672.3257      -85.90688       24418.496      29.011686      29.011686      29.011686      1.0097959     -527.73882      701.26696      774.20244    
    113000   113000         302.23393     -781.10623     -908.87233     -630.70578      1818.921      -2449.6268      690.67296      1102.7592     -3498.6577      1.6446762     -348.44898      272.04029     -669.63731     -85.90688       24418.496      29.011686      29.011686      29.011686      1.0097959      693.05951     -2.1337326     -3034.2445    
    114000   114000         290.93018     -459.22286     -871.06267     -707.52482      1750.8921     -2458.417       684.1046       1120.3148     -3514.8167      1.6672903     -346.24972      269.06198     -672.49915     -85.90688       24418.496      29.011686      29.011686      29.011686      1.0097959      333.97041     -3262.9445      1551.3055    
    115000   115000         292.76012      553.05662     -474.99765     -671.95146      1761.9052     -2433.8567      702.99239      1100.3239     -3477.4857      0.99315761    -358.00677      270.55457     -673.22825     -85.90688       24418.496      29.011686      29.011686      29.011686      1.0097959      1623.7805     -1068.7018      1104.0912    
    116000   116000         306.05245      979.50604     -188.78412     -537.60455      1841.9018     -2379.5064      682.96766      1180.1278     -3473.8176      2.5614662     -363.78211      265.4461      -673.00963     -85.90688       24418.496      29.011686      29.011686      29.011686      1.0097959      269.07594      2442.6635      226.77871    
    117000   117000         302.52898     -455.46064     -759.13644     -596.93838      1820.6967     -2417.6351      668.41797      1150.1494     -3466.3383      2.1775393     -366.65292      267.80394     -673.19271     -85.90688       24418.496      29.011686      29.011686      29.011686      1.0097959     -1465.2888     -312.5719       411.47879    
    118000   118000         302.97531      834.82563     -364.89153     -662.18856      1823.3828     -2485.5714      672.14842      1065.9834     -3473.6052      1.8307913     -343.04154      266.04799     -674.93525     -85.90688       24418.496      29.011686      29.011686      29.011686      1.0097959      1492.7674      41.885144      969.82433    
    119000   119000         296.68832      459.44077     -492.86798     -656.48344      1785.5461     -2442.0295      676.36904      1118.79       -3490.0537      2.0302531     -342.52228      266.70312     -673.34595     -85.90688       24418.496      29.011686      29.011686      29.011686      1.0097959      1399.8873     -1286.5933      1265.0283    
    120000   120000         294.95887      655.15928     -395.35674     -628.67122      1775.1378     -2403.8091      713.47691      1094.1554     -3446.2313      0.72920291    -360.44142      267.34442     -672.84226     -85.90688       24418.496      29.011686      29.011686      29.011686      1.0097959      22.837217      1745.2784      197.36218    
    121000   121000         300.14021     -150.78445     -613.21438     -559.51721      1806.3205     -2365.8377      720.94429      1141.4196     -3480.4882      0.97098891    -344.86765      268.15961     -671.97629     -85.90688       24418.496      29.011686      29.011686      29.011686      1.0097959     -618.51876      191.98542     -25.820003    
    122000   122000         289.80369     -730.44806     -929.23378     -669.10755      1744.1126     -2413.2202      700.59914      1151.8179     -3491.3314      1.1318298     -373.1867       268.81254     -671.06356     -85.90688       24418.496      29.011686      29.011686      29.011686      1.0097959     -2637.7726     -1704.672       2151.1004    
    123000   123000         302.44558     -250.73908     -708.53289     -619.24001      1820.1948     -2439.4348      669.29197      1127.2054     -3481.9651      1.6515019     -353.58323      267.45993     -669.49521     -85.90688       24418.496      29.011686      29.011686      29.011686      1.0097959     -803.35485      11.386169      39.751443    
    124000   124000         294.23039     -2366.0443     -1515.7794     -673.18674      1770.7537     -2443.9404      705.35827      1084.2341     -3474.808       3.8127783     -362.81434      270.4565      -670.17968     -85.90688       24418.496      29.011686      29.011686      29.011686      1.0097959     -3370.9529     -1797.3728     -1929.8071    
    125000   125000         303.93524     -250.43982     -639.58345     -550.39714      1829.1599     -2379.557       675.21846      1152.5673     -3463.3721      0.61478513    -343.23484      268.62099     -669.97164     -85.90688       24418.496      29.011686      29.011686      29.011686      1.0097959     -1049.0276      371.61567     -73.90757     
    126000   126000         303.14935      642.60078     -404.66436     -633.50653      1824.4302     -2457.9367      693.19388      1083.0924     -3472.2238      2.1503383     -358.96297      267.44379     -672.63042     -85.90688       24418.496      29.011686      29.011686      29.011686      1.0097959      1165.63        1173.6713     -411.49892    
    127000   127000         291.97523      871.18231     -327.36517     -637.6095       1757.1815     -2394.791       699.8847       1150.6198     -3488.7298      0.94304717    -355.1363       269.81939     -672.19188     -85.90688       24418.496      29.011686      29.011686      29.011686      1.0097959      3711.348      -917.81774     -179.98334    
    128000   128000         293.77683     -1189.6238     -1101.4985     -677.85124      1768.024      -2445.8753      704.02487      1072.2778     -3473.7778      0.30329651    -342.21032      266.50493     -672.99803     -85.90688       24418.496      29.011686      29.011686      29.011686      1.0097959     -1208.7363      1279.8925     -3640.0276    
    129000   129000         311.03071     -204.74462     -570.29584     -497.38245      1871.8623     -2369.2447      713.99261      1186.7436     -3506.912       0.85457931    -358.95932      267.0686      -672.03276     -85.90688       24418.496      29.011686      29.011686      29.011686      1.0097959      1788.3503     -443.83884     -1958.7454    
    130000   130000         294.98778     -244.17133     -711.78693     -624.83295      1775.3118     -2400.1448      691.72372      1146.8119     -3473.3516      2.3083807     -361.97309      266.938       -672.60208     -85.90688       24418.496      29.011686      29.011686      29.011686      1.0097959      2449.9963     -2072.0616     -1110.4487    
    131000   131000         304.63288      25.378653     -613.40793     -622.44574      1833.3585     -2455.8043      684.93921      1088.3923     -3460.9068      1.6399228     -365.23776      268.462       -673.09308     -85.90688       24418.496      29.011686      29.011686      29.011686      1.0097959      540.75669     -1107.9067      643.28597    
    132000   132000         290.39746     -836.74667     -950.55595     -652.5748       1747.6861     -2400.2609      714.2345       1152.7259     -3498.1851      1.0024452     -364.94174      266.58696     -671.6839      -85.90688       24418.496      29.011686      29.011686      29.011686      1.0097959     -769.59948     -1087.1399     -653.50064    
    133000   133000         303.16024     -500.49048     -771.05117     -592.81714      1824.4958     -2417.3129      749.20548      1070.1787     -3495.7825      1.2497766     -338.50356      269.48297     -673.14383     -85.90688       24418.496      29.011686      29.011686      29.011686      1.0097959     -31.966384     -320.34085     -1149.1642    
    134000   134000         299.27193     -546.84389     -777.40441     -582.66306      1801.0949     -2383.758       701.0699       1128.7677     -3450.2735      1.6188841     -358.96571      269.10307     -675.07837     -85.90688       24418.496      29.011686      29.011686      29.011686      1.0097959     -4121.5084      2394.6029      86.373818    
    135000   135000         300.84988     -213.11927     -701.77893     -625.88316      1810.5915     -2436.4746      703.12781      1108.8459     -3481.6695      1.280038      -360.12404      265.92748     -673.86225     -85.90688       24418.496      29.011686      29.011686      29.011686      1.0097959     -723.08002      1507.5824     -1423.8602    
    136000   136000         299.79481      950.60353     -233.29536     -571.82307      1804.2417     -2376.0648      712.58996      1128.6118     -3461.5781      1.6753366     -353.06613      267.75472     -672.05234     -85.90688       24418.496      29.011686      29.011686      29.011686      1.0097959      1842.109      -1189.1473      2198.8489    
    137000   137000         302.65135      1399.2897     -175.68571     -673.99897      1821.4331     -2495.4321      650.66478      1101.0859     -3494.0774      0.01548367    -346.34836      266.01402     -672.7865      -85.90688       24418.496      29.011686      29.011686      29.011686      1.0097959      1663.7992      335.27771      2198.7922    
    138000   138000         299.78015      1284.8365     -205.44705     -663.00136      1804.1536     -2467.1549      677.40866      1091.8636     -3488.7669      1.2237343     -340.19214      265.45566     -674.14752     -85.90688       24418.496      29.011686      29.011686      29.011686      1.0097959      3087.1806      386.63215      380.69657    
    139000   139000         305.88944     -719.58495     -847.36081     -591.10315      1840.9208     -2432.0239      702.21359      1115.8575     -3497.2995      0.62240141    -348.02138      267.70184     -673.09836     -85.90688       24418.496      29.011686      29.011686      29.011686      1.0097959     -1662.8602      1359.9043     -1855.7989    
    140000   140000         308.73938      1281.0677     -121.72443     -577.93661      1858.0725     -2436.0091      692.69917      1113.036      -3486.9025      0.23742637    -351.73383      269.19176     -672.53708     -85.90688       24418.496      29.011686      29.011686      29.011686      1.0097959      1331.0172      1414.937       1097.2489    
    141000   141000         291.16796      1855.8216      16.286723     -644.6061       1752.3232     -2396.9293      690.19885      1134.7431     -3472.8017      0.52175234    -342.33559      266.14503     -673.40066     -85.90688       24418.496      29.011686      29.011686      29.011686      1.0097959      347.71707      1526.8547      3692.8931    
    142000   142000         299.29717     -758.45463     -927.64057     -657.54068      1801.2469     -2458.7875      706.96982      1125.8832     -3510.7699      1.6255035     -378.96074      269.4853      -673.0207      -85.90688       24418.496      29.011686      29.011686      29.011686      1.0097959     -1118.2234      407.56832     -1564.7088    
    143000   143000         297.43568     -621.72569     -890.70998     -669.30183      1790.0439     -2459.3458      703.10532      1068.086      -3459.9199      1.0700525     -368.92096      268.95611     -671.72234     -85.90688       24418.496      29.011686      29.011686      29.011686      1.0097959     -3413.7517      716.81765      831.75696    
    144000   144000         300.27556     -691.94975     -878.60389     -632.18763      1807.1351     -2439.3227      698.828        1103.6025     -3512.5652      1.5394088     -326.53232      266.9189      -671.11391     -85.90688       24418.496      29.011686      29.011686      29.011686      1.0097959     -2402.6407     -728.65082      1055.4423    
    145000   145000         303.65952     -590.62444     -815.25959     -604.92717      1827.5006     -2432.4278      707.37176      1102.384      -3477.6218      1.124778      -357.80663      264.99083     -672.8707      -85.90688       24418.496      29.011686      29.011686      29.011686      1.0097959     -665.93219     -868.96347     -236.97764    
    146000   146000         302.23135     -1041.4093     -997.09443     -626.22909      1818.9055     -2445.1346      709.46223      1108.9728     -3496.305       0.62765023    -362.36977      267.62452     -673.14696     -85.90688       24418.496      29.011686      29.011686      29.011686      1.0097959      986.69531     -1507.9854     -2602.9377    
    147000   147000         292.59425     -736.21709     -910.80275     -648.62206      1760.907      -2409.529       694.60206      1192.1683     -3529.6017      2.1830905     -359.76746      265.34675     -674.46011     -85.90688       24418.496      29.011686      29.011686      29.011686      1.0097959     -2053.2827      227.30682     -382.67541    
    148000   148000         305.03096     -517.03287     -745.33293     -561.20785      1835.7543     -2396.9621      700.45618      1163.1513     -3499.8242      1.2653189     -354.8156       266.51827     -673.71337     -85.90688       24418.496      29.011686      29.011686      29.011686      1.0097959     -1318.0282     -781.21819      548.14778    
    149000   149000         296.35877     -431.66457     -805.88469     -652.16086      1783.5628     -2435.7236      703.41996      1125.7379     -3493.2186     -0.40737999    -359.30192      262.74142     -674.69499     -85.90688       24418.496      29.011686      29.011686      29.011686      1.0097959     -1852.4236     -932.89712      1490.327     
    150000   150000         299.92737      2370.5618      171.52133     -672.68009      1805.0395     -2477.7196      656.23683      1118.6321     -3490.755       0.6950726     -355.62352      266.87035     -673.7755      -85.90688       24418.496      29.011686      29.011686      29.011686      1.0097959      2291.0154      1949.9033      2870.7666    
    151000   151000         299.38797      808.49448     -317.24615     -605.16617      1801.7933     -2406.9595      730.87527      1120.2876     -3490.3731      0.98761812    -354.62141      262.43031     -676.54582     -85.90688       24418.496      29.011686      29.011686      29.011686      1.0097959     -457.74489      3715.124      -831.89568    
    152000   152000         302.1561       798.78286     -329.56548     -614.02701      1818.4526     -2432.4796      688.24649      1124.8066     -3481.6791      1.2227931     -358.17377      266.67036     -673.57304     -85.90688       24418.496      29.011686      29.011686      29.011686      1.0097959      58.880792      531.80438      1805.6634    
    153000   153000         305.22699     -299.57996     -742.59911     -635.91308      1836.934      -2472.8471      710.33555      1084.6461     -3476.0745     -0.7676593     -385.61698      266.82658     -672.19619     -85.90688       24418.496      29.011686      29.011686      29.011686      1.0097959      6.8211808      336.10906     -1241.6701    
    154000   154000         296.76532      738.77595     -389.19977     -652.29171      1786.0095     -2438.3012      680.3941       1095.5908     -3467.0498     -0.37318471    -344.9898       269.5037      -671.37705     -85.90688       24418.496      29.011686      29.011686      29.011686      1.0097959     -932.89017      2180.6721      968.54594    
    155000   155000         293.4133       977.7565      -378.54755     -726.74494      1765.8362     -2492.5811      702.6136       1052.7409     -3485.0417      0.35850584    -356.47334      266.70497     -673.48405     -85.90688       24418.496      29.011686      29.011686      29.011686      1.0097959      1209.9827      1489.3634      233.9234     
    156000   156000         297.61026      1982.7168      43.382098     -662.70048      1791.0946     -2453.7951      677.13295      1057.8615     -3467.316       1.8892042     -319.38759      268.29169     -672.26676     -85.90688       24418.496      29.011686      29.011686      29.011686      1.0097959      1797.8787      283.38397      3866.8878    
    157000   157000         306.57342      140.81807     -541.62754     -591.77549      1845.0372     -2436.8127      670.00625      1117.2571     -3457.7044     -0.14700744    -369.63431      272.09933     -668.68954     -85.90688       24418.496      29.011686      29.011686      29.011686      1.0097959     -1363.9971      1751.2998      35.151559    
    158000   158000         299.42036      217.19308     -536.95589     -614.30241      1801.9882     -2416.2906      707.48777      1121.5859     -3484.9196      1.2750298     -354.9851       265.4132      -672.14781     -85.90688       24418.496      29.011686      29.011686      29.011686      1.0097959      2054.464      -1126.1484     -276.73639    
    159000   159000         299.52543      1433.0088     -87.558076     -597.87934      1802.6205     -2400.4999      693.25027      1124.8477     -3454.6105      2.8770005     -362.76894      267.64343     -671.73888     -85.90688       24418.496      29.011686      29.011686      29.011686      1.0097959      1549.0587      798.98485      1950.9829    
    160000   160000         300.54623     -467.29378     -763.48981     -597.07774      1808.764      -2405.8417      677.13388      1132.8624     -3461.0042      0.87811935    -347.86274      263.2836      -671.13276     -85.90688       24418.496      29.011686      29.011686      29.011686      1.0097959     -319.94885      1013.1335     -2095.066     
    161000   161000         304.82313      82.736783     -622.73543     -652.19955      1834.5035     -2486.703       680.53285      1087.7352     -3481.0264      1.1051172     -372.01058      268.38581     -671.42495     -85.90688       24418.496      29.011686      29.011686      29.011686      1.0097959     -1356.2065      820.58075      783.83607    
    162000   162000         302.63906     -455.03745     -767.35365     -605.3063       1821.3592     -2426.6655      711.58679      1112.9106     -3523.4288      1.6497893     -319.80967      262.70426     -672.27842     -85.90688       24418.496      29.011686      29.011686      29.011686      1.0097959     -700.6158      -1587.4709      922.97437    
[...]
    952000   952000         306.22758      2099.6256      173.50478     -574.21119      1842.9558     -2417.167       692.63942      1147.8596     -3489.8973      0.73813876    -363.71729      267.23798     -672.02754     -85.90688       24418.496      29.011686      29.011686      29.011686      1.0097959      1852.4303      1434.3491      3012.0974    
    953000   953000         296.05648      1557.4179     -88.44769      -643.07334      1781.7435     -2424.8169      730.68763      1093.1171     -3500.6986      0.71279316    -344.64023      268.40508     -672.40061     -85.90688       24418.496      29.011686      29.011686      29.011686      1.0097959      1328.3432      1693.6515      1650.2589    
    954000   954000         299.70455     -1055.3911     -948.99806     -573.15353      1803.6986     -2376.8521      716.62373      1175.8187     -3496.4059      0.15918418    -372.09077      269.29443     -670.25151     -85.90688       24418.496      29.011686      29.011686      29.011686      1.0097959     -843.44712     -3108.8652      786.13893    
    955000   955000         287.21539      877.18676     -435.90685     -748.28948      1728.5356     -2476.8251      693.96753      1089.1733     -3518.508      -0.16369251    -339.71538      269.26916     -670.84805     -85.90688       24418.496      29.011686      29.011686      29.011686      1.0097959     -1087.8555      2651.4109      1068.0049    
    956000   956000         305.70432     -366.03662     -729.98528     -599.63279      1839.8067     -2439.4395      707.56108      1099.911      -3491.6032      1.8894739     -350.7617       265.20764     -671.64377     -85.90688       24418.496      29.011686      29.011686      29.011686      1.0097959      1418.5359     -1524.3256     -992.32007    
    957000   957000         293.11481     -102.83267     -663.46499     -626.84435      1764.0398     -2390.8841      699.31334      1153.9932     -3484.0171      0.99869192    -356.65895      266.37714     -670.89045     -85.90688       24418.496      29.011686      29.011686      29.011686      1.0097959     -980.52624      381.17697      290.85126    
    958000   958000         302.72452      2090.5189      179.28935     -565.18354      1821.8735     -2387.0571      683.03609      1154.9369     -3486.997       0.70730141    -337.63644      269.44091     -670.54478     -85.90688       24418.496      29.011686      29.011686      29.011686      1.0097959      654.43241      2846.4525      2770.6717    
    959000   959000         306.0543      -540.62561     -805.73697     -613.21007      1841.913      -2455.1231      678.33507      1109.6767     -3497.4564      1.1834876     -342.34055      268.51567     -673.03709     -85.90688       24418.496      29.011686      29.011686      29.011686      1.0097959     -1852.4326     -135.08413      365.63989    
    960000   960000         291.80519      763.69307     -471.72187     -743.68727      1756.1582     -2499.8455      675.9023       1100.9544     -3504.5927      1.5995627     -366.67962      265.69548     -672.72489     -85.90688       24418.496      29.011686      29.011686      29.011686      1.0097959      2423.994       805.90398     -938.81873    
    961000   961000         299.63182      1052.5514     -190.71211     -565.54536      1803.2608     -2368.8062      717.8803       1153.4398     -3507.3372      1.5308638     -331.34385      269.06561     -672.04172     -85.90688       24418.496      29.011686      29.011686      29.011686      1.0097959      2088.6779      418.02789      650.94839    
    962000   962000         302.35656      428.01122     -482.84472     -635.26753      1819.6591     -2454.9266      652.51702      1136.7446     -3481.6417      0.3750419     -355.0449       265.4995      -673.37611     -85.90688       24418.496      29.011686      29.011686      29.011686      1.0097959     -168.48895      2220.0805     -767.55786    
    963000   963000         298.29682     -455.67558     -767.6429      -605.36829      1795.2265     -2400.5947      721.1531       1103.6634     -3494.4002      1.1544879     -320.39602      262.47974     -674.24924     -85.90688       24418.496      29.011686      29.011686      29.011686      1.0097959      1576.7325     -1804.7734     -1138.9858    
    964000   964000         296.08073     -596.73183     -833.25956     -620.75219      1781.8895     -2402.6416      675.265        1167.908      -3468.1279      0.90790679    -369.03675      264.13701     -673.69494     -85.90688       24418.496      29.011686      29.011686      29.011686      1.0097959     -858.52397      912.95293     -1844.6244    
    965000   965000         297.42403      426.22945     -557.40373     -709.19202      1789.9738     -2499.1658      651.70679      1092.9097     -3483.3242     -0.32858847    -354.26237      264.65545     -670.52263     -85.90688       24418.496      29.011686      29.011686      29.011686      1.0097959      550.12202      2701.7618     -1973.1954    
    966000   966000         301.85104      1834.5204      39.665458     -613.6416       1816.6167     -2430.2583      674.79769      1109.0208     -3480.4264      1.3529839     -328.02338      264.76615     -671.74614     -85.90688       24418.496      29.011686      29.011686      29.011686      1.0097959      1089.1734      2402.7275      2011.6603    
    967000   967000         293.20167      571.22384     -425.60714     -629.03064      1764.5625     -2393.5932      712.6787       1155.0667     -3504.1307      0.10987928    -355.55204      269.48901     -671.25476     -85.90688       24418.496      29.011686      29.011686      29.011686      1.0097959      252.56948      1870.0482     -408.94611    
    968000   968000         301.03151      186.37556     -533.23212     -599.60394      1811.6846     -2411.2885      695.08601      1095.801      -3478.6663      1.7913849     -322.08888      269.29249     -672.50423     -85.90688       24418.496      29.011686      29.011686      29.011686      1.0097959      197.30323     -383.65909      745.48253    
    969000   969000         296.17634      1503.1857     -49.190521     -584.50308      1782.4649     -2366.9679      687.8613       1192.6596     -3517.5521      0.5726654     -325.91369      266.98477     -671.58053     -85.90688       24418.496      29.011686      29.011686      29.011686      1.0097959     -1764.5283      2644.1159      3629.9695    
    970000   970000         302.2561      -67.974915     -636.58093     -612.37379      1819.0544     -2431.4282      681.41344      1124.6188     -3502.7105      2.3503754     -336.26519      269.1615      -669.99668     -85.90688       24418.496      29.011686      29.011686      29.011686      1.0097959     -1056.8036      1536.4876     -683.60876    
    971000   971000         289.35772      522.17785     -489.35597     -675.31327      1741.4287     -2416.742       707.34438      1137.1866     -3521.6736      1.6300378     -337.36066      266.98475     -670.85343     -85.90688       24418.496      29.011686      29.011686      29.011686      1.0097959      560.9854      -214.32058      1219.8687    
    972000   972000         297.75912     -27.587158     -665.1783      -655.354        1791.9905     -2447.3445      695.16517      1114.8782     -3483.045       1.6501543     -366.17001      263.67593     -673.49891     -85.90688       24418.496      29.011686      29.011686      29.011686      1.0097959      790.05594     -394.91912     -477.89829    
    973000   973000         304.83661      1977.7295      43.989818     -660.31666      1834.5846     -2494.9013      679.78178      1096.3411     -3489.4995      1.9525995     -374.81421      264.19459     -672.85755     -85.90688       24418.496      29.011686      29.011686      29.011686      1.0097959      857.23282      1482.2783      3593.6773    
    974000   974000         308.39048      1.838744      -597.12032     -597.77513      1855.9727     -2453.7479      695.35908      1110.0295     -3486.8555      1.6242482     -365.1799       262.80945     -671.53473     -85.90688       24418.496      29.011686      29.011686      29.011686      1.0097959      132.19647     -809.41191      682.73167    
    975000   975000         302.49975      713.02757     -374.9272      -628.84967      1820.5208     -2449.3705      708.28003      1126.9072     -3530.2927      0.82313659    -351.03345      266.14032     -670.19499     -85.90688       24418.496      29.011686      29.011686      29.011686      1.0097959     -1129.6252      1302.0718      1966.6361    
    976000   976000         299.07734     -666.76213     -850.48751     -613.04104      1799.9238     -2412.9649      729.59367      1127.0433     -3510.3779      0.24020944    -352.73585      263.71935     -670.44758     -85.90688       24418.496      29.011686      29.011686      29.011686      1.0097959      317.634        162.11928     -2480.0397    
    977000   977000         294.56212      90.601815     -651.12368     -683.38868      1772.7501     -2456.1388      680.02485      1127.5233     -3499.9476      1.2665229     -362.68143      268.34146     -670.66586     -85.90688       24418.496      29.011686      29.011686      29.011686      1.0097959      162.05788     -1916.8047      2026.5522    
    978000   978000         296.87408      895.27833     -311.20884     -630.03422      1786.664      -2416.6983      707.99358      1156.4209     -3527.7046      1.3092719     -347.999        264.18125     -670.89968     -85.90688       24418.496      29.011686      29.011686      29.011686      1.0097959      2286.8322     -246.16435      645.16717    
    979000   979000         300.70995      712.53802     -352.57279     -606.32091      1809.7493     -2416.0702      726.65307      1156.149      -3504.2333      1.6208964     -390.15793      265.64824     -671.75023     -85.90688       24418.496      29.011686      29.011686      29.011686      1.0097959      194.78248      226.70687      1716.1247    
    980000   980000         300.4254      -662.18667     -892.84903     -657.03196      1808.0368     -2465.0688      706.4105       1113.9582     -3533.9294      1.8406252     -347.9503       267.05688     -672.45528     -85.90688       24418.496      29.011686      29.011686      29.011686      1.0097959      1794.2173      767.25725     -4548.0346    
    981000   981000         307.91423      771.51231     -292.25037     -567.00035      1853.1065     -2420.1069      712.93948      1100.2445     -3454.451       2.4089206     -376.25028      267.8295      -672.82793     -85.90688       24418.496      29.011686      29.011686      29.011686      1.0097959      91.574048      41.004516      2181.9584    
    982000   982000         304.7107       208.31658     -527.16916     -601.35459      1833.8268     -2435.1814      696.05953      1114.7703     -3478.4839      1.3160735     -365.4349       268.12164     -671.53014     -85.90688       24418.496      29.011686      29.011686      29.011686      1.0097959      1214.4304     -534.08334     -55.397382    
    983000   983000         289.58823     -289.1932      -805.90164     -702.91452      1742.816      -2445.7305      667.66589      1138.0659     -3498.9357      1.1036613     -345.84901      264.64898     -672.4302      -85.90688       24418.496      29.011686      29.011686      29.011686      1.0097959     -2734.9642      1699.3749      168.00968    
    984000   984000         298.55995     -797.67928     -899.30542     -615.2369       1796.81       -2412.0469      680.26581      1174.8896     -3510.8788      1.0633731     -346.40009      262.75912     -673.74596     -85.90688       24418.496      29.011686      29.011686      29.011686      1.0097959      146.96474     -897.83807     -1642.1645    
    985000   985000         303.7825      -228.37218     -702.46413     -621.13652      1828.2407     -2449.3772      699.2493       1086.5842     -3501.9175      0.84378065    -326.79207      266.00815     -673.35305     -85.90688       24418.496      29.011686      29.011686      29.011686      1.0097959     -2841.4215      2128.1539      28.151041    
    986000   986000         294.20202      689.07031     -318.13168     -563.52251      1770.5829     -2334.1054      733.83387      1193.3623     -3517.5451      0.24767842    -337.72861      267.36705     -673.64264     -85.90688       24418.496      29.011686      29.011686      29.011686      1.0097959     -459.51071      898.76756      1627.9541    
    987000   987000         292.31032      1658.5523     -67.602201     -658.2437       1759.1982     -2417.4419      697.63797      1155.4353     -3508.1076     -0.11520811    -355.04159      265.15531     -672.40607     -85.90688       24418.496      29.011686      29.011686      29.011686      1.0097959      1158.0714      3923.023      -105.43769    
    988000   988000         296.5621       746.98949     -309.28071     -575.29765      1784.7865     -2360.0841      715.35721      1162.5358     -3491.3288      1.7912645     -346.86247      270.08046     -671.65756     -85.90688       24418.496      29.011686      29.011686      29.011686      1.0097959      1715.1176      1156.2162     -630.36534    
    989000   989000         296.21004      379.30848     -461.5348      -596.61365      1782.6677     -2379.2813      711.02816      1143.0029     -3516.7444      1.121807      -315.67112      269.40688     -671.42553     -85.90688       24418.496      29.011686      29.011686      29.011686      1.0097959      1813.246      -925.356        250.03541    
    990000   990000         298.78401     -659.42329     -878.36116     -643.52818      1798.1585     -2441.6867      665.95902      1163.0776     -3511.3688      1.2675183     -357.95529      266.70076     -669.36756     -85.90688       24418.496      29.011686      29.011686      29.011686      1.0097959     -1636.0212      1730.9443     -2073.1929    
    991000   991000         302.81835      2422.101       360.07783     -502.47766      1822.4382     -2324.9159      729.64575      1179.0312     -3487.8581      1.0779108     -341.4005       265.53618     -670.94832     -85.90688       24418.496      29.011686      29.011686      29.011686      1.0097959      2961.3244      2915.6637      1389.3149    
    992000   992000         299.43116      715.82525     -373.65187     -628.57064      1802.0532     -2430.6238      685.67934      1148.2729     -3520.9217      1.5203333     -338.82865      267.04714     -673.39318     -85.90688       24418.496      29.011686      29.011686      29.011686      1.0097959      728.81296      2378.7598     -960.09705    
    993000   993000         296.38382     -496.72854     -846.68984     -669.79551      1783.7135     -2453.5091      713.21488      1054.3331     -3474.5263      1.3603369     -345.13335      268.58506     -671.34277     -85.90688       24418.496      29.011686      29.011686      29.011686      1.0097959     -679.8848       178.7324      -989.0332     
    994000   994000         302.04982     -685.03603     -902.03605     -658.0819       1817.813      -2475.8949      689.43214      1093.869      -3506.413       1.6701613     -348.73846      267.73272     -673.44745     -85.90688       24418.496      29.011686      29.011686      29.011686      1.0097959     -715.00946      457.6127      -1797.7113    
    995000   995000         296.12942      630.94608     -393.33411     -618.02582      1782.1825     -2400.2083      685.67404      1154.3551     -3474.9275      1.0995606     -365.60339      270.96089     -671.76698     -85.90688       24418.496      29.011686      29.011686      29.011686      1.0097959      2941.3852     -787.48701     -261.05999    
    996000   996000         293.96633      1459.1594     -103.73908     -623.37304      1769.1645     -2392.5375      709.22392      1180.0898     -3551.9814      3.5687078     -332.32694      270.88497     -671.99651     -85.90688       24418.496      29.011686      29.011686      29.011686      1.0097959      2650.6393      816.51961      910.31921    
    997000   997000         291.20394     -987.37516     -1055.1592     -703.53638      1752.5397     -2456.0761      701.3428       1123.2674     -3505.7555      0.05748044    -372.95757      268.7746      -670.80534     -85.90688       24418.496      29.011686      29.011686      29.011686      1.0097959     -2273.7094     -202.88212     -485.53402    
    998000   998000         294.63564      2618.0866      242.93884     -689.41081      1773.1926     -2462.6034      673.01413      1111.9156     -3496.7576     -0.091930039   -349.4449       269.08767     -670.32634     -85.90688       24418.496      29.011686      29.011686      29.011686      1.0097959      2245.0128      1808.4804      3800.7667    
    999000   999000         296.57906     -2610.645      -1543.6967     -613.99714      1784.8886     -2398.8857      736.19576      1142.2939     -3497.3178      0.31995103    -380.47966      270.48765     -670.3855      -85.90688       24418.496      29.011686      29.011686      29.011686      1.0097959     -3180.7574     -1558.9274     -3092.2502    
   1000000   1000000        306.54731      624.44676     -312.36693     -534.74411      1844.8801     -2379.6242      768.04605      1098.7561     -3493.4715     -0.14797306    -350.65015      268.62783     -670.78448     -85.90688       24418.496      29.011686      29.011686      29.011686      1.0097959     -304.80003      708.42237      1469.7179    
Loop time of 5189.49 on 8 procs for 1000000 steps with 2020 atoms

Performance: 16.649 ns/day, 1.442 hours/ns, 192.697 timesteps/s, 389.248 katom-step/s
97.6% CPU use with 8 MPI tasks x 1 OpenMP threads

MPI task timing breakdown:
Section |  min time  |  avg time  |  max time  |%varavg| %total
---------------------------------------------------------------
Pair    | 1938.8     | 2084.1     | 2146.5     | 132.4 | 40.16
Bond    | 267.76     | 277.86     | 288.45     |  44.3 |  5.35
Kspace  | 1874.2     | 1886.4     | 1896.2     |  18.1 | 36.35
Neigh   | 102.18     | 105.96     | 108.5      |  21.1 |  2.04
Comm    | 149.37     | 153.09     | 155.96     |  17.2 |  2.95
Output  | 0.73936    | 0.83538    | 0.92644    |   6.8 |  0.02
Modify  | 595.93     | 660.49     | 808.5      | 239.7 | 12.73
Other   |            | 20.75      |            |       |  0.40

Nlocal:          252.5 ave         274 max         236 min
Histogram: 1 1 0 2 1 1 0 1 0 1
Nghost:        4136.38 ave        4200 max        4065 min
Histogram: 1 1 0 1 1 0 2 0 0 2
Neighs:              0 ave           0 max           0 min
Histogram: 8 0 0 0 0 0 0 0 0 0
FullNghs:       133086 ave      147043 max      123938 min
Histogram: 2 0 1 2 1 0 0 1 0 1

Total # of neighbors = 1064684
Ave neighs/atom = 527.07129
Ave special neighs/atom = 5.7524752
Neighbor list builds = 33119
Dangerous builds = 0

# --- Cleanup ---
unfix nvt_fix

undump dump_nvt

# --- Write Output ---
write_dump all custom nvt_production_last.dump id type mol x y z xu yu zu vx vy vz modify sort id
write_data /home/alexzhao/PolyJarvis/data/PROPSULFIDE_STOCK/lammps/equil/nvt_production/nvt_production_out.data
System init for write_data ...
PPPM initialization ...
  using 12-bit tables for long-range coulomb
  G vector (1/distance) = 0.28920779
  grid = 18 18 18
  stencil order = 5
  estimated absolute RMS force accuracy = 0.00029416381
  estimated relative force accuracy = 8.8586559e-07
  using double precision KISS FFT
  3d grid and FFT values/proc = 4096 810
Generated 15 of 15 mixed pair_coeff terms from sixthpower/sixthpower mixing rule

print "STAGE COMPLETE: NVT T=300.0->300.0K steps=1000000"
STAGE COMPLETE: NVT T=300.0->300.0K steps=1000000
quit
