LAMMPS data file via write_data, version 22 Jul 2025, timestep = 1000000, units = real

2020 atoms
6 atom types
2010 bonds
7 bond types
3800 angles
12 angle types
4770 dihedrals
14 dihedral types
2400 impropers
11 improper types

0.567398974987217 29.579085125014736 xlo xhi
0.567398974987217 29.579085125014736 ylo yhi
0.567398974987217 29.579085125014736 zlo zhi

Masses

1 12.01115
2 12.01115
3 1.00797
4 1.00797
5 32.064
6 32.064

Pair Coeffs # lj/class2/coul/long/gpu

1 0.054 4.01
2 0.054 4.01
3 0.02 2.995
4 0.02 2.995
5 0.071 4.027
6 0.071 4.027

Bond Coeffs # class2

1 1.53 299.67 -501.77 679.81
2 1.101 345 -691.89 844.6
3 1.823 225.277 -327.706 488.972
4 1.101 345 -691.89 844.6
5 1.823 225.277 -327.706 488.972
6 1.823 225.277 -327.706 488.972
7 1.3261 275.112 -531.318 562.963

Angle Coeffs # class2

1 112.67 39.516 -7.443 -9.5583
2 110.77 41.453 -10.604 5.129
3 112.564 47.0276 -10.679 -10.1687
4 112.564 47.0276 -10.679 -10.1687
5 97.5 57.6938 -5.0559 -11.8206
6 110.77 41.453 -10.604 5.129
7 112.564 47.0276 -10.679 -10.1687
8 96.8479 56.7336 14.2713 0
9 107.66 39.641 -12.921 -2.4318
10 107.852 51.4949 -13.527 7.026
11 107.852 51.4949 -13.527 7.026
12 107.852 51.4949 -13.527 7.026

BondBond Coeffs

1 0 1.53 1.53
2 3.3872 1.53 1.101
3 10.9186 1.53 1.823
4 10.9186 1.53 1.823
5 -22.3144 1.823 1.823
6 3.3872 1.53 1.101
7 10.9186 1.53 1.823
8 -0.57 1.823 1.3261
9 5.3316 1.101 1.101
10 7.0463 1.101 1.823
11 7.0463 1.101 1.823
12 7.0463 1.101 1.823

BondAngle Coeffs

1 8.016 8.016 1.53 1.53
2 20.754 11.421 1.53 1.101
3 -3.5621 22.3865 1.53 1.823
4 -3.5621 22.3865 1.53 1.823
5 -13.0015 -13.0015 1.823 1.823
6 20.754 11.421 1.53 1.101
7 -3.5621 22.3865 1.53 1.823
8 10.7325 5.1221 1.823 1.3261
9 18.103 18.103 1.101 1.101
10 9.3225 44.9874 1.101 1.823
11 9.3225 44.9874 1.101 1.823
12 9.3225 44.9874 1.101 1.823

Dihedral Coeffs # class2

1 0 0 0.0316 0 -0.1681 0
2 -0.7017 0 0.0201 0 0.104 0
3 -0.4871 0 -0.4514 0 -0.1428 0
4 -0.5073 0 0.0155 0 -0.0671 0
5 -0.3338 0 -0.0684 0 -0.1706 0
6 -0.5073 0 0.0155 0 -0.0671 0
7 -0.3338 0 -0.0684 0 -0.1706 0
8 -0.1432 0 0.0617 0 -0.1083 0
9 -0.2078 0 -0.106 0 -0.3595 0
10 -0.2078 0 -0.106 0 -0.3595 0
11 -0.2078 0 -0.106 0 -0.3595 0
12 -0.5374 0 -0.5091 0 -0.1361 0
13 -1.2002 0 -1.2999 0 -0.1626 0
14 -1.2002 0 -1.2999 0 -0.1626 0

AngleAngleTorsion Coeffs

1 -16.164 112.67 110.77
2 -26.71 112.67 112.564
3 -28.1728 112.564 96.8479
4 -32.8949 112.564 97.5
5 -26.49 97.5 107.852
6 -32.8949 112.564 97.5
7 -26.49 97.5 107.852
8 -12.564 110.77 110.77
9 -13.1026 110.77 112.564
10 -13.1026 110.77 112.564
11 -13.1026 110.77 112.564
12 -18.6334 107.852 96.8479
13 -13.9674 112.564 112.564
14 -13.9674 112.564 112.564

EndBondTorsion Coeffs

1 0.2486 0.2422 -0.0925 0.0814 0.0591 0.2219 1.53 1.101
2 -0.1586 -0.7244 -0.2608 -0.7991 -0.959 0.5855 1.53 1.823
3 0.1026 0.0936 -0.0404 -0.3008 0.0606 0.4501 1.53 1.3261
4 -0.2542 -0.7984 -0.6525 -0.3047 -0.0109 -0.3763 1.53 1.823
5 0.2592 -0.0166 0.1306 -0.41 0.0668 0.4187 1.823 1.101
6 -0.2542 -0.7984 -0.6525 -0.3047 -0.0109 -0.3763 1.53 1.823
7 0.2592 -0.0166 0.1306 -0.41 0.0668 0.4187 1.823 1.101
8 0.213 0.312 0.0777 0.213 0.312 0.0777 1.101 1.101
9 -0.1526 -0.371 0.1048 1.0661 0.3298 0.425 1.101 1.823
10 -0.1526 -0.371 0.1048 1.0661 0.3298 0.425 1.101 1.823
11 -0.1526 -0.371 0.1048 1.0661 0.3298 0.425 1.101 1.823
12 0.4376 0.2001 -1.0696 0.2902 0.0695 0.1726 1.101 1.3261
13 -0.3252 0.5008 0.5191 -0.3252 0.5008 0.5191 1.823 1.823
14 -0.3252 0.5008 0.5191 -0.3252 0.5008 0.5191 1.823 1.823

MiddleBondTorsion Coeffs

1 -14.879 -3.6581 -0.3138 1.53
2 -4.2593 -5.6468 -3.3835 1.53
3 0.502 -1.0204 -0.9177 1.823
4 -2.5172 -2.0107 -2.8547 1.823
5 -0.6955 -2.9427 -1.2372 1.823
6 -2.5172 -2.0107 -2.8547 1.823
7 -0.6955 -2.9427 -1.2372 1.823
8 -14.261 -0.5322 -0.4864 1.53
9 -5.7537 -2.0104 0.2813 1.53
10 -5.7537 -2.0104 0.2813 1.53
11 -5.7537 -2.0104 0.2813 1.53
12 -0.3729 0.5373 -0.7035 1.823
13 1.7001 -3.3479 -0.8067 1.53
14 1.7001 -3.3479 -0.8067 1.53

BondBond13 Coeffs

1 0 1.53 1.101
2 0 1.53 1.823
3 0 1.53 1.3261
4 0 1.53 1.823
5 0 1.823 1.101
6 0 1.53 1.823
7 0 1.823 1.101
8 0 1.101 1.101
9 0 1.101 1.823
10 0 1.101 1.823
11 0 1.101 1.823
12 0 1.101 1.3261
13 0 1.823 1.823
14 0 1.823 1.823

AngleTorsion Coeffs

1 -0.2454 0 -0.1136 0.3113 0.4516 -0.1988 112.67 110.77
2 -2.0927 -0.1498 -1.7848 1.1179 0.3638 0.9423 112.67 112.564
3 -0.6045 3.8941 0.8885 1.0193 -0.6016 0.2097 112.564 96.8479
4 5.1289 2.0927 -2.4004 -4.5489 0.0886 0.6237 112.564 97.5
5 -1.0888 -0.2 -0.0909 0.5962 3.3479 0.2265 97.5 107.852
6 5.1289 2.0927 -2.4004 -4.5489 0.0886 0.6237 112.564 97.5
7 -1.0888 -0.2 -0.0909 0.5962 3.3479 0.2265 97.5 107.852
8 -0.8085 0.5569 -0.2466 -0.8085 0.5569 -0.2466 110.77 110.77
9 -2.0382 0.2102 -0.9023 0.3322 -0.0519 -0.3553 110.77 112.564
10 -2.0382 0.2102 -0.9023 0.3322 -0.0519 -0.3553 110.77 112.564
11 -2.0382 0.2102 -0.9023 0.3322 -0.0519 -0.3553 110.77 112.564
12 -2.2533 2.6948 -0.1723 1.434 -0.1915 -0.2611 107.852 96.8479
13 -5.0565 -0.6355 0.6015 -5.0565 -0.6355 0.6015 112.564 112.564
14 -5.0565 -0.6355 0.6015 -5.0565 -0.6355 0.6015 112.564 112.564

Improper Coeffs # class2

1 0 0
2 0 0
3 0 0
4 0 0
5 0 0
6 0 0
7 0 0
8 0 0
9 0 0
10 0 0
11 0 0

AngleAngle Coeffs

1 0.2738 -0.4825 0.2738 110.77 110.77 107.66
2 2.7985 -3.0031 -0.0668 110.77 112.564 107.852
3 -0.3157 -0.3157 -0.3157 107.66 107.66 107.66
4 0.5086 0.5086 -0.064 107.66 107.852 107.852
5 -1.3199 -1.3199 0.1184 112.67 110.77 110.77
6 -0.2564 -0.2564 -0.8766 112.67 112.564 112.564
7 -0.2564 -0.2564 -0.8766 112.67 112.564 112.564
8 2.7985 -3.0031 -0.0668 110.77 112.564 107.852
9 2.7985 -3.0031 -0.0668 110.77 112.564 107.852
10 -0.0668 -3.0031 2.7985 112.564 110.77 107.852
11 -0.0668 -3.0031 2.7985 112.564 110.77 107.852

Atoms # full

1542 8 3 0.053 3.691608858960624 3.071432797030987 2.877156386872975 1 0 1
1540 8 1 -0.159 3.2321642193208366 4.067840347040834 2.8860457691695123 1 0 1
1541 8 3 0.053 3.155598759669058 4.4634757957387965 1.8305736230779546 1 0 1
1543 8 3 0.053 3.9310860015858218 4.731960285734838 3.3509197428318656 1 0 1
733 4 3 0.053 5.712006952209325 1.7963544942204275 2.871335901837417 1 1 1
1253 7 1 -0.041 9.012513554909223 1.703580557247411 13.573463549203382 0 0 1
189 1 3 0.053 5.776027003430698 1.5330438346736777 12.56983861556425 0 1 0
1304 7 3 0.053 13.552691925156054 7.003479678815149 11.93274573336967 0 0 1
1538 8 2 0.012 1.8439168676385582 3.920253503773804 3.5267140661909693 1 0 1
1545 8 1 -0.041 2.0665334300348053 1.5269405440821877 5.1957808308080855 1 0 1
1547 8 3 0.053 3.1192601771022086 1.439410580042619 5.5082748764900975 1 0 1
1152 6 3 0.053 6.443078821666162 2.0969304508032716 6.271402916322147 1 1 -1
1170 6 6 -0.13 6.264522864278315 4.975838199737924 2.105355978795141 1 1 -1
1252 7 6 -0.13 10.486346047044066 0.6816348110156405 13.075902239337811 0 0 1
216 2 2 0.012 14.826465289151741 14.034221945375437 7.939233617876278 0 0 0
1546 8 3 0.053 2.232954628795506 1.1566500469326146 4.135997241726651 1 0 1
1539 8 3 0.053 1.2150093239605433 4.816715370567546 3.6593059380357382 1 0 1
1537 8 3 0.053 1.5291457574007348 2.239674470283748 2.19934176980246 1 0 1
1544 8 6 -0.13 1.764605067755327 3.4353700844246755 5.247283425915259 1 0 1
1166 6 1 -0.159 8.835931436239676 5.749685733906747 3.0791015225681653 1 1 -1
1168 6 3 0.053 9.650931101304273 5.432351355835641 3.6575001705476913 1 1 -1
1163 6 3 0.053 7.099557040611969 4.734981159857236 4.981153427450423 1 1 -1
1162 6 3 0.053 6.716740653052682 3.1949478405643728 4.208396803063723 1 1 -1
1161 6 1 -0.041 7.497504792748687 4.007300410345218 4.360745751159736 1 1 -1
1164 6 2 0.012 7.820659543382948 4.579287419742583 2.9501338097570398 1 1 -1
250 2 3 0.053 13.24763141841525 4.560895360224669 5.830317524512775 0 0 0
1165 6 3 0.053 8.293080129719344 3.7674552276763764 2.4128475394354685 1 1 -1
1160 6 6 -0.13 8.948259098811583 3.151496241407164 5.06985679491402 1 1 -1
252 2 6 -0.13 12.330049543213507 4.05858464859545 2.934203162299853 0 0 0
256 2 2 0.012 12.554240288299704 1.2914222992376827 2.518442960355175 0 0 0
1095 6 3 0.053 3.9410952834234108 1.4107395346664764 14.83827309546082 1 1 -1
177 1 3 0.053 1.1007500121643512 3.2718968715155476 7.848919980546954 0 1 0
257 2 3 0.053 11.460703798711847 1.2593388817185664 2.708857341349785 0 0 0
248 2 1 -0.159 14.157429452075553 4.747086771526055 5.131014204471604 0 0 0
249 2 3 0.053 14.862424320047717 3.8816602272889145 5.034101578786207 0 0 0
246 2 2 0.012 13.607905713300564 5.20931936191748 3.756888814479697 0 0 0
251 2 3 0.053 14.784178052598259 5.571443467017036 5.626520480596832 0 0 0
247 2 3 0.053 14.556171378418213 5.339878450878711 3.154766993258508 0 0 0
255 2 3 0.053 14.260867883274445 2.672661224416547 3.0258726567350864 0 0 0
253 2 1 -0.041 13.145606531440308 2.496054870361829 3.239584365299959 0 0 0
254 2 3 0.053 13.110619284652744 2.260574083418869 4.341025641199603 0 0 0
1882 10 2 0.012 9.168608804578936 14.889212312582934 10.511239770318896 0 0 1
1254 7 3 0.053 8.292658243351715 1.5839587341734138 12.7433403823223 0 0 1
1097 6 3 0.053 3.3107043265516047 4.421936929274163 14.75838086503029 1 1 -1
1205 6 3 0.053 2.490099840463693 11.795455644226227 4.314004581122525 1 1 -1
157 1 3 0.053 4.79334949170592 9.615322130663987 5.962505444694936 0 1 0
158 1 3 0.053 5.284627487945821 8.149269027855985 5.080387427780766 0 1 0
1272 7 6 -0.13 13.215877820897017 5.817086383865887 14.283954784952108 0 0 1
153 1 3 0.053 2.9732375905040525 6.482135332538571 5.077003274574235 0 1 0
1203 6 3 0.053 2.6925593355762327 10.803256240722474 2.1753530593547445 1 1 -1
1201 6 1 -0.041 1.659921251225006 11.127345107381524 2.450241542704149 1 1 -1
731 4 3 0.053 6.953569948853512 2.0306828659007463 0.8644980998215464 1 1 1
1921 10 3 0.053 6.17133274234625 10.91397388605918 3.4967646747574452 0 0 1
152 1 3 0.053 2.3602344911613065 8.15196028946767 5.0907088453699645 0 1 0
156 1 1 -0.159 5.004217467073921 8.577689150136177 6.053342124555504 0 1 0
159 1 3 0.053 5.91586333127948 8.641777090233015 6.74506659113591 0 1 0
151 1 1 -0.041 2.745140471183107 7.326543969033304 5.730884852558345 0 1 0
154 1 2 0.012 3.9060737774746586 7.752431827662197 6.695363108813192 0 1 0
1167 6 3 0.053 8.47338742161687 6.662577240135954 3.5390141337668513 1 1 -1
1169 6 3 0.053 9.137650693980751 6.043546647754126 2.0569433916470916 1 1 -1
1173 6 3 0.053 7.435014490003047 7.031682241664099 1.2720679018479664 1 1 -1
1913 10 3 0.053 7.493088180633626 9.193227108006893 2.004709869658826 0 0 1
1910 10 3 0.053 9.757684436285718 9.08959631284731 3.418506484712947 0 0 1
1912 10 2 0.012 8.268841842644793 9.98406915558054 2.0873015725548525 0 0 1
1909 10 1 -0.041 9.044655441298122 9.967426784296034 3.4645473066829156 0 0 1
1911 10 3 0.053 9.638655841697092 10.922530744976733 3.6155750267384166 0 0 1
1908 10 6 -0.13 7.97102530942808 9.562181022019054 4.818620723702198 0 0 1
1914 10 1 -0.159 9.18743751235593 9.778750085707486 0.9705344646231806 0 0 1
1916 10 3 0.053 10.031212516464395 10.462829801493024 0.9090965663699759 0 0 1
1907 10 3 0.053 9.84548968182428 7.391557236132945 5.303507201914227 0 0 1
1915 10 3 0.053 9.775506226947732 8.793360821157556 1.0418833905747888 0 0 1
244 2 3 0.053 11.868760925576979 6.429109803987169 4.170514210428112 0 0 0
237 2 3 0.053 11.95828314143604 9.443994036574964 3.0739306824153236 0 0 0
1918 10 6 -0.13 7.552143919461157 11.656380613193848 1.7058021620649362 0 0 1
234 2 3 0.053 14.401632385876455 10.637910627978206 2.959110953441029 0 0 0
245 2 3 0.053 13.444497699144264 7.1860256841583885 4.5259939344382385 0 0 0
243 2 1 -0.041 12.912921336253905 6.556502596459776 3.816610057845746 0 0 0
242 2 6 -0.13 12.987659365851412 7.4278708489677525 2.1954986327995605 0 0 0
236 2 2 0.012 12.909594939909983 9.235503940501687 2.5852463865900472 0 0 0
232 2 6 -0.13 13.289822194348469 10.26943647914373 5.075273225714206 0 0 0
233 2 1 -0.041 14.021628415906067 9.71839364809547 3.446569320004128 0 0 0
238 2 1 -0.159 12.87858299938014 9.94026788176925 1.2265077991372597 0 0 0
240 2 3 0.053 12.546827801928409 10.919662793414037 1.335667231252977 0 0 0
1951 10 3 0.053 10.12434870389274 14.324179126359763 1.2844987163884596 0 0 1
1268 7 1 -0.159 10.75551739093076 7.115285788978123 13.809584516514347 0 0 1
235 2 3 0.053 14.912201575135867 9.08219296368446 3.6884161915122173 0 0 0
1255 7 3 0.053 8.639248540175474 1.2346956455196785 14.489627574659016 0 0 1
1204 6 2 0.012 1.8869251270139273 12.182651111545713 3.481371945475266 1 1 -1
1208 6 3 0.053 3.5213130846665495 13.142527034159958 2.518103175424302 1 1 -1
1206 6 1 -0.159 2.5340904297131943 13.403501986805978 2.743980221035183 1 1 -1
1209 6 3 0.053 2.4717348543291626 14.329949127514404 3.375546780320007 1 1 -1
1207 6 3 0.053 2.023259948434144 13.701181737270014 1.7977241764423866 1 1 -1
1920 10 3 0.053 5.390508594888596 12.184764205498478 2.5520246869817376 0 0 1
1927 10 3 0.053 4.754093298066197 12.892334343373882 5.158717587086162 0 0 1
1924 10 1 -0.159 5.816095814026194 12.826850235934034 5.341034796770332 0 0 1
1925 10 3 0.053 6.101910561112378 11.787735052663178 5.81550906089774 0 0 1
1926 10 3 0.053 6.151809188995121 13.539152683701536 6.120185040554254 0 0 1
1919 10 1 -0.041 6.341878624709208 11.934564253649794 3.06534040114961 0 0 1
1922 10 2 0.012 6.622776246307146 12.99355925350405 4.1091754231984154 0 0 1
1923 10 3 0.053 7.750469420614404 12.972841287742355 4.460629820954483 0 0 1
209 2 3 0.053 11.127588771015287 13.471337569539443 4.2495572284771015 0 0 0
1928 10 6 -0.13 6.261443903087646 14.547717465464528 3.271719926540544 0 0 1
432 3 3 0.053 3.5726436211246697 10.957247779688945 14.617560631586112 0 0 0
730 4 2 0.012 6.421019086538099 1.094834471839476 1.0571037393765415 1 1 1
1953 10 3 0.053 12.343701677295249 14.773178910369547 1.2856593343935891 0 0 1
207 2 3 0.053 13.069741909147702 14.383762943508271 5.44902320387928 0 0 0
1279 7 3 0.053 14.316119367456817 1.4144891904066437 12.174740458056704 0 0 1
176 1 1 -0.159 0.8492737678131262 3.245630048793453 8.911066432349202 0 1 0
180 1 6 -0.13 2.8679194712125957 1.5820790555122315 9.332768006938212 0 1 0
174 1 2 0.012 2.031588596517093 3.127592672473651 9.741862813603158 0 1 0
171 1 1 -0.041 2.955183168562641 4.404617993704392 9.433700046810351 0 1 0
181 1 1 -0.041 3.8225398671496307 1.405260757128924 10.872248330084949 0 1 0
175 1 3 0.053 1.6300829839142332 3.1918194536235203 10.817468459543479 0 1 0
173 1 3 0.053 3.524083479529684 4.282340489426081 8.452047544067678 0 1 0
170 1 6 -0.13 4.250310302961321 4.723738427076907 10.662781493052105 0 1 0
172 1 3 0.053 2.2251549675632094 5.2849520180682195 9.489049244382086 0 1 0
1159 6 3 0.053 7.402895291483582 4.423332965646586 7.202126163364276 1 1 -1
183 1 3 0.053 3.1122809368357363 1.4520366591421359 11.695675649179261 0 1 0
1098 6 3 0.053 4.914240898837407 3.8246648472946436 14.15867854981698 1 1 -1
1190 6 6 -0.13 0.941543045740709 6.647379734365684 1.2902070722838854 1 1 -1
1549 8 3 0.053 0.9597604341262109 1.1116443610171975 6.946559231658491 1 0 1
182 1 3 0.053 4.432409126833138 2.343552614829131 10.888547416509715 0 1 0
456 3 3 0.053 1.1356513893960023 11.663232124197394 13.673361142853963 0 0 0
734 4 3 0.053 7.129067197381287 0.6125319042627096 3.209133470346356 1 1 1
1151 6 1 -0.041 7.323374454961872 1.668147429199191 6.812865951129186 1 1 -1
1153 6 3 0.053 7.054247841115208 1.3970107184025693 7.807480447638537 1 1 -1
1158 6 3 0.053 8.003863747039555 3.65490136958543 8.590657099763328 1 1 -1
1156 6 1 -0.159 8.229226211428552 3.877666438683538 7.505702239692739 1 1 -1
1248 7 1 -0.159 9.83064575310181 1.2823091554233075 10.377141927951662 0 0 1
1155 6 3 0.053 9.393650640258752 2.171523972141931 7.2247875725456625 1 1 -1
1154 6 2 0.012 8.468603210303051 2.6342875670167722 6.774368128927618 1 1 -1
1157 6 3 0.053 9.19151186423085 4.505891099162165 7.436338129482623 1 1 -1
1298 7 1 -0.159 10.100750094659963 5.195798512458452 10.397416234932619 0 0 1
1251 7 3 0.053 8.964403555744724 1.8867200228788203 10.668157868114731 0 0 1
1299 7 3 0.053 9.74907797772407 4.14285068024742 10.347823389867832 0 0 1
448 3 2 0.012 0.6908091768998444 10.555255769673243 11.2069944578937 0 0 0
1300 7 3 0.053 9.535041019892914 5.79319058013554 11.190362173385564 0 0 1
1260 7 3 0.053 7.310748278588165 3.7001305076458735 13.091409826195727 0 0 1
1249 7 3 0.053 10.711633266307391 1.949899463357196 10.343822938403626 0 0 1
1295 7 3 0.053 11.917816277257112 3.649787120715019 8.954878731336409 0 0 1
1294 7 3 0.053 11.828102383029055 5.237802611443676 8.154929820382137 0 0 1
1296 7 2 0.012 11.687867245956332 5.36841498023767 10.386347763642743 0 0 1
1297 7 3 0.053 12.214379783235657 4.8904525703470325 11.237143656691188 0 0 1
1293 7 1 -0.041 12.253349576461563 4.710545731469016 9.06334975561013 0 0 1
1202 6 3 0.053 1.0914152644463229 11.536972855172442 1.5230184274660585 1 1 -1
738 4 3 0.053 9.115762290262525 1.1640794252115683 0.6893296349189808 1 1 1
1290 7 3 0.053 14.04899986796163 2.078602948684389 7.665013720875702 0 0 1
1305 7 3 0.053 14.268833661131943 6.524742748417652 10.42847075040962 0 0 1
1287 7 3 0.053 13.563565196578104 2.829741303185459 10.170042215239281 0 0 1
1292 7 6 -0.13 14.055067647795898 4.707711672396586 8.717799810774466 0 0 1
729 4 3 0.053 4.396565614421006 1.7848769504240591 1.170910878931398 1 1 1
1286 7 2 0.012 14.455668344904517 3.1236594779394142 9.59961433999277 0 0 1
1288 7 1 -0.159 14.82074199156382 2.0945163045126294 8.491798837862984 0 0 1
161 1 1 -0.041 5.40261982912543 6.696405171158464 8.891543886239393 0 1 0
160 1 6 -0.13 4.519148487752909 6.115619522332813 7.345441052290062 0 1 0
150 1 6 -0.13 1.2318622637764325 6.8595161888620275 6.789362987403172 0 1 0
439 3 3 0.053 3.618937648095965 10.187143082947625 11.068070520626229 0 0 0
164 1 2 0.012 4.676863134468943 6.523811318558749 10.278697676674051 0 1 0
165 1 3 0.053 3.6479232508977844 6.984228482917807 10.145747314139578 0 1 0
155 1 3 0.053 3.520225887673606 8.359539704449901 7.517625234986715 0 1 0
162 1 3 0.053 5.61606303101678 7.752160376919928 8.664515475154767 0 1 0
440 3 1 -0.159 5.056589523789654 10.47326536615298 9.415624895649799 0 0 0
443 3 3 0.053 5.853127702437346 10.110201327480382 10.098475814498187 0 0 0
442 3 3 0.053 4.648369467667251 9.632594857770648 8.833717405866132 0 0 0
438 3 2 0.012 4.054118433138062 11.052825779486371 10.420646083730974 0 0 0
435 3 1 -0.041 4.840724020895941 11.992368485442938 11.319624731474786 0 0 0
437 3 3 0.053 5.722340622894894 11.498444916264907 11.816071093541794 0 0 0
444 3 6 -0.13 2.6473149669038167 11.92466301008268 9.575195554248971 0 0 0
447 3 3 0.053 1.6620181286900224 9.592677568176171 9.483553879333995 0 0 0
445 3 1 -0.041 1.2617988323263352 10.610343674763145 9.804357131131473 0 0 0
449 3 3 0.053 1.4159003456398878 10.41056016669681 12.029031305942153 0 0 0
166 1 1 -0.159 5.613008739805676 7.111255174315431 11.357873011802655 0 1 0
169 1 3 0.053 5.220440192525727 7.059667962802187 12.411740605508157 0 1 0
167 1 3 0.053 5.824031989716653 8.12987216957141 11.047433999678843 0 1 0
1250 7 3 0.053 9.392390864342282 0.993639306552178 9.431982473042874 0 0 1
1903 10 3 0.053 10.24853726446218 9.773553323043076 5.566373186644344 0 0 1
1301 7 3 0.053 9.810903719571522 5.619940815647983 9.410095807832974 0 0 1
163 1 3 0.053 6.400733894528246 6.176797927196829 8.962746185681205 0 1 0
1902 10 2 0.012 9.337433809749633 9.302373962001012 5.998350446502702 0 0 1
1904 10 1 -0.159 9.671591983648439 7.854749514886211 6.262400891365711 0 0 1
1906 10 3 0.053 8.773264422075263 7.3512283482870915 6.6417053249553 0 0 1
1900 10 3 0.053 9.021144708791825 11.139004417667039 7.066534563443776 0 0 1
1905 10 3 0.053 10.556459506304844 7.847386181120069 6.8820798297587595 0 0 1
1899 10 1 -0.041 9.056493628455986 10.087708301921857 7.284021917898123 0 0 1
1893 10 3 0.053 8.546016568471552 10.9477170806888 9.653256578145504 0 0 1
1892 10 2 0.012 9.547987882321351 10.802275144135251 10.04848367469426 0 0 1
1901 10 3 0.053 8.068509985093439 9.763939605889579 7.68254390625891 0 0 1
1898 10 6 -0.13 10.345099861438921 9.95258809978662 8.564603146024623 0 0 1
1897 10 3 0.053 9.321160810480503 8.702519472490001 10.790017401287615 0 0 1
1894 10 1 -0.159 9.525958810075593 9.718867459364922 11.145286788397971 0 0 1
1302 7 6 -0.13 11.928776662940026 7.153636222670122 10.1357763898832 0 0 1
168 1 3 0.053 6.594448858601666 6.607856147530345 11.25868413652676 0 1 0
228 2 1 -0.159 14.599324384615953 8.762802893249663 7.034077762630248 0 0 0
229 2 3 0.053 14.660630790817528 7.8679293956538725 6.3413014835681665 0 0 0
1306 7 2 0.012 14.262706052433805 8.712703031738757 10.80763908583443 0 0 1
225 2 3 0.053 13.819155976428673 11.408708174793773 7.839197972946104 0 0 0
1307 7 3 0.053 14.061091263146613 9.196346733511614 9.863847118518791 0 0 1
230 2 3 0.053 13.63670169399269 8.630647417130833 7.523454920448779 0 0 0
1315 7 3 0.053 13.349302551035375 11.894970822372438 10.675863284057538 0 0 1
1313 7 1 -0.041 14.126002006595094 11.505068343304481 11.441889723118924 0 0 1
1303 7 1 -0.041 13.619559976402284 7.336128097596915 10.875270076874898 0 0 1
226 2 2 0.012 14.683296193136204 10.138734364489185 6.245827859797219 0 0 0
1316 7 2 0.012 14.301688899599707 12.556413621292789 12.568114541006345 0 0 1
1200 6 6 -0.13 0.9801980315661186 9.454200415588833 2.8988105953892984 1 1 -1
1269 7 3 0.053 9.695874029206598 7.1505167170361155 13.759022147815456 0 0 1
223 2 1 -0.041 14.682179915653128 11.317331037183367 7.232018035464281 0 0 0
441 3 3 0.053 5.435861742538126 11.216758773973151 8.649332622920006 0 0 0
1866 10 3 0.053 3.1878746227070556 13.436412730986278 7.177719777152656 0 0 1
436 3 3 0.053 5.205178712811596 12.855053513996468 10.785509647863568 0 0 0
1864 10 1 -0.159 2.273012055290639 14.066103789779774 7.305828191649231 0 0 1
264 2 3 0.053 14.120875730286835 3.650415685547097 0.8721091956106584 0 0 0
208 2 1 -0.159 11.119254964271267 13.553939594578905 5.381644055619366 0 0 0
1891 10 3 0.053 9.903302388161906 12.470620320702313 11.442605978336168 0 0 1
1889 10 1 -0.041 10.133640564317652 12.224671991167513 10.371506140032 0 0 1
1890 10 3 0.053 11.22758455499356 12.318242779384363 10.298981344544018 0 0 1
211 2 3 0.053 10.085695533770084 13.757283585188874 5.666755944295441 0 0 0
1888 10 6 -0.13 9.406405196911507 13.476122749685114 9.268403727805762 0 0 1
1886 10 3 0.053 11.158848613841178 14.825560535354375 11.053727319325171 0 0 1
1883 10 3 0.053 8.89870676816497 14.345320564970404 11.454379303601648 0 0 1
262 2 6 -0.13 12.604716717406758 1.7037054908630695 0.6542416179602212 0 0 0
206 2 2 0.012 12.054519109145588 14.700772831923334 5.762759456891386 0 0 0
210 2 3 0.053 11.337808933328134 12.576366792110697 5.841106812747594 0 0 0
212 2 6 -0.13 12.159552963927423 14.83332897584899 7.5792716031391025 0 0 0
1314 7 3 0.053 15.028313010297103 11.271093071357962 10.925796194646194 0 0 1
1867 10 3 0.053 1.7356719299657761 13.973780386320913 8.234701346017774 0 0 1
1317 7 3 0.053 14.704119703882201 12.127397277022583 13.483057397315095 0 0 1
1093 6 3 0.053 1.7863528445207646 1.7575799981522113 13.821282058194782 1 1 -1
1099 6 3 0.053 3.4016945163183516 3.3596361337900116 13.292519451952153 1 1 -1
1280 7 3 0.053 13.336959460112345 1.5368747526298048 13.58972957527204 0 0 1
1274 7 3 0.053 14.44509543777766 3.9707434162069197 15.064973878995257 0 0 1
1270 7 3 0.053 11.145293153797612 7.507495737733113 12.93590206328206 0 0 1
1865 10 3 0.053 1.559176282544167 13.791255276552581 6.555259295908655 0 0 1
1324 7 3 0.053 10.992369134481219 12.435530962630784 13.793437087037985 0 0 1
1256 7 2 0.012 9.342353967155654 3.1397282296672837 13.730234969796662 0 0 1
1257 7 3 0.053 9.918966123155986 3.427719192150702 12.892274295056458 0 0 1
1261 7 3 0.053 7.533530798177095 3.7945385291314135 14.838382693470884 0 0 1
1259 7 3 0.053 8.26931259069173 5.087480254613559 13.679638612824924 0 0 1
1258 7 1 -0.159 8.07360970566605 4.001447144300696 13.881739601814369 0 0 1
1548 8 2 0.012 0.9664322311307592 0.690088000476868 5.991347554627199 1 0 1
1267 7 3 0.053 11.170637285455228 5.095856001017717 13.288069991934307 0 0 1
1266 7 2 0.012 11.319500405914326 5.71302071007233 14.165269713128547 0 0 1
1323 7 1 -0.041 12.025129396005145 12.31120004315396 14.078588339778744 0 0 1
1322 7 6 -0.13 12.780075985921329 13.45935830772666 12.992909928673559 0 0 1
1275 7 3 0.053 12.837749153590188 3.511231479035503 14.676351525431121 0 0 1
430 3 1 -0.159 4.656973673760025 11.201584888493613 14.62748821052033 0 0 0
1277 7 3 0.053 13.28439815604865 3.479142251690548 12.238876764333922 0 0 1
1276 7 2 0.012 14.08914061375074 3.390663843799891 12.887538365139353 0 0 1
1278 7 1 -0.159 14.256610960754358 1.8788016526672835 13.1915219329748 0 0 1
1312 7 6 -0.13 13.673431960639366 9.845953528719384 12.119397078407191 0 0 1
429 3 3 0.053 5.694838897757337 12.997552122392351 14.033394444983012 0 0 0
1536 8 3 0.053 1.076168289641502 3.7412544299862445 1.5346551780699256 1 0 1
1273 7 1 -0.041 13.702485830933329 4.099009430326428 14.258858315758522 0 0 1
217 2 3 0.053 14.477536659919506 13.353910940778286 8.79506442849091 0 0 0
428 3 2 0.012 4.670094083855555 12.672073746342054 14.164581186673804 0 0 0
1271 7 3 0.053 11.057194830587544 7.832272735465723 14.58888229146871 0 0 1
59 1 3 0.053 1.1654247231621506 7.180798528057328 12.780736293845251 0 1 0
58 1 3 0.053 2.335622442576982 6.1419038010684215 13.803446798008707 0 1 0
56 1 1 -0.159 1.331963218474238 6.172653882899425 13.262289232321475 0 1 0
57 1 3 0.053 1.4335516492398603 5.334264268617672 12.59740821722622 0 1 0
434 3 6 -0.13 3.8340124276998364 12.944077137030455 12.595973931526164 0 0 0
431 3 3 0.053 5.219478526281413 10.628603198285697 13.913184330765732 0 0 0
1895 10 3 0.053 10.484132558348792 9.698733527135904 11.664126783976007 0 0 1
1896 10 3 0.053 8.827997260721078 10.044799674647146 11.920649018712492 0 0 1
1325 7 3 0.053 12.28441021398577 11.258034933370093 13.775597669699717 0 0 1
1535 8 1 -0.041 1.0260737271028004 3.172365544565922 2.399770954054686 1 0 1
1096 6 1 -0.159 3.8098399770711784 3.5131137854412833 14.299020212693192 1 1 -1
222 2 6 -0.13 14.836472144129498 12.972983025953354 6.417203383104672 0 0 0
732 4 1 -0.159 6.223864180974041 0.8366887007912726 2.5784089697543546 1 1 1
1289 7 3 0.053 14.878061005738457 1.1693495941788008 9.066762402550772 0 0 1
239 2 3 0.053 13.890853643774642 9.9232548801433 0.8769985480887269 0 0 0
1171 6 1 -0.041 6.914014815722414 6.1714340061579955 0.8314602351471198 1 1 -1
1091 6 1 -0.041 1.9887028268623135 1.8323317104959818 14.970055951633075 1 1 -1
1094 6 2 0.012 3.3889803421091016 2.3008789943061982 15.126215373843905 1 1 -1
1100 6 6 -0.13 3.8119376192237846 2.5507230418381717 16.959854252719758 1 1 -1
1759 9 3 0.053 6.431853957607892 15.00311014878561 22.17921182158368 0 0 -1
1092 6 3 0.053 1.262180513059764 2.605567851182675 15.331638502102576 1 1 -1
40 1 6 -0.13 2.7018766379734545 5.661058714419045 19.146757939410783 0 1 0
1101 6 1 -0.041 5.579079820772788 2.1769543469967547 16.994683943433643 1 1 -1
2 1 3 0.053 4.401963164869951 7.856023492613057 17.531899014256457 0 1 0
41 1 1 -0.041 1.0709657424134074 4.947691926043718 19.03205762497067 0 1 0
1102 6 3 0.053 5.994886776709785 2.8777979590338214 17.7840619924045 1 1 -1
1103 6 3 0.053 5.946870449858767 2.4225802047450875 16.021545500311042 1 1 -1
32 1 3 0.053 5.181854181047446 4.7604676323746125 20.28980972692483 0 1 0
750 4 2 0.012 6.919236157188135 0.9330453797134981 24.114264670301797 1 1 0
45 1 3 0.053 1.0989254973667189 4.481621993916797 16.783581883782897 0 1 0
42 1 3 0.053 1.2495661407004905 3.8725367016723364 19.393051698024426 0 1 0
1104 6 2 0.012 6.022063247884485 0.7111541056191237 17.463804054382443 1 1 -1
275 2 3 0.053 14.886005729556471 2.1213361325936795 26.719270652417478 0 0 -1
1262 7 6 -0.13 10.380030337342767 3.3910812469842377 15.27701603942849 0 0 1
1108 6 3 0.053 7.625932338838683 1.3385881105943294 18.571840321977852 1 1 -1
12 1 3 0.053 7.808993277829057 5.624690278265777 17.454803804691103 0 1 0
18 1 3 0.053 10.01053040758994 4.087655853542059 18.14245141878929 0 1 0
16 1 1 -0.159 10.31239042724952 4.85144126106641 18.898889705145514 0 1 0
14 1 2 0.012 8.96674762295733 5.571558284613235 19.406583708100882 0 1 0
17 1 3 0.053 10.87975606227048 5.7250701325884155 18.578114214467448 0 1 0
19 1 3 0.053 10.82100231301467 4.291419090265653 19.757561744525095 0 1 0
11 1 1 -0.041 8.337345714018095 6.2876928533546375 18.153125462264608 0 1 0
15 1 3 0.053 9.301736498916647 6.3226630408935875 20.088969428022573 0 1 0
201 1 3 0.053 5.556205354944007 6.754631342603699 16.562517487508416 0 1 0
1172 6 3 0.053 7.703815605477505 5.5319650536897536 29.49230924645081 1 1 -2
1265 7 3 0.053 11.167051499199108 5.237732198734748 16.400465658816117 0 0 1
1363 7 1 -0.041 14.86705333591646 13.373499120023993 20.792141781510455 0 0 1
1362 7 6 -0.13 14.674648111500394 13.579799893733073 22.520080977365723 0 0 1
1360 7 3 0.053 11.343836887254799 13.912425991681149 24.36063060984888 0 0 1
1814 9 3 0.053 1.3042478730706644 14.773537402138246 23.988567401373704 0 0 -1
1804 9 3 0.053 0.9011306450387968 10.15138473698245 18.35340593690733 0 0 -1
589 3 3 0.053 14.945916700972925 5.7098991942532 19.747556098826585 -1 0 -1
1264 7 3 0.053 9.698268343021137 5.584099902549605 15.516834523337717 0 0 1
287 2 3 0.053 13.701436832963354 1.5972272371805947 21.54282870874601 0 0 -1
1 1 1 -0.159 5.345584249927315 7.821722831570287 16.800221006706664 0 1 0
1803 9 3 0.053 1.9747356928282147 8.958062333149517 19.25923279617468 0 0 -1
1802 9 1 -0.159 1.854093631923841 9.916758413537895 18.757757324944738 0 0 -1
1799 9 3 0.053 3.8005775836761955 9.315382550040853 20.40704440628129 0 0 -1
1805 9 3 0.053 2.543019571762418 10.078077343182331 17.975986044143834 0 0 -1
1798 9 3 0.053 4.446648017142387 10.648013898315055 19.57039290471943 0 0 -1
1760 9 2 0.012 6.469907358844069 14.783451044135385 24.329869557502857 0 0 -1
1800 9 2 0.012 2.2656147927051307 10.87229027756805 20.006085703431793 0 0 -1