LAMMPS data file via write_data, version 22 Jul 2025, timestep = 2000000, units = real

8656 atoms
8 atom types
9288 bonds
10 bond types
15680 angles
16 angle types
23344 dihedrals
19 dihedral types
6400 impropers
11 improper types

5.576154310524004 51.8807569694724 xlo xhi
5.576154310524004 51.8807569694724 ylo yhi
5.576154310524004 51.8807569694724 zlo zhi

Masses

1 12.01115
2 12.01115
3 1.00797
4 1.00797
5 15.9994
6 15.9994
7 15.9994
8 32.064

Pair Coeffs # lj/class2/coul/long/gpu

1 0.054 4.01
2 0.064 4.01
3 0.02 2.995
4 0.013 1.098
5 0.06 3.535
6 0.24 3.535
7 0.24 3.535
8 0.25 4.027

Bond Coeffs # class2

1 1.53 299.67 -501.77 679.81
2 1.501 321.902 -521.821 572.163
3 1.101 345 -691.89 844.6
4 1.417 470.836 -627.618 1327.63
5 1.0982 372.825 -803.453 894.317
6 1.3768 428.88 -738.235 1114.97
7 1.3768 428.88 -738.235 1114.97
8 1.72 239.802 0 0
9 0.965 532.506 -1282.9 2004.77
10 1.4308 743.76 0 0

Angle Coeffs # class2

1 112.67 39.516 -7.443 -9.5583
2 108.4 43.9594 -8.3924 -9.3379
3 110.77 41.453 -10.604 5.129
4 120.05 44.7148 -22.7352 0
5 111 44.3234 -9.4454 0
6 118.9 61.0226 -34.9931 0
7 117.94 35.1558 -12.4682 0
8 123.42 73.6781 -21.6787 0
9 123.42 73.6781 -21.6787 0
10 120 60 0 0
11 109.5 60 0 0
12 108.19 53.125 -8.5016 0
13 102 58 0 0
14 113.1 42.3 0 0
15 107.66 39.641 -12.921 -2.4318
16 119.329 135 0 0

BondBond Coeffs

1 0 1.53 1.53
2 0 1.53 1.501
3 3.3872 1.53 1.101
4 12.0676 1.501 1.417
5 0 1.501 1.501
6 68.2856 1.417 1.417
7 1.0795 1.417 1.0982
8 48.4754 1.417 1.3768
9 48.4754 1.417 1.3768
10 0 1.417 1.72
11 0 1.3768 1.3768
12 20.6577 1.3768 0.965
13 0 1.72 1.72
14 0 1.72 1.4308
15 5.3316 1.101 1.101
16 40 1.4308 1.4308

BondAngle Coeffs

1 8.016 8.016 1.53 1.53
2 0 0 1.53 1.501
3 20.754 11.421 1.53 1.101
4 47.0579 31.0771 1.501 1.417
5 0 0 1.501 1.501
6 28.8708 28.8708 1.417 1.417
7 20.0033 24.2183 1.417 1.0982
8 58.479 107.681 1.417 1.3768
9 58.479 107.681 1.417 1.3768
10 0 0 1.417 1.72
11 0 0 1.3768 1.3768
12 53.8614 23.9224 1.3768 0.965
13 0 0 1.72 1.72
14 0 0 1.72 1.4308
15 18.103 18.103 1.101 1.101
16 0 0 1.4308 1.4308

Dihedral Coeffs # class2

1 0 0 0.0316 0 -0.1681 0
2 -0.2802 0 -0.0678 0 -0.0122 0
3 0 0 4.4072 0 0 0
4 0 0 1.559 0 0 0
5 -0.0228 0 0.028 0 -0.1863 0
6 -0.2802 0 -0.0678 0 -0.0122 0
7 8.3667 0 1.1932 0 0 0
8 0 0 3.9661 0 0 0
9 0 0 4.8498 0 0 0
10 0 0 4.8498 0 0 0
11 0 0 3 0 0 0
12 0 0 1.8 0 0 0
13 -0.69 0 0.5097 0 0.0095 0
14 0 0 1.5 0 0 0
15 0 0 1.5 0 0 0
16 0 0 1.8769 0 0 0
17 0 0 1.7234 0 0 0
18 0 0 1.7234 0 0 0
19 0 0 3 0 0 0

AngleAngleTorsion Coeffs

1 -16.164 112.67 110.77
2 0 108.4 120.05
3 -14.4097 120.05 118.9
4 4.4444 120.05 117.94
5 0 108.4 110.77
6 0 111 120.05
7 0 118.9 118.9
8 -4.8141 118.9 117.94
9 -21.0247 118.9 123.42
10 -21.0247 118.9 123.42
11 0 118.9 120
12 0 123.42 109.5
13 -4.6072 123.42 108.19
14 0 120 102
15 0 120 113.1
16 0.3598 117.94 117.94
17 4.2296 117.94 123.42
18 4.2296 117.94 123.42
19 0 117.94 120

EndBondTorsion Coeffs

1 0.2486 0.2422 -0.0925 0.0814 0.0591 0.2219 1.53 1.101
2 0 0 0 0 0 0 1.53 1.417
3 0 0.2421 0 0 -0.6918 0 1.501 1.417
4 0 -1.797 0 0 -0.4879 0 1.501 1.0982
5 0 0 0 0 0 0 1.501 1.101
6 0 0 0 0 0 0 1.501 1.417
7 -0.1185 6.3204 0 -0.1185 6.3204 0 1.417 1.417
8 0 -6.8958 0 0 -0.4669 0 1.417 1.0982
9 0 0.2655 0 0 4.8905 0 1.417 1.3768
10 0 0.2655 0 0 4.8905 0 1.417 1.3768
11 0 0 0 0 0 0 1.417 1.72
12 0 0 0 0 0 0 1.417 1.3768
13 0.9 -1.3456 1.19 3.4132 0.5873 -0.1323 1.417 0.965
14 0 0 0 0 0 0 1.417 1.72
15 0 0 0 0 0 0 1.417 1.4308
16 0 -0.689 0 0 -0.689 0 1.0982 1.0982
17 0 -1.5867 0 0 4.2641 0 1.0982 1.3768
18 0 -1.5867 0 0 4.2641 0 1.0982 1.3768
19 0 0 0 0 0 0 1.0982 1.72

MiddleBondTorsion Coeffs

1 -14.879 -3.6581 -0.3138 1.53
2 0 0 0 1.501
3 0 9.1792 0 1.417
4 0 3.9421 0 1.417
5 0 0 0 1.53
6 0 0 0 1.501
7 27.5989 -2.312 0 1.417
8 0 -1.1521 0 1.417
9 0 4.8255 0 1.417
10 0 4.8255 0 1.417
11 0 0 0 1.417
12 0 0 0 1.3768
13 1.158 3.2697 3.5132 1.3768
14 0 0 0 1.72
15 0 0 0 1.72
16 0 4.8228 0 1.417
17 0 5.5432 0 1.417
18 0 5.5432 0 1.417
19 0 0 0 1.417

BondBond13 Coeffs

1 0 1.53 1.101
2 0 1.53 1.417
3 2.5085 1.501 1.417
4 0.8743 1.501 1.0982
5 0 1.501 1.101
6 0 1.501 1.417
7 53 1.417 1.417
8 -6.2741 1.417 1.0982
9 -2.2436 1.417 1.3768
10 -2.2436 1.417 1.3768
11 0 1.417 1.72
12 0 1.417 1.3768
13 1.159 1.417 0.965
14 0 1.417 1.72
15 0 1.417 1.4308
16 -1.7077 1.0982 1.0982
17 2.0517 1.0982 1.3768
18 2.0517 1.0982 1.3768
19 0 1.0982 1.72

AngleTorsion Coeffs

1 -0.2454 0 -0.1136 0.3113 0.4516 -0.1988 112.67 110.77
2 0 0 0 0 0 0 108.4 120.05
3 0 -4.4683 0 0 3.8987 0 120.05 118.9
4 0 -0.1242 0 0 3.4601 0 120.05 117.94
5 0 0 0 0 0 0 108.4 110.77
6 0 0 0 0 0 0 111 120.05
7 1.9767 1.0239 0 1.9767 1.0239 0 118.9 118.9
8 0 2.5014 0 0 2.7147 0 118.9 117.94
9 0 10.0155 0 0 1.7404 0 118.9 123.42
10 0 10.0155 0 0 1.7404 0 118.9 123.42
11 0 0 0 0 0 0 118.9 120
12 0 0 0 0 0 0 123.42 109.5
13 -5.136 -1.0122 0 4.6852 0.023 -0.598 123.42 108.19
14 0 0 0 0 0 0 120 102
15 0 0 0 0 0 0 120 113.1
16 0 2.4501 0 0 2.4501 0 117.94 117.94
17 0 1.8729 0 0 2.5706 0 117.94 123.42
18 0 1.8729 0 0 2.5706 0 117.94 123.42
19 0 0 0 0 0 0 117.94 120

Improper Coeffs # class2

1 0 0
2 0 0
3 0 0
4 0 0
5 7.8153 0
6 4.8912 0
7 13.0421 0
8 13.0421 0
9 0 0
10 0 0
11 0 0

AngleAngle Coeffs

1 0 0 0 112.67 108.4 108.4
2 0 0 0 108.4 108.4 111
3 0.2738 -0.4825 0.2738 110.77 110.77 107.66
4 -0.3157 -0.3157 -0.3157 107.66 107.66 107.66
5 0 0 0 120.05 120.05 118.9
6 0 0 0 118.9 117.94 117.94
7 0 0 0 118.9 123.42 123.42
8 0 0 0 118.9 123.42 123.42
9 0 0 0 118.9 120 120
10 0 0 0 102 113.1 113.1
11 0 0 0 113.1 113.1 119.329

Atoms # full

441 1 1 -0.159 8.094902479878645 8.66153926069546 7.2056357903736785 1 0 1
444 1 3 0.053 9.05947143718663 8.753406905598412 7.760450983781563 1 0 1
443 1 3 0.053 7.3454215962228755 8.573119732981727 7.9621118998129745 1 0 1
440 1 1 0 8.148020830937915 7.355463015811299 6.347385594284358 1 0 1
6788 7 3 0.1268 7.286616593091445 8.858308387068934 10.542941087523854 1 1 0
4079 4 6 -0.053 10.328923965843263 9.103033795773353 10.691457908901143 1 1 -1
4082 4 3 0.1268 9.633224038947493 10.587517778276439 8.687305533106453 1 1 -1
451 1 3 0.1268 10.774404833950474 6.263571339799461 6.347648999092165 1 0 1
4080 4 2 0.0265 10.894435466576716 10.352133394116464 10.467251037728726 1 1 -1
1932 2 3 0.1268 10.58310562879791 10.237359898278616 6.419074329595936 -1 3 2
4081 4 2 -0.1268 10.38641589538425 11.062689045088378 9.377024564947874 1 1 -1
446 1 3 0.053 7.597597057434203 6.268069338101561 8.119394272955597 1 0 1
448 1 3 0.053 9.371962268143145 6.230973989393361 7.805975389402413 1 0 1
442 1 3 0.053 7.960687013082799 9.595014673313022 6.626189973713708 1 0 1
445 1 1 -0.159 8.359192743509693 6.135235244161873 7.340876181415927 1 0 1
4104 4 3 0.1268 9.37981000671823 6.716045522682721 10.919371637436441 1 1 -1
4103 4 2 -0.1268 10.411346571200944 6.752790562502708 11.255275666837719 1 1 -1
439 1 2 0 6.863823519589477 7.071376676056183 5.58925337927605 1 0 1
4078 4 2 0.0265 11.066160355778294 8.002929254880382 11.078363763225141 1 1 -1
1925 2 2 0.0732 13.857460300224576 9.619932304083724 6.066575722457509 -1 3 2
1923 2 5 -0.1143 14.921325284468292 9.411041505252264 8.30096756924008 -1 3 2
1934 2 3 0.1268 12.279374967378056 9.219649506279438 7.592085886902838 -1 3 2
1922 2 8 0.0822 15.100385254978397 8.95588721955286 6.938642805820985 -1 3 2
1933 2 2 -0.1268 12.571778216299492 9.599551837977803 6.584066487166578 -1 3 2
1921 2 2 0.0732 14.593118355699511 7.408369779951739 6.93542243629056 -1 3 2
7047 7 3 0.053 15.703259357420409 9.347834770365013 10.839208708591123 0 1 0
4077 4 3 0.1268 13.065510975078688 8.870913637948462 11.248732592059685 1 1 -1
1920 2 3 0.1268 13.57212021450903 7.651570722120603 8.738375806195343 -1 3 2
4076 4 2 -0.1268 12.402856210520698 8.014396257563092 11.411504320655993 1 1 -1
1919 2 2 -0.1268 13.833812041885183 6.891237325326731 7.987224376029392 -1 3 2
1924 2 5 -0.1143 16.36268203567637 9.040368644885387 6.307068766624962 -1 3 2
8017 8 3 0.053 21.49547703480371 27.979450660607476 15.85199049076942 0 1 0
7045 7 1 -0.159 16.140814443831196 9.350057711784375 11.842160331716048 0 1 0
7046 7 3 0.053 16.00874483572432 8.300387675565398 12.165888050444227 0 1 0
2834 3 2 0.0265 29.030968515470736 22.33475595981808 28.348238328112984 0 1 1
4401 5 3 0.1268 20.860779213158402 10.505242272348593 7.444227748768051 0 0 0
7043 7 3 0.053 18.001662815491184 9.046133359496686 9.736199469605623 0 1 0
7044 7 3 0.053 19.404423962638443 9.305897479787077 10.687962998308183 0 1 0
4400 5 2 -0.1268 21.46344510896777 11.392216708567638 7.257714240686824 0 0 0
7041 7 1 -0.159 18.330549689611928 9.036355676811876 10.725566008442092 0 1 0
7042 7 3 0.053 18.369431096039932 7.987738324099007 11.158280277747448 0 1 0
4394 5 3 0.053 21.62116653526719 8.582072988539489 7.136228271612115 0 0 0
8280 8 3 0.1268 21.332992852020414 10.929759540713638 12.529084043125339 0 1 0
4158 4 3 0.1268 19.445616432904856 6.904850618366686 6.571552414649817 1 1 -1
4830 5 3 0.053 42.96306483823526 20.82861947361475 28.478919255261005 -1 0 -1
7040 7 1 0 17.594057869931515 9.971772618285776 11.71089417017298 0 1 0
3366 4 3 0.053 40.402354114698674 26.16901381951071 5.7651631228150775 0 0 0
6216 6 3 0.1268 31.004368113470193 24.734388504876748 28.425169042608296 0 0 0
6492 6 3 0.1268 48.864823344427656 11.863796851992028 28.496877875756272 0 0 0
340 1 3 0.053 51.08547412353057 11.178310467333432 5.920366293405761 0 0 1
4391 5 1 -0.159 22.492460937413373 8.830017419019983 6.41856454257881 0 0 0
4399 5 2 0 22.818418614215556 11.269685663038523 7.059940219283038 0 0 0
8326 8 3 0.1268 23.405737614487204 7.034549164063181 10.79067100313679 0 1 0
4398 5 3 0.053 22.67433131425827 9.394287965644917 8.91886264833267 0 0 0
4395 5 1 -0.159 23.70069234167477 9.43001667665842 8.456616828502423 0 0 0
4397 5 3 0.053 24.299279462060618 8.516869655535755 8.549678230165817 0 0 0
4434 5 3 0.1268 26.348313316246934 9.530291242402047 7.50505704562624 0 0 0
4390 5 1 0 23.49185740103774 9.87982962448434 6.993241543521545 0 0 0
8313 8 3 0.1268 27.901650358369505 7.262022785561442 6.944206125381673 0 1 0
4433 5 2 -0.1268 26.023325072297915 9.740273271328729 6.493480646237134 0 0 0
4396 5 3 0.053 24.275402148238616 10.187638420888636 8.971399439338539 0 0 0
4393 5 3 0.053 23.030566743605576 7.913483607911109 6.289315209519196 0 0 0
5241 5 2 -0.1268 28.62917210978486 9.518480701937664 11.081447028333946 0 1 0
8312 8 2 -0.1268 27.718590794081535 6.750170595374006 5.978511172263522 0 1 0
5239 5 2 -0.1268 28.659892530730517 10.722924331383464 10.405970862773758 0 1 0
5240 5 3 0.1268 27.977099214874855 11.593942297072834 10.827989421260238 0 1 0
4389 5 2 0 24.717794639864014 9.940104564872062 6.057140504491762 0 0 0
8311 8 3 0.1268 25.684991098947332 6.794975002523056 6.301981990923865 0 1 0
3011 3 3 0.1268 29.34636951731024 19.152524767948623 6.326061904780417 0 1 2
5209 5 2 0 29.246055911734533 8.365363311237546 10.591056629339217 0 1 0
5214 5 2 0.0265 29.28237284532848 10.897173838205351 9.111585305569921 0 1 0
5210 5 2 -0.1268 29.86304389408922 8.526504001990991 9.332867932579056 0 1 0
5211 5 3 0.1268 30.466019127879175 7.710205289220177 8.937629026655117 0 1 0
5212 5 2 -0.1268 29.85235503110849 9.71272946605967 8.577519104763134 0 1 0
5213 5 3 0.1268 30.376403980884135 9.714468429438547 7.5993357660939544 0 1 0
3279 4 2 0.0732 33.183801697841005 10.185958817769729 8.423178038906528 0 0 0
3277 4 5 -0.1143 32.713599762476896 9.478264143114496 10.91941516661473 0 0 0
3276 4 8 0.0822 33.506550587212956 9.119285463733725 9.776484702124865 0 0 0
3287 4 2 -0.1268 33.70499733566159 9.768251236769407 7.171230291149104 0 0 0
3278 4 5 -0.1143 33.594469439792285 7.746517177640198 9.439364201568635 0 0 0
6783 7 3 0.1268 8.44328924220786 5.704663721951715 13.201684539984859 1 1 0
8331 8 6 -0.053 30.121405198723952 6.914184814333864 5.71820898823669 0 1 0
3288 4 3 0.1268 34.29556784935571 8.849322503783542 7.16305669404241 0 0 0
1672 2 3 0.1268 12.467943471131743 28.486924556155763 16.040666317400984 -1 2 1
5200 5 1 0 29.33590381624434 7.008122233064917 11.315220201451233 0 1 0
3285 4 2 -0.1268 33.56019243590811 10.573720981757443 5.988915594498324 0 0 0
3275 4 2 0.0732 35.10483997543511 9.608293438103706 10.264444268754412 0 0 0
3290 4 3 0.1268 36.10944109140063 8.099503398466434 9.163711246554174 0 0 0
3289 4 2 -0.1268 36.23985939546961 8.988351825063832 9.730432975568327 0 0 0
3291 4 2 -0.1268 37.52353311066605 9.556617221840497 9.858895916097781 0 0 0
3292 4 3 0.1268 38.3393679077973 9.05004376410055 9.442366229300095 0 0 0
3270 4 2 0.0265 37.75942092413888 10.725219493835105 10.66524674778037 0 0 0
8351 8 3 0.1268 37.24476995676805 8.499801635329131 6.159583949672523 0 1 0
8353 8 6 -0.053 39.23394075075792 6.727738731503138 6.567905673790983 0 1 0
3273 4 2 -0.1268 35.36467319264641 10.764745160580368 11.06190332639315 0 0 0
3269 4 6 -0.053 39.03266910503276 11.171815089250211 10.78937411255394 0 0 0
3274 4 3 0.1268 34.54060705276288 11.384792268650386 11.429370233698265 0 0 0
3271 4 2 -0.1268 36.613205534062644 11.339338655709902 11.210753340187871 0 0 0
4838 5 2 0.0265 48.161595051649066 26.003583917557748 28.50293720218497 -1 0 -1
2004 2 3 0.1268 40.61906088743107 7.12926182955265 9.6765088112373 -2 3 2
1984 2 2 0.0265 43.83559812638764 8.551549871509728 9.977560373065458 -2 3 2
1986 2 3 0.1268 44.129240742534336 9.832929217153701 8.255727899415822 -2 3 2
2001 2 6 -0.053 42.55294919789669 9.043423588433944 10.106693771902874 -2 3 2
1985 2 2 -0.1268 44.56566518945711 9.168051119230135 8.946018405526369 -2 3 2
6702 7 3 0.1268 44.078408480194945 6.887655334977957 7.137472860430764 0 1 0
2003 2 2 -0.1268 40.6448650062092 7.575735296124629 10.682442422566996 -2 3 2
2002 2 2 0.0265 41.72661574207044 8.427725177160758 11.046495463372374 -2 3 2
6600 7 3 0.1268 46.07333171679432 28.491931377798196 22.365537064803856 0 0 0
6701 7 2 -0.1268 44.60284803344333 5.9982553357647435 6.663466482528459 0 1 0
370 1 3 0.1268 42.80656200605198 8.830609533877006 6.316915049052531 0 0 1
8356 8 3 0.1268 41.661877810228255 6.345768769688902 7.358132185099967 0 1 0
371 1 2 -0.1268 46.77007456156045 11.271038424948847 5.75531144072656 0 0 1
1987 2 2 -0.1268 45.88168124309167 8.803124391577537 8.706261579885327 -2 3 2
1988 2 3 0.1268 46.41852350952622 9.149115062357106 7.834454240725595 -2 3 2
1978 2 5 -0.1143 48.45265834086647 7.232767161338527 7.623641448046989 -2 3 2
1976 2 8 0.0822 48.13593503410203 7.356639263592313 9.025700792453499 -2 3 2
1975 2 2 0.0732 49.00170819960482 8.726109588840126 9.675288552028501 -2 3 2
1973 2 2 -0.1268 49.3821040310796 9.779427032643259 8.843598786991441 -2 3 2
1974 2 3 0.1268 49.02810367211554 9.863882759349874 7.813626010701958 -2 3 2
1979 2 2 0.0732 46.57536842007926 7.895425819559817 9.479485179013672 -2 3 2
1977 2 5 -0.1143 48.42703304841082 6.236409227849445 9.89590432701553 -2 3 2
372 1 3 0.1268 46.180171339167366 11.57571145860209 6.612222897070609 0 0 1
8354 8 2 0.0265 39.67468104370906 5.578882693102916 7.1962446849752 0 1 0
6830 7 3 0.053 46.87684388363495 11.061817436884716 11.090953105198802 0 1 0
1202 2 3 0.053 51.56085302249879 19.816900300115165 27.589695996430194 -1 1 0
4435 5 2 -0.1268 27.095417648672562 9.884048589423806 5.606951512141278 0 0 0
4318 4 3 0.1268 29.26576229141274 5.744162304450073 18.881789138265866 1 1 -1
437 1 2 -0.1268 5.624357174831514 7.531250479771306 6.087398044481947 1 0 1
438 1 3 0.1268 51.85436998301179 8.218718689607577 6.978787448372402 0 0 1
1967 2 3 0.1268 6.927335629629946 10.976504230709171 9.156026574698853 -1 3 2
1962 2 3 0.053 8.8957764228226 16.940276764954543 6.839119088497844 -1 3 2
1966 2 2 -0.1268 6.7041628135514975 12.029472198160967 9.094496380996075 -1 3 2
1964 2 2 -0.1268 7.3047761304072845 12.890891009858763 8.208154914446537 -1 3 2
1963 2 2 0 6.991387350694513 14.234455539616647 8.040542042471644 -1 3 2
1965 2 3 0.1268 7.944000554442572 12.386498427573327 7.4423042910107755 -1 3 2
1960 2 3 0.053 9.175991446625304 15.950736655154996 8.18789559316165 -1 3 2
1995 2 2 -0.1268 6.345437405815773 14.820327150381106 9.127201512690768 -1 3 2
1959 2 1 -0.159 8.290233903606339 16.317449526698425 7.57528886974484 -1 3 2
1954 2 1 0 7.490190083324054 15.164720267375762 6.899668048373357 -1 3 2
4084 4 3 0.1268 10.670091487500331 12.69488684112148 8.070320092597871 1 1 -1
1996 2 3 0.1268 6.134088098248952 15.904730638281466 9.220934405464256 -1 3 2
1968 2 2 0.0265 5.921018729343855 12.612401642713197 10.059970753248194 -1 3 2
1993 2 2 -0.1268 5.75470838005141 13.982715907699603 10.082944674990205 -1 3 2
4083 4 2 -0.1268 10.950670238097668 12.313820773328686 9.015513031572699 1 1 -1
1957 2 3 0.053 51.83278515581436 16.301069654275835 6.683177919329171 -2 3 2
1998 2 3 0.1268 10.511456367153517 14.900385721697429 6.726223130911589 -1 3 2
1969 2 6 -0.053 51.57825320860488 11.834054055732096 10.996126855079389 -2 3 2
4088 4 5 -0.1143 11.476621869563948 15.507503563628179 9.325396561651564 1 1 -1
7084 7 3 0.1268 15.605458246037843 11.69523966855463 10.524284524085285 0 1 0
4085 4 2 0.0732 11.913886987664625 12.925181796595513 9.859066888491725 1 1 -1
4089 4 2 0.0732 13.560542887166797 14.504566979645801 8.258331571601033 1 1 -1
4097 4 2 -0.1268 13.947004090824155 13.288852394591952 7.667779235509498 1 1 -1
4086 4 8 0.0822 12.526152860844608 14.621130808232305 9.624422068491205 1 1 -1
4098 4 3 0.1268 13.574270684038417 12.298407948281476 7.977204197784346 1 1 -1
4090 4 2 -0.1268 13.869597317120098 15.725537231613604 7.604534973450308 1 1 -1
4092 4 2 -0.1268 14.660142221411162 15.696078220288886 6.498959597897772 1 1 -1
7086 7 3 0.1268 15.944880997297757 13.889482817205913 9.329504806977496 0 1 0
4095 4 2 -0.1268 14.847207907423032 13.25260502574833 6.583920342278241 1 1 -1
4091 4 3 0.1268 13.493325288565384 16.655859478559865 8.00971653579018 1 1 -1
4096 4 3 0.1268 15.346503087178768 12.34965746923541 6.242049287817946 1 1 -1
4094 4 2 0.0265 15.183384983609052 14.492378370875098 5.993143930246582 1 1 -1
4093 4 3 0.1268 14.972479147105052 16.672446172375817 6.120568760304074 1 1 -1
7083 7 2 -0.1268 16.622992893655294 12.102108626688056 10.48174927441805 0 1 0
7085 7 2 -0.1268 16.81909529289448 13.283298324953495 9.702835316955586 0 1 0
4087 4 5 -0.1143 13.344887772436202 14.97924685738481 10.690423816495844 1 1 -1
7015 7 3 0.1268 17.084546629510882 15.809468829788898 10.984227090486819 0 1 0
4403 5 3 0.1268 19.833648654424053 12.784263456825594 7.292735147683057 0 0 0
4114 4 3 0.1268 17.474256129375956 12.976341574381713 6.390496744063867 1 1 -1
4402 5 2 -0.1268 20.847504204748937 12.634404715660164 7.126528756665211 0 0 0
7034 7 2 0.0265 18.10779359501405 13.781329784767792 9.520332536090955 0 1 0
7033 7 6 -0.053 18.41347411294056 14.943484729690091 8.803103613663229 0 1 0
4404 5 2 0.0265 21.584222328294288 13.789831326292248 7.006474458464195 0 0 0
4406 5 2 0.0265 21.267787036097673 16.23437177392715 7.3645653865792085 0 0 0
4405 5 6 -0.053 20.888699131218903 14.998178984778646 6.840069812966057 0 0 0
4427 5 2 -0.1268 22.061856882671464 16.342220922849357 8.52733371718876 0 0 0
7035 7 2 -0.1268 19.123300147548825 13.122646830119388 10.127381948561204 0 1 0
4407 5 2 -0.1268 20.927437273486053 17.379170626938503 6.668676685901917 0 0 0
7039 7 2 0 17.704922257569912 11.3235449375781 10.948409755239318 0 1 0
4428 5 3 0.1268 22.120221060390936 15.362931860049107 9.095659707230205 0 0 0
7037 7 2 -0.1268 18.944823975956893 11.9505758359012 10.841852589901778 0 1 0
7016 7 2 0.0265 17.579245642141856 16.027285190806005 8.883795361962889 0 1 0
7036 7 3 0.1268 20.1247252369922 13.488313737714154 10.034378813999218 0 1 0
7014 7 2 -0.1268 16.918274652645916 16.341663278850902 10.072082498378377 0 1 0
7018 7 3 0.1268 17.99420960388788 16.661599666491732 6.804692518516797 0 1 0
5543 6 2 -0.1268 15.006799072206341 19.265534664161986 28.46222786864565 0 0 -1
7038 7 3 0.1268 19.81552126545664 11.445192759683941 11.218144423403976 0 1 0
8257 8 3 0.1268 22.262507381274617 16.39768379226168 11.730414040141056 0 1 0
8258 8 2 -0.1268 22.986779028981054 14.382250855308945 11.700973614269598 0 1 0
3769 4 3 0.1268 9.368005585672154 5.772062929745014 24.047502149369176 1 1 -1
4429 5 2 -0.1268 22.91261254017403 13.716672156442579 6.9575523490603235 0 0 0
5238 5 3 0.1268 26.526337381838097 12.441662770550437 9.050903551126622 0 1 0
5235 5 2 -0.1268 26.626075437051934 14.339213259399173 9.69222057320785 0 1 0
5237 5 2 -0.1268 27.22818205066355 13.23023704316222 9.198138856948535 0 1 0
5236 5 3 0.1268 25.47609896047452 14.333014527727842 9.787548628962398 0 1 0
3005 3 5 -0.1143 25.605115649994577 15.788635023639992 6.7842616861891765 0 1 2
4431 5 2 -0.1268 23.560596705243423 12.44374676995016 6.985744488560632 0 0 0
5221 5 2 0.0732 27.404891408719834 15.430473255343287 9.913045137281365 0 1 0
3018 3 3 0.1268 27.443253899284095 14.473902833255789 6.238013329301128 0 1 2
4432 5 3 0.1268 24.60304098605841 12.478621413583877 6.836737214822248 0 0 0
5222 5 8 0.0822 26.778437968714954 16.86905384122696 10.710572282204826 0 1 0
5223 5 5 -0.1143 25.411137346517094 16.70246968813386 11.127843720853448 0 1 0
8259 8 3 0.1268 23.594105099264112 14.520008515414318 10.78828697832708 0 1 0
4430 5 3 0.1268 23.346306211980266 14.692010172456511 6.745093968148257 0 0 0
3280 4 2 -0.1268 32.45086843906859 11.349267905916054 8.454054183276918 0 0 0
3281 4 3 0.1268 32.07968847200989 11.643929192055616 9.460858567340683 0 0 0
3284 4 2 0.0265 32.7248283474067 11.695994983094156 6.040759617170461 0 0 0
5215 5 6 -0.053 29.20178737906923 12.068884532703603 8.388046334360414 0 1 0
5216 5 2 0.0265 28.615626330830086 13.174923284392078 8.965197048579341 0 1 0
3282 4 2 -0.1268 32.23602931039814 12.105711264850243 7.315577612836464 0 0 0
5219 5 2 -0.1268 28.775122924101066 15.573422367325561 9.474078345408067 0 1 0
5217 5 2 -0.1268 29.403993218429815 14.425533612620494 9.007392528885294 0 1 0
5218 5 3 0.1268 30.449508309262644 14.407574089771323 8.613212356059247 0 1 0
3222 3 5 -0.1143 31.429599618674978 15.76997012232368 6.449966021265805 0 1 2
3283 4 3 0.1268 31.570253954941943 13.013615993115316 7.388943929518048 0 0 0
5220 5 3 0.1268 29.279077590393914 16.5750209070844 9.56579951622091 0 1 0
2720 3 3 0.053 31.42177315591162 15.232314802424465 10.684217707629484 0 1 1
3220 3 8 0.0822 32.55819715123706 16.39605048162061 5.844609874378552 0 1 2
3221 3 5 -0.1143 33.840759485568896 16.03969509034758 6.34518632204391 0 1 2
2714 3 3 0.053 34.540468529767296 13.913634225568515 10.497817891532994 0 1 1
2713 3 1 -0.159 34.359597521675994 14.957873181427907 10.472424775572383 0 1 1
2716 3 3 0.053 33.82662870913458 15.10304739029482 9.515543952356303 0 1 1
2756 3 3 0.1268 33.98438866428478 17.591799799891483 9.694024904720308 0 1 1
662 1 3 0.053 37.805515084396305 12.153366565258104 8.026123487376527 0 0 1
664 1 3 0.053 38.12524328704463 12.531855686550454 6.293820592978478 0 0 1
663 1 3 0.053 36.73108050669086 13.220064423442725 7.177902243451778 0 0 1
661 1 1 -0.159 37.80903022701606 12.950352212347887 7.245858273585389 0 0 1
656 1 1 0 38.63577508992156 14.17429353600484 7.653182027286625 0 0 1
657 1 1 -0.159 38.50767779577865 14.609271009220477 9.244603758223102 0 0 1
660 1 3 0.053 38.806726280513374 13.778804443164598 9.847582076705697 0 0 1
665 1 2 0 38.07421385071767 15.227508104708116 6.6210405672294375 0 0 1
658 1 3 0.053 39.233253227288884 15.500626474878041 9.323226858130484 0 0 1
659 1 3 0.053 37.478863358743794 14.900371570785184 9.443339692436775 0 0 1
666 1 2 -0.1268 37.801781649044685 16.548116674074898 7.056496969369868 0 0 1
655 1 2 0 40.11318015297427 13.960776261021204 7.403272408531554 0 0 1
667 1 3 0.1268 37.66265076152794 16.669418857404573 8.160348164891895 0 0 1
700 1 3 0.1268 40.17303725330266 11.854380387181848 7.992274764330879 0 0 1
4408 5 3 0.1268 20.369285703105582 17.313092034116544 5.712410488205941 0 0 0
2715 3 3 0.053 35.31742924369003 15.435279131527114 10.349330093890327 0 1 1
702 1 3 0.1268 42.64472552605302 11.70605152573685 7.547192130020839 0 0 1
654 1 3 0.1268 40.40912300561135 16.013198079255716 7.079899491944198 0 0 1
699 1 2 -0.1268 40.70781503424237 12.751995650220003 7.712093754647223 0 0 1
653 1 2 -0.1268 40.84603608722518 15.006178340330992 6.95608833098251 0 0 1
6864 7 3 0.1268 41.890649309106976 14.384659804505564 9.563655129847552 0 1 0
6866 7 3 0.1268 44.217436228213494 13.445276655937471 9.202238434201526 0 1 0
701 1 2 -0.1268 42.03836092490638 12.602099934900007 7.364737009953733 0 0 1
6865 7 2 -0.1268 44.046485557867854 13.924045392089814 10.09930509552764 0 1 0
6863 7 2 -0.1268 42.79409494545524 14.472901936308556 10.314371083367453 0 1 0
650 1 2 0.0265 42.77874534528436 13.61907940390066 6.687042547146879 0 0 1
651 1 2 -0.1268 42.16979685581689 14.85133180013625 6.545571001843864 0 0 1
4544 5 3 0.1268 45.39782007557207 16.584103324380344 9.184888198449908 -1 0 0
6831 7 3 0.053 45.35028007824973 11.381507612600021 10.253787894391843 0 1 0
3294 4 3 0.1268 41.22625325581193 12.513356271198678 11.332036382855822 0 0 0
6833 7 2 0 45.032407206072115 14.016914112907534 11.031435138186628 0 1 0
6829 7 1 -0.159 45.990191171518745 11.77570830884452 11.048680414660122 0 1 0
4543 5 2 -0.1268 45.182035336226924 17.140750907177356 8.294243103364774 -1 0 0
652 1 3 0.1268 42.64588220643013 15.74207292193801 6.1621515622232765 0 0 1
649 1 6 -0.053 44.03651531622058 13.354824592008939 6.231779343570995 0 0 1
1971 2 2 -0.1268 50.27375546728684 10.822747481014027 9.242701265293368 -2 3 2
1970 2 2 0.0265 50.81196821696656 10.807247376909165 10.501164646472994 -2 3 2
631 1 3 0.1268 46.51594809795124 14.38213036893365 6.050535564428313 0 0 1
1972 2 3 0.1268 50.48247437912367 11.6791125398482 8.61545984054625 -2 3 2
6828 7 3 0.053 46.57558354922182 12.909285770667 8.69164135566448 0 1 0
6826 7 3 0.053 47.02817427750166 14.607281154500553 9.197781174316061 0 1 0
6827 7 3 0.053 48.09989744152355 13.111251207110332 9.447510568497227 0 1 0
6825 7 1 -0.159 47.050835464003235 13.512542064761327 9.491312616329669 0 1 0
4473 5 3 0.1268 49.84523876674779 16.005193079330297 8.818086131746023 -1 0 0
4491 5 6 -0.053 47.46826150139364 16.9838435299906 7.775318089594592 -1 0 0
6824 7 1 0 46.436567066499876 13.255725084445734 10.90943185935783 0 1 0
4472 5 2 -0.1268 49.38863489040147 16.887067534639158 9.30748369481702 -1 0 0
6822 7 3 0.1268 46.97672728849626 15.939433576121461 11.61173968340878 0 1 0
338 1 3 0.053 50.54840358271357 12.778551786519923 6.472473797493908 0 0 1
374 1 3 0.1268 48.33925942030145 12.624815821856025 6.072290831250202 0 0 1
1994 2 3 0.1268 51.56747433184454 14.440066375685339 10.899229577257955 -2 3 2
1961 2 3 0.053 7.672543214673572 16.993859022144512 8.202298435189233 -1 3 2
7025 7 2 -0.1268 9.301770673558236 20.93617178561467 6.9484858913937435 0 1 0
7027 7 2 -0.1268 7.950521643853377 21.261557841168333 7.104789123346835 0 1 0
4462 5 3 0.1268 8.149529491872675 19.863448344127324 9.797513778804628 0 0 0
7026 7 3 0.1268 9.93061289069603 21.365748032063614 7.69702879254651 0 1 0
4464 5 3 0.1268 5.723208968604516 20.13657286833147 10.127415195507087 0 0 0
7028 7 3 0.1268 7.7632536994178984 21.83170024543128 8.069880624497939 0 1 0
4461 5 2 -0.1268 7.658258823173849 19.31915722445175 10.682181167827952 0 0 0
6995 7 2 0 6.903449005297659 20.87491904174786 6.260558985913627 0 1 0
6990 7 3 0.053 51.23362137177117 19.470674445705264 7.829931573394907 -1 1 0
6989 7 3 0.053 51.31435875178092 19.063680063088196 6.12634455282702 -1 1 0
6986 7 1 0 51.71554732388877 21.200409515025434 6.472114962624683 -1 1 0
4463 5 2 -0.1268 6.304017510141968 19.541599548575554 10.874658199124351 0 0 0
4459 5 6 -0.053 9.771908978458207 18.37829170194788 11.318714767032217 0 0 0
4460 5 2 0.0265 8.47060264616511 18.686305282852192 11.650492109814081 0 0 0
7024 7 3 0.1268 10.894384968353874 18.897466882817024 7.642455411160716 0 1 0
4692 5 3 0.1268 12.037714704035004 21.438702215527034 10.79310512440674 0 0 0
7023 7 2 -0.1268 11.853284517795815 19.33737992050787 7.354079067642958 0 1 0
7021 7 2 -0.1268 13.009080765462297 19.165726084573613 8.131655406024617 0 1 0
7007 7 2 0.0732 14.181100937067301 19.888506407801493 7.914154970488981 0 1 0
7008 7 8 0.0822 15.389891076150885 20.07273864675245 9.129697260236874 0 1 0
7022 7 3 0.1268 12.828424641003098 18.588764722572996 9.021552390479124 0 1 0
7011 7 2 0.0732 16.116757634422758 18.46914728670584 9.046077743118282 0 1 0
7012 7 2 -0.1268 16.1718633174889 17.50002950174833 10.103377543184333 0 1 0
7010 7 5 -0.1143 16.40594973617101 20.96314616203125 8.665283578561617 0 1 0
7009 7 5 -0.1143 14.86621980728509 20.330803761379645 10.42343916686023 0 1 0
7005 7 2 -0.1268 14.276548705027817 20.64103081875733 6.74453958235169 0 1 0
7006 7 3 0.1268 15.145648419658118 21.21359525847268 6.419031287097415 0 1 0
7013 7 3 0.1268 15.697597366046418 17.544866076592 11.08239025310326 0 1 0
7002 7 2 0.0265 11.97589966038483 20.023145268359855 6.13484597514727 0 1 0
4457 5 3 0.1268 11.976662592297183 17.354758135746472 10.973419004467642 0 0 0
6528 7 2 -0.1268 48.71449059670346 28.256832899661916 23.36641782438771 0 0 0
7020 7 3 0.1268 16.672980311096524 18.69479826118939 6.903797150436088 0 1 0
7019 7 2 -0.1268 16.761534193450537 18.10280849222852 7.830272415319035 0 1 0
4410 5 3 0.1268 21.170843300151652 19.52721886175548 6.63095163566477 0 0 0
4425 5 2 -0.1268 22.438212788219 17.583524566854905 9.06004401471881 0 0 0
4409 5 2 -0.1268 21.35564917315567 18.594201157791527 7.159781068877933 0 0 0
7017 7 2 -0.1268 17.448190218080143 16.911997435443915 7.721988668419998 0 1 0
4423 5 2 -0.1268 20.289800280753138 21.357599655981474 9.209530587381765 0 0 0
4424 5 3 0.1268 20.47979307140705 21.639777598091495 8.175116065392261 0 0 0
4415 5 2 0.0732 21.34965700260806 20.669373009138297 9.853214042507533 0 0 0
4421 5 2 -0.1268 19.14970336728596 21.867526562758602 9.857281670063564 0 0 0
4422 5 3 0.1268 18.446299900179078 22.584025174016187 9.37569860075623 0 0 0