units real
atom_style full
boundary p p p

# --- Force Field Styles ---
pair_style lj/cut 14.0
dielectric 1.000000
bond_style harmonic
angle_style harmonic
dihedral_style multi/harmonic
improper_style none
special_bonds lj 0 0 0
pair_modify mix arithmetic tail yes
neighbor 2.0 bin
neigh_modify delay 0 every 1 check yes
neigh_modify one 4000
# GPU disabled (CPU run)

read_data /home/arz2/PolyJarvis/data/cis-PBD1/lammps/equil/npt_production/npt_production_out.data
Reading data file ...
  orthogonal box = (4.7505938 4.7505938 4.7505938) to (63.427784 63.427784 63.427784)
  2 by 2 by 2 MPI processor grid
  reading atoms ...
  8040 atoms
  reading velocities ...
  8040 velocities
  scanning bonds ...
  2 = max bonds/atom
  scanning angles ...
  1 = max angles/atom
  scanning dihedrals ...
  2 = max dihedrals/atom
  orthogonal box = (4.7505938 4.7505938 4.7505938) to (63.427784 63.427784 63.427784)
  2 by 2 by 2 MPI processor grid
  reading bonds ...
  8020 bonds
  reading angles ...
  8000 angles
  reading dihedrals ...
  7980 dihedrals
Finding 1-2 1-3 1-4 neighbors ...
  special bond factors lj:    0        0        0       
  special bond factors coul:  0        0        0       
     2 = max # of 1-2 neighbors
     2 = max # of 1-3 neighbors
     4 = max # of 1-4 neighbors
     6 = max # of special neighbors
  special bonds CPU = 0.001 seconds
  read_data CPU = 0.225 seconds
include /home/arz2/PolyJarvis/data/cis-PBD1/lammps/equil/emc_build.params
# LAMMPS parameters created by EMC v9.4.4, build Jul 31 2025 20:33:44

# Variables

variable	seed		index	-1
variable	ntotal		index	8040
variable	fshape		index	1
variable	output		index	emc_build
variable	field		index	trappe/2014/trappe-ua
variable	location1	index	/home/arz2/emc/field/
variable	nav		index	0.6022141179
variable	temperature	index	300
variable	radius		index	5
variable	nrelax		index	100
variable	weight_nonbond	index	0.0001
variable	weight_bond	index	0.0001
variable	weight_focus	index	1
variable	cutoff		index	14
variable	charge_cutoff	index	14
variable	kappa		index	4
variable	density1	index	0.57
variable	lprevious	index	0
variable	lphase		index	68.1783775471
variable	f_poly		index	20
variable	chem_repeat	index	*C/C=C\C*
variable	chem_cap	index	*C
variable	lg_repeat	index	4
variable	lg_cap		index	1
variable	norm_poly	index	100
variable	l_poly		index	402
variable	mg_repeat	index	54.0914
variable	mg_cap		index	15.0347
variable	m_poly		index	5439.2094
variable	n_poly		index	20
variable	mtotal		index	108784.188
variable	nphase1		index	8040
variable	mphase1		index	108784.188
variable	vphase1		index	316912.949994
variable	lbox		index	68.1783775471
variable	lphase1		index	68.1783775471
variable	lxx		index	68.1783775471
variable	lyy		index	68.1783775471
variable	lzz		index	68.1783775471
variable	lzy		index	0
variable	lzx		index	0
variable	lyx		index	0
variable	vtotal		index	316912.949994
variable	nl_poly		index	20

# Types

variable	type_c3h	index	1
variable	type_c4h2	index	2
variable	type_c4h3	index	3

variable	type_bond_c3h_c3h index	1
variable	type_bond_c3h_c4h2 index	2
variable	type_bond_c4h2_c4h2 index	3
variable	type_bond_c4h2_c4h3 index	4

variable	type_angle_c3h_c3h_c4h2 index	1
variable	type_angle_c3h_c4h2_c4h2 index	2
variable	type_angle_c3h_c4h2_c4h3 index	3

# Clusters

variable	n0_poly		index	1
variable	n1_poly		index	20
variable	nl_poly		index	20

# Flags

variable	flag_charged	index	0

# Masses

mass		1    13.01890  # c3h
mass		2    14.02680  # c4h2
mass		3    15.03470  # c4h3

# Potentials

pair_modify	mix arithmetic tail yes
special_bonds	lj 0 0 0 coul 0 0 0.5
Finding 1-2 1-3 1-4 neighbors ...
  special bond factors lj:    0        0        0       
  special bond factors coul:  0        0        0.5     
     2 = max # of 1-2 neighbors
     2 = max # of 1-3 neighbors
     4 = max # of 1-4 neighbors
     6 = max # of special neighbors
  special bonds CPU = 0.001 seconds

# Pair Coeffs

pair_coeff	1 1    0.09340    3.71000  # c3h,c3h
pair_coeff	2 2    0.09141    3.95000  # c4h2,c4h2
pair_coeff	3 3    0.19475    3.75000  # c4h3,c4h3

# Bond Coeffs

bond_coeff	1  529.99987    1.33000  # c3h,c3h
bond_coeff	2  260.00013    1.54000  # c3h,c4h2
bond_coeff	3  260.00013    1.54000  # c4h2,c4h2
bond_coeff	4  260.00013    1.54000  # c4h2,c4h3

# Angle Coeffs

angle_coeff	1   69.96954  119.70000  # c3h,c3h,c4h2
angle_coeff	2   62.10020  114.00000  # c3h,c4h2,c4h2
angle_coeff	3   62.10020  114.00000  # c3h,c4h2,c4h3

# Dihedral Coeffs

dihedral_coeff	1    1.91086    1.85422    0.43627   -2.24348    0.00000  # c3h,c3h,c4h2,c4h2
dihedral_coeff	2    1.91086    1.85422    0.43627   -2.24348    0.00000  # c3h,c3h,c4h2,c4h3
dihedral_coeff	3    2.00702   -4.01203    0.27102    6.29006    0.00000  # c3h,c4h2,c4h2,c3h
dihedral_coeff	4   25.63496    0.99360  -25.63496   -0.99360    0.00000  # c4h2,c3h,c3h,c4h2


# --- Thermo Output ---
thermo_style custom step time temp press enthalpy etotal ke pe ebond eangle edihed eimp evdwl ecoul elong etail vol lx ly lz density pxx pyy pzz
thermo_modify flush yes
thermo 500

# --- Velocity initialization at T_START (once only — Rule A) ---
velocity all create 400.0 569515 mom yes rot yes dist gaussian

# --- Temperature staircase (inherits momenta across steps — Rule A) ---
variable temps index 400 380 360 340 320 300 280 260 240 220 200 180 160 140 120 100 80
label TEMP_LOOP
  timestep 2
  fix npt_tg all npt temp ${temps} ${temps} 100 iso 1.0 1.0 1000.0
  fix npt_tg all npt temp 400 ${temps} 100 iso 1.0 1.0 1000.0
  fix npt_tg all npt temp 400 400 100 iso 1.0 1.0 1000.0
  run 250000
Generated 3 of 3 mixed pair_coeff terms from arithmetic mixing rule
Neighbor list info ...
  update: every = 1 steps, delay = 0 steps, check = yes
  max neighbors/atom: 4000, page size: 100000
  master list distance cutoff = 16
  ghost atom cutoff = 16
  binsize = 8, bins = 8 8 8
  1 neighbor lists, perpetual/occasional/extra = 1 0 0
  (1) pair lj/cut, perpetual
      attributes: half, newton on
      pair build: half/bin/newton
      stencil: half/bin/3d
      bin: standard
Per MPI rank memory allocation (min/avg/max) = 9.233 | 9.234 | 9.235 Mbytes
   Step          Time           Temp          Press         Enthalpy        TotEng         KinEng         PotEng         E_bond        E_angle        E_dihed        E_impro         E_vdwl         E_coul         E_long         E_tail         Volume           Lx             Ly             Lz          Density          Pxx            Pyy            Pzz      
         0   0              400            133.98317      14420.955      14026.194      9585.0928      4441.1014      2427.5307      2372.9777      8672.251       0             -9031.6579      0              0             -287.70855      202026.31      58.67719       58.67719       58.67719       0.89414285    -72.912723      361.24865      113.61357    
       500   1000           393.77324      373.03098      17942.429      16805.278      9435.8826      7369.3956      3382.0901      3241.4102      9271.0655      0             -8525.1701      0              0             -278.076        209024.5       59.34704       59.34704       59.34704       0.86420674     113.70791      240.52747      764.85756    
      1000   2000           401.33844     -298.20506      15979.572      16897.214      9617.1654      7280.0487      3449.6062      3101.7383      9174.8862      0             -8446.1821      0              0             -275.47258      210999.93      59.533412      59.533412      59.533412      0.85611582    -602.69582      162.76999     -454.68936    
      1500   3000           407.87804     -383.93742      16047.039      17235.445      9773.8722      7461.573       3407.1942      3137.7932      9285.9606      0             -8369.375       0              0             -273.86232      212240.57      59.649865      59.649865      59.649865      0.85111144    -427.83554     -365.11475     -358.86199    
      2000   4000           394.99511      29.433408      16983.815      16893.443      9465.1621      7428.2806      3390.7906      3085.9451      9435.1016      0             -8483.5568      0              0             -276.08345      210533.06      59.489471      59.489471      59.489471      0.85801429     118.95902      17.918284     -48.577077    
      2500   5000           396.62371      79.398978      17403.105      17156.786      9504.1877      7652.5986      3355.01        3218.626       9432.3454      0             -8353.3828      0              0             -273.24638      212718.99      59.694652      59.694652      59.694652      0.84919722     154.78774      331.14455     -247.73536    
      3000   6000           402.96129      741.49521      19449.703      17154.632      9656.0534      7498.5791      3316.4642      3121.9718      9392.8163      0             -8332.6732      0              0             -273.87276      212232.48      59.649107      59.649107      59.649107      0.85114389     565.02948      951.28201      708.17414    
      3500   7000           398.09656      84.89273       17429.606      17166.811      9539.4811      7627.33        3381.8264      3168.5695      9414.6024      0             -8337.6682      0              0             -273.83553      212261.34      59.651811      59.651811      59.651811      0.85102818     429.28843      586.82889     -761.43913    
      4000   8000           402.42877      373.40618      18290.192      17135.792      9643.2928      7492.499       3321.3116      3113.0334      9432.7295      0             -8374.5755      0              0             -274.1964       211981.98      59.62563       59.62563       59.62563       0.85214969     637.73089      243.19703      239.29063    
      4500   9000           401.85723      336.10253      18358.249      17313.924      9629.597       7684.3267      3312.3514      3240.0232      9448.9231      0             -8316.971       0              0             -272.81773      213053.21      59.725899      59.725899      59.725899      0.84786507     1004.3566      217.39982     -213.44885    
      5000   10000          401.25974      393.24258      18440.372      17223.552      9615.2795      7608.272       3322.0752      3174.0869      9434.4128      0             -8322.3029      0              0             -273.94948      212173.05      59.643539      59.643539      59.643539      0.85138231     447.3434       721.24778      11.136576    
      5500   11000          400.34692      237.33925      17991.905      17257.785      9593.406       7664.3788      3318.4629      3204.4024      9503.7068      0             -8362.1933      0              0             -274.05588      212090.67      59.635819      59.635819      59.635819      0.85171299    -553.32964      524.98199      740.3654     
      6000   12000          399.59859      1205.7153      20993.88       17242.957      9575.474       7667.4833      3253.6089      3146.6491      9575.2263      0             -8308.0009      0              0             -272.48542      213313.04      59.750169      59.750169      59.750169      0.84683232     993.43748      643.21148      1980.497     
      6500   13000          396.16518      93.804006      17302.524      17009.642      9493.2001      7516.4415      3256.5423      3123.8281      9415.2339      0             -8279.1628      0              0             -271.49649      214090.04      59.822628      59.822628      59.822628      0.84375891     479.45075     -412.25708      214.21835    
      7000   14000          396.25657      222.94614      17804.643      17115.173      9495.39        7619.783       3320.9989      3148.2913      9447.7586      0             -8297.2659      0              0             -274.10779      212050.5       59.632054      59.632054      59.632054      0.85187431     6.1647806      291.63432      371.03932    
      7500   15000          403.33982      511.4802       18937.435      17347.038      9665.124       7681.9139      3229.3672      3230.8337      9510.6813      0             -8288.9683      0              0             -272.62134      213206.69      59.740237      59.740237      59.740237      0.84725473     591.55385      732.71481      210.17195    
      8000   16000          402.38114     -768.14731      14904.5        17291.646      9642.1514      7649.4944      3244.9915      3187.9357      9511.6097      0             -8295.0425      0              0             -272.77349      213087.77      59.729128      59.729128      59.729128      0.84772758    -470.75303     -1273.4695     -560.21941    
      8500   17000          396.4507      -290.23876      16174.493      17077.288      9500.0419      7577.2463      3233.4902      3233.918       9412.6679      0             -8302.8298      0              0             -272.52274      213283.84      59.747442      59.747442      59.747442      0.84694828    -383.14334     -454.23154     -33.341389    
      9000   18000          404.77197      23.740277      17483.471      17409.017      9699.4423      7709.5749      3254.0968      3120.9968      9570.0066      0             -8235.5253      0              0             -270.29318      215043.14      59.911271      59.911271      59.911271      0.84001924    -144.75114      116.21912      99.752856    
      9500   19000          404.16061      253.79494      18373.65       17578.11       9684.7925      7893.3179      3288.4464      3278.7237      9499.5615      0             -8173.4137      0              0             -270.4317       214932.99      59.90104       59.90104       59.90104       0.84044973     605.58099      23.915593      131.88824    
     10000   20000          403.38567      271.37109      18124.094      17277.642      9666.2228      7611.4189      3295.5906      3077.9768      9469.3974      0             -8231.5459      0              0             -271.76759      213876.48      59.80273       59.80273       59.80273       0.84460142    -211.92294     -59.107591      1085.1438    
     10500   21000          396.61605     -376.26006      15989.244      17169.494      9504.0041      7665.4899      3283.7029      3165.0722      9405.4119      0             -8188.6971      0              0             -270.2406       215084.98      59.915156      59.915156      59.915156      0.83985584    -32.716962     -1149.2856      53.222431    
     11000   22000          396.81017      112.33558      17724.314      17372.017      9508.6557      7863.3616      3333.8595      3246.4894      9479.3275      0             -8196.3148      0              0             -270.29961      215038.03      59.910796      59.910796      59.910796      0.84003921    -20.323462      336.7576       20.572609    
     11500   23000          401.89229     -519.90392      15839.995      17476.86       9630.4373      7846.4226      3239.529       3279.622       9514.739       0             -8187.4674      0              0             -269.24451      215880.71      59.988952      59.988952      59.988952      0.83676018    -691.07708     -860.88366     -7.7510179    
     12000   24000          399.58166     -168.2909       16960.206      17489.15       9575.0681      7914.0816      3255.3315      3238.5695      9559.3919      0             -8139.2112      0              0             -269.7041       215512.84      59.954858      59.954858      59.954858      0.83818848    -546.63189     -190.22198      231.98118    
     12500   25000          394.2381       67.849228      17605.727      17391.654      9447.022       7944.632       3329.2639      3196.8562      9550.3488      0             -8131.837       0              0             -268.67005      216342.29      60.031677      60.031677      60.031677      0.83497487     43.59243      -429.48769      589.44294    
     13000   26000          399.45267      214.56971      18018.238      17347.43       9571.9773      7775.4526      3266.8698      3132.4         9576.5942      0             -8200.4115      0              0             -271.14811      214365.11      59.848238      59.848238      59.848238      0.84267622    -519.07236      862.92374      299.85775    
     13500   27000          394.4376      -366.00827      16118.184      17265.825      9451.8025      7814.0226      3260.308       3088.2597      9563.2377      0             -8097.7828      0              0             -270.34695      215000.37      59.907299      59.907299      59.907299      0.84018635    -520.65474     -617.57403      40.203956    
     14000   28000          397.14989      212.00318      17782.361      17118.162      9516.7964      7601.3655      3118.365       3168.144       9562.4544      0             -8247.5978      0              0             -270.57063      214822.63      59.890786      59.890786      59.890786      0.84088151     381.53909      168.87157      85.598885    
     14500   29000          404.34867      202.98432      18219.176      17583.862      9689.2989      7894.5632      3266.9368      3182.4007      9635.9239      0             -8190.6981      0              0             -270.83886      214609.88      59.871008      59.871008      59.871008      0.8417151      495.36641      260.28099     -146.69443    
     15000   30000          401.20635     -302.64874      16333.327      17278.836      9614.0001      7664.8363      3167.558       3139.0146      9573.8047      0             -8215.5409      0              0             -271.33748      214215.5       59.834312      59.834312      59.834312      0.84326473    -454.39702     -845.02647      391.47725    
     15500   31000          393.2718      -590.46019      15363.182      17221.937      9423.8669      7798.0706      3267.8864      3082.4472      9646.8726      0             -8199.1356      0              0             -269.28055      215851.81      59.986276      59.986276      59.986276      0.83687218    -702.95596     -552.5386      -515.88601    
     16000   32000          396.8183      -131.62256      16986.38       17399.999      9508.8505      7891.1488      3294.1861      3270.8683      9485.8582      0             -8159.7638      0              0             -269.75321      215473.6       59.951219      59.951219      59.951219      0.83834112    -49.624862     -223.05339     -122.18943    
     16500   33000          400.44158      127.60887      17649.843      17252.446      9595.6743      7656.7718      3211.2073      3148.234       9574.0898      0             -8276.7593      0              0             -272.20291      213534.44      59.770833      59.770833      59.770833      0.84595432     290.64275     -28.736923      120.92078    
     17000   34000          400.4287      -42.464047      17299.022      17432.586      9595.3655      7837.2201      3303.3791      3114.619       9567.7896      0             -8148.5676      0              0             -269.50646      215670.88      59.96951       59.96951       59.96951       0.83757428     219.59935     -684.03458      337.04308    
     17500   35000          395.40942     -389.29525      15935.031      17152.791      9475.09        7677.7009      3213.0528      3222.887       9432.9493      0             -8191.1883      0              0             -270.99038      214489.88      59.859847      59.859847      59.859847      0.84218601    -413.41038     -639.43643     -115.03894    
     18000   36000          406.76273     -187.51284      16894.701      17483.307      9747.1462      7736.1606      3252.6881      3219.1253      9490.3161      0             -8225.969       0              0             -270.04918      215237.44      59.929309      59.929309      59.929309      0.83926096     34.442383     -84.319406     -512.66151    
     18500   37000          405.66846      313.24304      18512.047      17531.278      9720.9247      7810.3532      3253.2085      3244.5273      9495.154       0             -8182.5366      0              0             -270.73917      214688.9       59.878356      59.878356      59.878356      0.84140529     779.75499      80.778917      79.195224    
     19000   38000          400.41843      317.21495      18216.364      17223.929      9595.1196      7628.8093      3258.7368      3098.9771      9444.2017      0             -8173.1063      0              0             -270.94923      214522.46      59.862877      59.862877      59.862877      0.84205813     589.62165      831.91466     -469.89147    
     19500   39000          402.18589     -334.17828      16323.392      17369.524      9637.4727      7732.0517      3274.2091      3171.191       9497.0951      0             -8210.4435      0              0             -270.7873       214650.74      59.874808      59.874808      59.874808      0.84155487    -394.59352     -563.86849     -44.072828    
     20000   40000          398.38268      215.08838      17864.452      17192.989      9546.3374      7646.6514      3220.996       3113.7276      9501.9004      0             -8189.9727      0              0             -271.53854      214056.88      59.81954       59.81954       59.81954       0.8438896      800.19801     -73.849073     -81.083799    
     20500   41000          399.18292     -197.70107      16768.823      17389.039      9565.5133      7823.5254      3320.9009      3244.1081      9486.7351      0             -8228.2187      0              0             -270.21094      215108.59      59.917348      59.917348      59.917348      0.83976367     79.194108     -205.59841     -466.69892    
     21000   42000          405.09037     -174.54841      16949.792      17498.092      9707.0719      7791.0201      3248.745       3159.2306      9572.8022      0             -8189.7579      0              0             -269.85713      215390.62      59.943523      59.943523      59.943523      0.83866408    -144.71649     -288.8915      -90.037233    
     21500   43000          401.02289      197.03482      17953.885      17339.984      9609.6039      7730.3805      3228.4391      3214.1668      9562.41        0             -8274.6354      0              0             -272.07038      213638.45      59.780537      59.780537      59.780537      0.84554243     25.863249      588.78932     -23.548105    
     22000   44000          401.72431      194.35513      17793.632      17186.659      9626.4119      7560.2466      3238.8377      3083.0762      9508.7191      0             -8270.3864      0              0             -271.43308      214140.05      59.827286      59.827286      59.827286      0.84356184     304.67563     -27.527908      305.91766    
     22500   45000          403.93763      66.953195      17543.337      17334.173      9679.4493      7654.7238      3207.2358      3137.2335      9512.5556      0             -8202.301       0              0             -271.34425      214210.16      59.833814      59.833814      59.833814      0.84328578     170.68129     -53.197266      83.375561    
     23000   46000          398.50079     -155.55033      16915.339      17403.891      9549.1676      7854.7229      3310.811       3230.8539      9494.065       0             -8181.007       0              0             -269.89638      215359.3       59.940617      59.940617      59.940617      0.83878608     296.61462     -392.78077     -370.48485    
     23500   47000          397.40344     -332.0142       16081.501      17118.459      9522.8722      7595.587       3250.4815      3173.2743      9432.2222      0             -8260.3911      0              0             -271.41374      214155.31      59.828707      59.828707      59.828707      0.84350174    -245.93863     -401.74774     -348.35624    
     24000   48000          406.49713      457.40904      18915.417      17489.203      9740.7817      7748.4212      3269.1051      3192.0612      9533.5732      0             -8246.3183      0              0             -271.86712      213798.18      59.795431      59.795431      59.795431      0.84491073    -438.95888      807.82092      1003.3651    
     24500   49000          403.34004     -170.55174      16839.681      17368.925      9665.1293      7703.7957      3271.4186      3208.0535      9473.6696      0             -8249.346       0              0             -273.17214      212776.8       59.700059      59.700059      59.700059      0.84896651     126.22168     -366.24544     -271.63147    
     25000   50000          400.30065      69.507179      17506.085      17289.382      9592.2971      7697.0851      3253.311       3142.1594      9523.2203      0             -8221.6057      0              0             -271.8959       213775.55      59.793321      59.793321      59.793321      0.84500019     899.19589     -67.844334     -622.83001    
     25500   51000          399.93396     -108.88981      16934.698      17274.642      9583.5102      7691.1314      3179.7909      3162.9572      9553.342       0             -8204.9587      0              0             -271.52969      214063.86      59.82019       59.82019       59.82019       0.84386209     221.65464     -333.48114     -214.84292    
     26000   52000          402.18964     -239.30518      16647.276      17394.895      9637.5624      7757.3323      3239.7521      3175.6439      9545.5634      0             -8203.6271      0              0             -271.33651      214216.27      59.834383      59.834383      59.834383      0.84326172     67.850551     -660.52943     -125.23666    
     26500   53000          397.78136     -615.61869      15493.99       17442.16       9531.928       7910.2324      3259.0812      3225.1135      9526.3935      0             -8100.3558      0              0             -267.86837      216989.77      60.091506      60.091506      60.091506      0.83248339    -153.31403     -739.56607     -953.97597    
     27000   54000          391.87182     -243.76965      16516.525      17283.578      9390.3194      7893.2586      3260.1767      3232.7275      9533.2407      0             -8132.8863      0              0             -269.39571      215759.54      59.977727      59.977727      59.977727      0.83723008     216.90132     -296.95937     -651.2509     
     27500   55000          404.35786     -290.04302      16359.893      17271.947      9689.519       7582.4277      3196.2396      3085.4733      9458.2354      0             -8157.5207      0              0             -269.57429      215616.61      59.96448       59.96448       59.96448       0.83778508    -108.84519     -89.197222     -672.08666    
     28000   56000          401.10389      372.22863      18630.166      17464.836      9611.545       7853.2905      3228.6327      3264.9276      9535.3543      0             -8175.6241      0              0             -270.76785      214666.16      59.876241      59.876241      59.876241      0.84149444     401.23888      353.66605      361.78095    
     28500   57000          405.57274     -153.47443      16935.736      17417.383      9718.6309      7698.7518      3190.3961      3170.8932      9567.7287      0             -8230.2662      0              0             -270.11189      215187.47      59.924672      59.924672      59.924672      0.83945583     231.73284     -57.320015     -634.8361     
     29000   58000          397.32541     -785.92806      14835.8        17311.063      9521.0023      7790.0602      3276.8012      3171.6133      9499.075       0             -8157.4293      0              0             -269.15235      215954.63      59.995799      59.995799      59.995799      0.83647375    -324.27121     -1112.8452     -920.66772    
     29500   59000          400.63272     -522.99788      15637.117      17279.968      9600.2544      7679.7132      3180.0327      3164.9089      9519.4323      0             -8184.6607      0              0             -269.85999      215388.34      59.943311      59.943311      59.943311      0.83867298    -468.42224     -402.02579     -698.54561    
     30000   60000          402.86528      382.2284       18534.366      17328.113      9653.7527      7674.3599      3161.1083      3151.5839      9555.0261      0             -8193.3585      0              0             -268.60916      216391.33      60.036213      60.036213      60.036213      0.83478564     595.09273      68.930447      482.66203    
     30500   61000          403.16218      457.07824      18788.757      17351.298      9660.8672      7690.4303      3155.7128      3170.0657      9511.0867      0             -8146.4349      0              0             -269.54521      215639.87      59.966636      59.966636      59.966636      0.83769471     647.19473      525.4066       198.6334     
     31000   62000          403.543        213.0812       18298.678      17623.643      9669.9928      7953.65        3268.4062      3302.2536      9523.2719      0             -8140.2818      0              0             -267.58082      217222.95      60.113023      60.113023      60.113023      0.83158974     350.1699       330.23102     -41.157309    
     31500   63000          403.60003     -714.78143      15179.296      17421.658      9671.3593      7750.2988      3242.4794      3150.5154      9582.8676      0             -8225.5635      0              0             -270.21166      215108.02      59.917295      59.917295      59.917295      0.8397659     -911.63076     -452.85579     -779.85773    
     32000   64000          399.29838      623.31141      19375.669      17424.328      9568.2801      7856.0479      3239.7815      3191.2956      9609.0009      0             -8184.03        0              0             -270.77496      214660.52      59.875717      59.875717      59.875717      0.84151654     428.2841       864.37321      577.27691    
     32500   65000          395.6379      -15.085441      17129.986      17177.157      9480.5649      7696.5925      3191.9562      3161.3753      9577.2737      0             -8234.0127      0              0             -271.08905      214411.81      59.852583      59.852583      59.852583      0.84249267    -113.19237     -234.75725      302.6933     
     33000   66000          399.85512     -396.26888      16094.652      17339.107      9581.621       7757.4856      3209.3206      3217.0676      9519.9329      0             -8188.8355      0              0             -269.92769      215334.31      59.938299      59.938299      59.938299      0.83888338    -485.93016     -479.87306     -223.00342    
     33500   67000          402.51904     -88.888385      17337.119      17619.376      9645.4558      7973.9203      3349.0289      3116.2922      9632.091       0             -8123.4918      0              0             -266.95408      217732.93      60.160029      60.160029      60.160029      0.82964198    -597.31066      462.58701     -131.9415     
     34000   68000          402.35988      80.063614      17657.79       17406.846      9641.642       7765.2041      3208.89        3148.1257      9617.8546      0             -8209.6663      0              0             -270.4552       214914.32      59.899305      59.899305      59.899305      0.84052276     416.61899     -312.87831      136.45016    
     34500   69000          402.75674     -133.23116      17155.29       17572.609      9651.1519      7921.4574      3326.9088      3217.6736      9591.1243      0             -8214.2493      0              0             -270.62891      214776.37      59.886487      59.886487      59.886487      0.84106262     156.72864     -79.247996     -477.17412    
     35000   70000          399.68857      65.107029      17678.376      17472.912      9577.6302      7895.2823      3215.2413      3241.154       9587.1941      0             -8148.3071      0              0             -268.61499      216386.64      60.035779      60.035779      60.035779      0.83480375    -376.39078     -45.884899      617.59676    
     35500   71000          401.4601       117.1988       17804.441      17437.627      9620.0808      7817.5463      3215.5204      3173.5092      9617.752       0             -8189.2353      0              0             -270.84057      214608.53      59.870882      59.870882      59.870882      0.84172042     269.24729     -74.669318      157.01845    
     36000   72000          397.2787       447.17285      18637.353      17235.069      9519.8831      7715.1856      3151.2488      3167.8421      9593.9801      0             -8197.8854      0              0             -270.3186       215022.92      59.909393      59.909393      59.909393      0.84009826     430.59853      794.48433      116.43571    
     36500   73000          400.71893      415.56422      18572.99       17276.98       9602.3203      7674.66        3146.9516      3202.5352      9570.9309      0             -8245.7577      0              0             -271.81065      213842.6       59.799572      59.799572      59.799572      0.84473524     200.57942      480.38682      565.72643    
     37000   74000          402.12221     -0.90331094     17245.487      17248.298      9635.9468      7612.3517      3236.0217      3124.99        9549.3897      0             -8298.0497      0              0             -272.37463      213399.81      59.758269      59.758269      59.758269      0.84648799     342.52562     -158.44375     -186.7918     
     37500   75000          401.51697     -464.70958      16028.611      17491.32       9621.4434      7869.877       3289.8382      3161.0569      9558.6337      0             -8139.6519      0              0             -269.31484      215824.33      59.98373       59.98373       59.98373       0.83697875    -340.8132      -570.20972     -483.10583    
     38000   76000          393.20382      122.83185      17661.373      17273.704      9422.2378      7851.4661      3247.6368      3192.1945      9559.3399      0             -8147.7051      0              0             -268.58768      216408.64      60.037813      60.037813      60.037813      0.83471887    -190.40725      21.586645      537.31617    
     38500   77000          396.30594     -85.336495      17031.257      17297.479      9496.5731      7800.906       3274.2328      3222.4779      9560.5079      0             -8256.3126      0              0             -271.72373      213911         59.805947      59.805947      59.805947      0.84446512    -74.450405      278.60603     -460.16511    
     39000   78000          401.01081     -26.472581      17319.789      17403.004      9609.3146      7793.6895      3306.5404      3229.3051      9444.4181      0             -8186.574       0              0             -269.66769      215541.93      59.957556      59.957556      59.957556      0.83807536    -344.15977      123.5699       141.17213    
     39500   79000          400.87466      544.58129      19240.007      17523.793      9606.052       7917.741       3328.6418      3161.0152      9576.4418      0             -8148.3578      0              0             -268.98486      216089.09      60.008248      60.008248      60.008248      0.83595324     595.12691      979.06295      59.554007    
     40000   80000          398.93478     -205.84626      16523.836      17167.814      9559.5672      7608.2472      3256.2802      3103.1841      9457.3755      0             -8208.5926      0              0             -270.96209      214512.28      59.86193       59.86193       59.86193       0.84209809    -369.43363     -380.31468      132.20951    
     40500   81000          399.73805      285.05795      18249.1        17361.158      9578.8158      7782.3424      3292.1437      3199.374       9542.8787      0             -8252.054       0              0             -272.13559      213587.26      59.775761      59.775761      59.775761      0.84574511     254.54523      306.96283      293.6658     
     41000   82000          404.12545      418.04028      18769.694      17455.463      9683.9499      7771.5131      3268.9871      3120.2519      9551.7618      0             -8169.4878      0              0             -269.6391       215564.79      59.959675      59.959675      59.959675      0.83798649     474.34517      713.53902      66.236636    
     41500   83000          396.97019     -329.25982      16271.069      17301.218      9512.4902      7788.7278      3263.0628      3229.5155      9511.8002      0             -8215.6508      0              0             -270.94141      214528.65      59.863453      59.863453      59.863453      0.84203382    -523.80328     -430.56982     -33.406366    
     42000   84000          398.25691     -25.264037      17228.786      17307.65       9543.3236      7764.3267      3279.5965      3181.2658      9527.8601      0             -8224.3957      0              0             -271.5558       214043.28      59.818272      59.818272      59.818272      0.84394323     24.127857      335.97951     -435.89948    
     42500   85000          394.74008     -305.78259      16240.454      17198.887      9459.0506      7739.8363      3260.3152      3117.1972      9555.081       0             -8192.7571      0              0             -270.45052      214918.03      59.89965       59.89965       59.89965       0.84050824    -347.60765     -684.32641      114.58628    
     43000   86000          397.81898     -427.03048      15978.016      17315.542      9532.8295      7782.713       3260.779       3226.1402      9517.5985      0             -8221.8047      0              0             -270.64063      214767.07      59.885622      59.885622      59.885622      0.84109906    -487.36225     -598.82087     -194.90831    
     43500   87000          405.05776      77.555377      17704.868      17462.93       9706.2906      7756.639       3226.6972      3188.7816      9597.3801      0             -8256.2199      0              0             -271.73369      213903.16      59.805216      59.805216      59.805216      0.84449607    -11.325586     -176.53126      420.52298    
     44000   88000          401.68745     -19.084196      17321.866      17381.747      9625.5288      7756.2179      3265.7854      3187.6244      9491.0447      0             -8188.2366      0              0             -270.16165      215147.84      59.920992      59.920992      59.920992      0.83961047    -599.6997       200.12763      342.31948    
     44500   89000          392.64091      107.33014      17343.252      17007.086      9408.7488      7598.3367      3171.4329      3180.4663      9440.3647      0             -8193.9271      0              0             -270.64753      214761.59      59.885113      59.885113      59.885113      0.84112051     104.3088       578.62901     -360.94738    
     45000   90000          397.88419     -230.04571      16678.602      17401.8        9534.3922      7867.4075      3297.753       3156.0723      9580.4487      0             -8166.8666      0              0             -269.6459       215559.35      59.959171      59.959171      59.959171      0.83800764    -202.00514     -328.52869     -159.60328    
     45500   91000          405.12293     -644.99306      15468.633      17486.883      9707.8523      7779.0309      3249.9632      3229.3362      9506.3088      0             -8206.5774      0              0             -270.90478      214557.65      59.866151      59.866151      59.866151      0.84191999    -261.25716     -292.47079     -1381.2512    
     46000   92000          401.02947      102.16679      17705.11       17383.519      9609.7616      7773.7579      3286.5851      3187.6087      9450.7327      0             -8151.1686      0              0             -269.30397      215833.04      59.984537      59.984537      59.984537      0.83694498    -168.70594      697.69344     -222.48711    
     46500   93000          402.10359     -279.7778       16627.664      17507.384      9635.5006      7871.8831      3313.2319      3233.3192      9509.393       0             -8184.061       0              0             -269.59116      215603.12      59.963229      59.963229      59.963229      0.8378375      73.362535     -676.78864     -235.90729    
     47000   94000          400.40475     -647.6392       15339.268      17380.575      9594.7917      7785.7833      3161.3008      3259.6705      9538.8644      0             -8174.0523      0              0             -268.94376      216122.12      60.011305      60.011305      60.011305      0.8358255     -417.54684     -902.2654      -623.10535    
     47500   95000          398.13671     -132.27755      17100.491      17518.09       9540.4434      7977.6468      3260.0698      3273.8387      9582.8225      0             -8139.0842      0              0             -268.51182      216469.78      60.043467      60.043467      60.043467      0.83448311     61.17654      -49.61473      -408.39445    
     48000   96000          395.82738      455.62286      18701.962      17276.508      9485.1055      7791.4025      3245.9056      3186.0313      9591.6881      0             -8232.2225      0              0             -270.94987      214521.95      59.86283       59.86283       59.86283       0.84206011     763.676       -181.05203      784.24462    
     48500   97000          399.12884      9.6710099      17502.58       17472.018      9564.2175      7907.801       3217.1415      3264.0326      9561.5966      0             -8134.9697      0              0             -268.24382      216686.05      60.063456      60.063456      60.063456      0.83365024     139.17317     -251.49184      141.3317     
     49000   98000          412.04239      298.95239      18534.742      17605.243      9873.6615      7731.5811      3329.6324      3169.6845      9445.2123      0             -8212.9481      0              0             -272.6399       213192.18      59.738882      59.738882      59.738882      0.84731239    -353.21693      794.04836      456.02574    
     49500   99000          404.51082      257.24902      18156.779      17355.501      9693.1844      7662.3164      3287.5907      3121.6671      9498.1226      0             -8245.0639      0              0             -272.14921      213576.57      59.774764      59.774764      59.774764      0.84578742     114.00753      512.80815      144.93139    
     50000   100000         398.38251     -45.161908      17178.982      17320.806      9546.3332      7774.4728      3206.3909      3204.8928      9474.7869      0             -8111.5977      0              0             -269.93543      215328.14      59.937726      59.937726      59.937726      0.83890744    -641.07523      267.99169      237.59781    
     50500   101000         407.51662     -466.72239      15975.56       17433.176      9765.2115      7667.9646      3197.7292      3181.6359      9556.774       0             -8268.1746      0              0             -271.42633      214145.38      59.827782      59.827782      59.827782      0.84354085    -535.29524     -411.95432     -452.91762    
     51000   102000         395.58032      287.47661      18087.557      17190.055      9479.1851      7710.8701      3184.8267      3220.4712      9536.7923      0             -8231.2202      0              0             -271.52117      214070.58      59.820815      59.820815      59.820815      0.84383561     151.42281      112.97602      598.03101    
     51500   103000         400.05343     -198.53824      16718.586      17340.89       9586.373       7754.5171      3219.3603      3250.5372      9475.8733      0             -8191.2536      0              0             -270.4443       214922.98      59.90011       59.90011       59.90011       0.84048888    -48.9637       -773.3862       226.73517    
     52000   104000         402.17307      57.475868      17776.014      17596.018      9637.1656      7958.8519      3310.4006      3190.7035      9555.182       0             -8097.4341      0              0             -270.68191      214734.31      59.882577      59.882577      59.882577      0.84122736    -53.312749      433.44164     -207.70129    
     52500   105000         399.03589     -200.0694       16665.628      17293.946      9561.9902      7731.9563      3240.3799      3188.2017      9500.2433      0             -8196.8686      0              0             -269.92163      215339.15      59.938748      59.938748      59.938748      0.83886453    -521.73777     -265.64701      187.17659    
     53000   106000         401.87984     -130.5494       16957.93       17367.465      9630.1389      7737.3256      3312.2106      3117.7417      9491.5218      0             -8184.1484      0              0             -270.22237      215099.49      59.916504      59.916504      59.916504      0.83979918    -152.61762     -433.56789      194.53732    
     53500   107000         395.00528     -751.09478      14878.365      17229.781      9465.4056      7764.3757      3307.0764      3206.373       9494.1987      0             -8243.2724      0              0             -270.7708       214663.82      59.876024      59.876024      59.876024      0.84150358    -666.35652     -859.3681      -727.55972    
     54000   108000         403.42325      278.45851      18386.812      17508.767      9667.1233      7841.6432      3243.5911      3292.5474      9481.7377      0             -8176.2331      0              0             -268.83145      216212.41      60.019661      60.019661      60.019661      0.83547647     63.228965     -38.654642      810.80122    
     54500   109000         395.425        375.55253      18503.761      17318.128      9475.4633      7842.6652      3247.8788      3200.8043      9563.7214      0             -8169.7393      0              0             -268.50785      216472.98      60.043763      60.043763      60.043763      0.83447077     841.83904      726.87513     -442.05658    
     55000   110000         408.28763      59.956372      17972.764      17784.643      9783.6871      8000.9558      3289.443       3262.1287      9605.632       0             -8156.2479      0              0             -270.16867      215142.25      59.920473      59.920473      59.920473      0.83963228     65.322446     -252.15537      366.70204    
     55500   111000         395.6945      -462.25539      15830.132      17274.071      9481.9212      7792.1496      3244.9295      3249.2716      9543.8861      0             -8245.9376      0              0             -271.37489      214185.97      59.831562      59.831562      59.831562      0.84338099    -258.07121     -839.07911     -289.61584    
     56000   112000         400.238        343.85048      18313.603      17243.03       9590.7959      7652.2338      3260.0584      3201.8482      9461.1493      0             -8270.822       0              0             -272.26381      213486.67      59.766376      59.766376      59.766376      0.8461436      257.83859      96.685881      677.02697    
     56500   113000         396.06467     -210.71319      16511.302      17171.73       9490.7917      7680.938       3313.114       3129.8769      9433.2498      0             -8195.3027      0              0             -270.45996      214910.53      59.898953      59.898953      59.898953      0.84053757    -446.64695     -281.86366      96.371047    
     57000   114000         399.98348      311.62229      18553.733      17568.232      9584.697       7983.535       3326.7699      3193.2523      9573.3847      0             -8109.8717      0              0             -268.04524      216846.58      60.078285      60.078285      60.078285      0.83303308     274.14556      225.25486      435.46645    
     57500   115000         401.12538      198.32777      18183.464      17559.451      9612.0601      7947.3909      3305.2963      3216.1131      9561.1275      0             -8135.146       0              0             -269.418        215741.69      59.976073      59.976073      59.976073      0.83729935     55.02917       543.02649     -3.072356     
     58000   116000         401.61768      166.27585      17975.008      17449.272      9623.8569      7825.415       3157.531       3243.7136      9531.7322      0             -8107.5617      0              0             -268.10055      216801.85      60.074153      60.074153      60.074153      0.83320498    -13.711943      409.64449      102.895      
     58500   117000         397.30578      358.52078      18498.661      17373.621      9520.5319      7853.0894      3305.5124      3115.1714      9596.819       0             -8164.4134      0              0             -270.13629      215168.03      59.922867      59.922867      59.922867      0.83953168     590.81841     -53.091739      537.83566    
     59000   118000         393.42258      217.07918      18001.868      17318.884      9427.4798      7891.404       3309.1391      3154.8246      9518.3614      0             -8090.9212      0              0             -269.42886      215732.99      59.975267      59.975267      59.975267      0.83733312    -190.0654       20.976184      820.32677    
     59500   119000         402.1354       236.18886      18134.802      17389.907      9636.2628      7753.6441      3186.6694      3164.9203      9538.4225      0             -8136.3681      0              0             -268.78251      216251.78      60.023304      60.023304      60.023304      0.83532436     235.42293     -134.06817      607.21181    
     60000   120000         402.31314      317.0419       18379.021      17385.392      9640.522       7744.8701      3262.9999      3181.1658      9468.0826      0             -8167.3781      0              0             -270.47619      214897.64      59.897756      59.897756      59.897756      0.84058799     713.45762      72.639627      165.02846    
     60500   121000         405.37093      182.53829      17882.124      17311.697      9713.7949      7597.9025      3160.8484      3194.5472      9438.6769      0             -8196.17        0              0             -271.26315      214274.2       59.839776      59.839776      59.839776      0.84303373     143.92012     -534.09858      937.79334    
     61000   122000         402.88209     -40.661019      17476.191      17605.208      9654.1557      7951.0527      3290.8376      3205.7535      9531.9505      0             -8077.4888      0              0             -267.15623      217568.18      60.144852      60.144852      60.144852      0.83027022    -43.200179     -409.59364      330.81076    
     61500   123000         399.96262      45.268057      17410.018      17267.605      9584.197       7683.4079      3163.2276      3290.8161      9375.9338      0             -8146.5696      0              0             -269.44953      215716.44      59.973733      59.973733      59.973733      0.83739735     5.3888161     -331.15881      461.57417    
     62000   124000         396.95143      118.17544      17771.118      17398.242      9512.0408      7886.2007      3323.8952      3182.9213      9521.0561      0             -8141.672       0              0             -268.65768      216352.26      60.032599      60.032599      60.032599      0.83493642     676.04447      536.9409      -858.45904    
     62500   125000         401.62417      91.807115      17640.744      17352.078      9624.0124      7728.0654      3233.6587      3138.4886      9512.4122      0             -8156.4941      0              0             -269.59835      215597.37      59.962696      59.962696      59.962696      0.83785984    -78.745359      180.17231      173.99439    
     63000   126000         404.68214     -214.28813      16755.699      17429.741      9697.2896      7732.4516      3225.1432      3177.4134      9492.7654      0             -8162.8705      0              0             -269.4931       215681.57      59.970501      59.970501      59.970501      0.83753274    -205.89056     -444.84357      7.8697429    
     63500   127000         402.85283      276.28766      18401.314      17529.865      9653.4545      7876.4104      3289.5948      3156.756       9560.4906      0             -8130.431       0              0             -268.75475      216274.11      60.02537       60.02537       60.02537       0.8352381     -5.3806475      107.28307      726.96056    
     64000   128000         396.327        911.82424      20092.824      17226.138      9497.0777      7729.0604      3248.4686      3210.2173      9430.0634      0             -8159.6889      0              0             -269.62958      215572.4       59.960381      59.960381      59.960381      0.8379569      720.34938      1459.4345      555.68882    
     64500   129000         396.91364     -670.5307       15189.71       17291.971      9511.1352      7780.8358      3252.3675      3211.7381      9492.6331      0             -8175.9029      0              0             -270.37632      214977.01      59.905129      59.905129      59.905129      0.84027764    -599.28406     -593.91935     -818.38869    
     65000   130000         399.75683     -155.24821      17041.39       17528.207      9579.2659      7948.9414      3285.191       3160.8439      9660.8899      0             -8157.9834      0              0             -270.33207      215012.21      59.908398      59.908398      59.908398      0.84014011    -188.52619     -32.710858     -244.50757    
     65500   131000         401.34722     -222.12781      16864.827      17566.847      9617.3758      7949.4711      3379.2109      3223.7265      9500.8946      0             -8154.3609      0              0             -268.21925      216705.9       60.06529       60.06529       60.06529       0.83357387     161.26794     -391.90839     -435.74297    
     66000   132000         402.83561     -85.248656      17133.453      17401.207      9653.0417      7748.1649      3306.4579      3136.4013      9494.0409      0             -8188.7352      0              0             -269.89161      215363.11      59.94097       59.94097       59.94097       0.83877124    -40.351869     -376.86391      161.46981    
     66500   133000         405.38148     -119.99947      17156.995      17535.261      9714.0479      7821.2128      3278.5378      3200.3773      9463.74        0             -8121.4424      0              0             -268.91727      216143.41      60.013276      60.013276      60.013276      0.83574317    -639.57522     -108.93928      388.5161     
     67000   134000         402.61494     -5.0814086      17399.756      17415.651      9647.7538      7767.8972      3249.1193      3247.4302      9432.6476      0             -8161.2999      0              0             -270.98689      214492.64      59.860104      59.860104      59.860104      0.84217517     82.174722     -299.08871      201.66976    
     67500   135000         392.83069     -56.005789      17036.333      17212.287      9413.2964      7798.9903      3366.5119      3178.2146      9446.4675      0             -8192.2037      0              0             -269.81773      215422.07      59.94644       59.94644       59.94644       0.83854165     384.62387      170.13474     -722.77597    
     68000   136000         401.42639      379.13757      18578.896      17389.822      9619.273       7770.5489      3296.5374      3141.2561      9517.3215      0             -8184.5661      0              0             -270.28667      215048.32      59.911752      59.911752      59.911752      0.83999901     214.034        168.07729      755.30141    
     68500   137000         404.23867      291.14779      18533.28       17618.401      9686.663       7931.7383      3304.236       3276.2374      9483.204       0             -8131.939       0              0             -269.76553      215463.76      59.950307      59.950307      59.950307      0.8383794      478.9851       361.34627      33.112007    
     69000   138000         395.52079      199.23941      17698.964      17076.426      9477.7587      7598.6675      3268.7019      3144.7582      9388.3672      0             -8203.1598      0              0             -271.29757      214247.02      59.837246      59.837246      59.837246      0.84314068     638.80496      19.507506     -60.594227    
     69500   139000         401.77472     -106.95863      17090.469      17422.985      9627.62        7795.3652      3245.879       3216.1821      9558.3562      0             -8225.0521      0              0             -272.67153      213167.45      59.736572      59.736572      59.736572      0.84741071    -169.73652      48.551288     -199.69065    
     70000   140000         402.04937      345.42935      18461.124      17381.688      9634.2013      7747.4865      3281.6445      3200.4534      9501.3353      0             -8235.9467      0              0             -271.26822      214270.19      59.839403      59.839403      59.839403      0.8430495      775.75105      39.606846      220.93015    
     70500   141000         400.09521     -106.65348      16952.2        17285.644      9587.3742      7698.2696      3247.6564      3125.1432      9562.8981      0             -8237.4281      0              0             -271.1369       214373.97      59.849062      59.849062      59.849062      0.84264138    -280.72222      142.7143      -181.95251    
     71000   142000         401.26352      163.75489      17888.319      17377.135      9615.3702      7761.7652      3337.3657      3149.5589      9524.8448      0             -8250.0043      0              0             -271.55254      214045.85      59.818512      59.818512      59.818512      0.8439331     -325.2805       818.92176     -2.3765872    
     71500   143000         401.41494     -297.41704      16528.477      17460.179      9618.9987      7841.1802      3285.8613      3188.5785      9595.2439      0             -8228.5035      0              0             -270.59849      214800.51      59.88873       59.88873       59.88873       0.8409681     -509.30924     -79.498867     -303.443      
     72000   144000         399.26567     -786.81412      15060.091      17543.947      9567.4963      7976.4512      3356.1953      3185.0233      9556.3062      0             -8121.0735      0              0             -268.52347      216460.39      60.042598      60.042598      60.042598      0.83451932    -1543.3904      112.08864     -929.14065    
     72500   145000         401.32143     -162.31655      16844.335      17354.143      9616.7578      7737.3851      3232.8798      3183.2837      9521.8488      0             -8200.6273      0              0             -269.89367      215361.46      59.940817      59.940817      59.940817      0.83877766    -43.630112     -190.73595     -252.58358    
     73000   146000         402.82341     -71.285626      17215.611      17439.895      9652.7493      7787.1453      3207.995       3224.2886      9515.5709      0             -8160.7092      0              0             -269.42691      215734.56      59.975412      59.975412      59.975412      0.83732704    -131.2524      -34.239148     -48.365328    
     73500   147000         401.66434     -186.9827       16933.773      17519.879      9624.9749      7894.9039      3280.84        3221.2083      9558.9753      0             -8166.1197      0              0             -270.43437      214930.87      59.900843      59.900843      59.900843      0.84045803     409.19102     -699.70871     -270.4304     
     74000   148000         393.92975     -40.41578       17239.517      17366.536      9439.633       7926.9033      3319.9433      3229.6555      9567.712       0             -8190.4075      0              0             -269.72213      215498.43      59.953522      59.953522      59.953522      0.83824453    -249.03805      31.623656      96.167054    
     74500   149000         397.93808     -230.68444      16753.969      17480.787      9535.6836      7945.103       3253.4555      3267.7144      9575.0009      0             -8151.0677      0              0             -269.04776      216038.57      60.003571      60.003571      60.003571      0.83614873     29.212831      30.773823     -752.03999    
     75000   150000         405.84463     -506.81431      15923.808      17510.607      9725.1462      7785.4609      3237.0342      3226.737       9549.5099      0             -8227.8202      0              0             -270.74696      214682.72      59.877781      59.877781      59.877781      0.84142952    -133.96161     -1114.4205     -272.06082    
     75500   151000         401.74098      236.2256       18087.631      17347.985      9626.8114      7721.1735      3182.5844      3224.529       9527.3036      0             -8213.2435      0              0             -270.73207      214694.53      59.878879      59.878879      59.878879      0.84138324     934.70185     -683.40422      457.37917    
     76000   152000         396.75481      313.64939      18328.872      17343.839      9507.3293      7836.5094      3220.8765      3265.751       9516.1292      0             -8166.2473      0              0             -269.91697      215342.87      59.939093      59.939093      59.939093      0.83885005     181.35488      462.2721       297.32119    
     76500   153000         400.31544     -258.42142      16506.353      17326.174      9592.6515      7733.5222      3271.6133      3106.8407      9464.5817      0             -8109.5135      0              0             -267.20612      217527.56      60.141108      60.141108      60.141108      0.83042526     226.04106     -833.82656     -167.47876    
     77000   154000         404.8855       66.044136      17775.987      17568.156      9702.1627      7865.9931      3331.8617      3174.4738      9551.686       0             -8192.0284      0              0             -269.37692      215774.59      59.979122      59.979122      59.979122      0.83717168    -445.09255      424.67272      218.55224    
     77500   155000         397.01649      101.00452      17844.033      17523.316      9513.5998      8009.7158      3226.1869      3222.9482      9621.157       0             -8060.5763      0              0             -266.965        217724.03      60.15921       60.15921       60.15921       0.82967589    -384.6966       244.61652      443.09366    
     78000   156000         395.64736      464.078        18755.891      17293.209      9480.7916      7812.4176      3179.968       3238.1732      9516.186       0             -8121.9097      0              0             -268.95386      216114         60.010553      60.010553      60.010553      0.83585691     658.60157      618.61709      115.01536    
     78500   157000         401.56023     -56.304779      17357.728      17535.63       9622.4801      7913.1497      3192.8483      3257.5264      9579.1376      0             -8116.3625      0              0             -268.28862      216649.87      60.060113      60.060113      60.060113      0.83378945     529.87573     -44.546191     -654.24388    
     79000   158000         400.59621     -403.43466      16079.917      17356.654      9599.3796      7757.2747      3127.2966      3172.4022      9562.6051      0             -8105.0292      0              0             -267.86024      216996.35      60.092113      60.092113      60.092113      0.83245813    -871.44872     -41.611201     -297.24405    
     79500   159000         403.36163      761.67979      19845.274      17447.445      9665.6465      7781.7986      3140.7623      3238.4299      9571.9688      0             -8169.3624      0              0             -269.2718       215858.82      59.986925      59.986925      59.986925      0.836845       833.22912      1001.4843      450.32596    
     80000   160000         402.02088      310.06629      18565.251      17586.454      9633.5186      7952.9356      3327.8375      3209.4791      9520.9259      0             -8105.3069      0              0             -268.53364      216452.19      60.04184       60.04184       60.04184       0.83455093     770.77815     -314.44445      473.86516    
     80500   161000         398.1772      -243.969        16782.765      17552.494      9541.4136      8011.0804      3346.7771      3199.7286      9569.7778      0             -8105.2031      0              0             -268.67883      216335.23      60.031023      60.031023      60.031023      0.83500214    -127.66921      238.58889     -842.82669    
     81000   162000         398.81504     -40.368231      17272.989      17400.504      9556.6979      7843.8057      3238.7919      3212.8913      9539.5015      0             -8147.379       0              0             -268.35978      216592.42      60.054804      60.054804      60.054804      0.83401062    -148.58181     -175.50666      202.98377    
     81500   163000         395.91317     -230.00629      16600.065      17326.833      9487.1611      7839.6714      3270.2699      3138.3571      9587.8676      0             -8156.8232      0              0             -268.27525      216660.67      60.061111      60.061111      60.061111      0.83374791    -290.38277     -234.87724     -164.75887    
     82000   164000         401.3219       205.88532      18158.265      17513.576      9616.7691      7896.8071      3326.2361      3169.3977      9576.9579      0             -8175.7846      0              0             -270.71474      214708.28      59.880157      59.880157      59.880157      0.84132937     254.51299     -141.48108      504.62404    
     82500   165000         397.61527      102.19385      17729.202      17405.646      9527.9481      7877.6979      3284.3057      3169.8177      9489.6744      0             -8066.1         0              0             -267.73889      217094.7       60.101191      60.101191      60.101191      0.83208101     43.538846      118.85858      144.18411    
     83000   166000         403.495       -231.3369       16835.221      17566.715      9668.8424      7897.873       3219.9319      3165.0677      9591.5196      0             -8078.6462      0              0             -268.08391      216815.3       60.075396      60.075396      60.075396      0.83315327     121.11659     -351.05004     -464.07724    
     83500   167000         401.25854      610.14741      19420.946      17485.356      9615.2508      7870.105       3264.9653      3189.8795      9502.799       0             -8087.5389      0              0             -267.2132       217521.79      60.140577      60.140577      60.140577      0.83044727     961.57062      298.30778      570.56384    
     84000   168000         402.83766     -366.85949      16256.177      17416.648      9653.0908      7763.5576      3195.3055      3132.9952      9557.8711      0             -8122.6142      0              0             -267.97977      216899.56      60.083177      60.083177      60.083177      0.83282961    -466.1726      -611.08489     -23.320989    
     84500   169000         406.15117     -15.837567      17515.372      17565.078      9732.4916      7832.5869      3351.1544      3116.6121      9521.9229      0             -8157.1025      0              0             -270.09143      215203.77      59.926184      59.926184      59.926184      0.83939226     591.76453     -583.61544     -55.661788    
     85000   170000         397.13693      95.819895      17620.104      17318.726      9516.4858      7802.2404      3272.8624      3145.4173      9569.6132      0             -8185.6525      0              0             -269.5138       215665         59.968966      59.968966      59.968966      0.83759709     396.28387      363.85965     -472.68384    
     85500   171000         400.71505     -548.54289      15483.423      17206.528      9602.2272      7604.3012      3169.1756      3066.2963      9493.405       0             -8124.5757      0              0             -269.85799      215389.93      59.943459      59.943459      59.943459      0.83866677    -878.95929     -603.64222     -163.02715    
     86000   172000         401.32579     -519.50914      15885.186      17525.299      9616.8624      7908.4362      3218.8202      3263.0341      9499.5429      0             -8072.9611      0              0             -268.5073       216473.42      60.043804      60.043804      60.043804      0.83446908    -388.44491     -548.53789     -621.54463    
     86500   173000         403.98579     -7.9577594      17521.325      17546.299      9680.6031      7865.6961      3286.9907      3195.2334      9539.5606      0             -8156.0886      0              0             -270.10432      215193.5       59.925231      59.925231      59.925231      0.83943232     315.49385     -527.61108      188.24395    
     87000   174000         401.58206     -79.439963      17338.308      17588.737      9623.0032      7965.7343      3292.0192      3198.4376      9597.7766      0             -8122.4992      0              0             -268.90013      216157.18      60.014551      60.014551      60.014551      0.83568991    -94.884597      208.34768     -351.78297    
     87500   175000         394.79227      78.700069      17618.414      17371.989      9460.3014      7911.6876      3223.4529      3229.1186      9630.7888      0             -8171.6726      0              0             -270.72442      214700.6       59.879443      59.879443      59.879443      0.84135946     200.09247     -40.130585      76.138326    
     88000   176000         402.57027     -511.31131      15912.593      17526.896      9646.6834      7880.2127      3247.3331      3244.6297      9528.0068      0             -8139.7569      0              0             -268.49536      216483.05      60.044693      60.044693      60.044693      0.83443198    -845.02387     -555.64215     -133.26789    
     88500   177000         401.67454      544.02841      19328.43       17598.686      9625.2194      7973.4665      3231.2535      3134.3651      9628.4491      0             -8020.6012      0              0             -266.60985      218014.06      60.18591       60.18591       60.18591       0.82857216     883.68936      324.44351      423.95238    
     89000   178000         405.797       -208.6745       16885.798      17547.76       9724.0047      7823.7557      3191.8276      3112.9065      9591.6352      0             -8072.6136      0              0             -267.22232      217514.37      60.139893      60.139893      60.139893      0.83047561     139.45677     -750.17534     -15.304942    
     89500   179000         400.59382     -21.931199      17538.091      17607.249      9599.3224      8007.9269      3376.6621      3167.37        9572.9914      0             -8109.0966      0              0             -268.81735      216223.75      60.020711      60.020711      60.020711      0.83543264     190.23275     -150.59314     -105.43321    
     90000   180000         398.24623      591.29014      19317.555      17449.185      9543.0676      7906.1176      3356.9675      3163.6808      9511.4345      0             -8125.9653      0              0             -268.27141      216663.77      60.061398      60.061398      60.061398      0.83373596    -11.118224      865.61311      919.37554    
     90500   181000         401.66345      191.84259      17926.384      17325.809      9624.9536      7700.8556      3232.6393      3166.4165      9493.4065      0             -8191.6066      0              0             -270.77878      214657.5       59.875436      59.875436      59.875436      0.84152838     68.439089      257.86951      249.21917    
     91000   182000         403.31451      85.692464      17847.133      17575.611      9664.5175      7911.0934      3244.0524      3228.1328      9550.4503      0             -8111.542       0              0             -267.53131      217263.15      60.116731      60.116731      60.116731      0.83143587    -135.09035      354.2441       37.923645    
     91500   183000         399.59178      92.254259      17754.465      17464.875      9575.3108      7889.5644      3261.9808      3181.8972      9591.8385      0             -8146.1522      0              0             -270.04766      215238.66      59.929422      59.929422      59.929422      0.8392562     -411.13408      205.29397      482.60289    
     92000   184000         394.7145       149.45462      17768.936      17295.831      9458.4377      7837.3937      3264.1079      3210.433       9502.8202      0             -8139.9675      0              0             -267.78664      217055.99      60.097618      60.097618      60.097618      0.8322294      204.68547     -291.36105      535.03945    
     92500   185000         402.03572     -681.05678      15358.311      17519.406      9633.8741      7885.5322      3248.6883      3142.9104      9577.6373      0             -8083.7038      0              0             -267.14431      217577.89      60.145746      60.145746      60.145746      0.83023317    -493.34086     -764.81852     -785.01098    
     93000   186000         397.08305      280.03746      18466.317      17577.972      9515.1946      8062.7775      3354.8548      3197.3424      9571.1673      0             -8060.587       0              0             -267.22144      217515.09      60.139959      60.139959      60.139959      0.83047286     25.883708      833.84362     -19.61495     
     93500   187000         393.52463     -383.88631      16026.657      17227.361      9429.9253      7797.4357      3302.6645      3127.4512      9533.7754      0             -8166.4554      0              0             -271.02128      214465.42      59.857572      59.857572      59.857572      0.84228205    -289.75901     -525.52589     -336.37404    
     94000   188000         395.96152      282.45718      18296.876      17405.563      9488.3197      7917.2437      3278.1255      3239.1312      9522.0342      0             -8122.0472      0              0             -268.63298      216372.15      60.034438      60.034438      60.034438      0.83485967     287.23051     -19.810176      579.9512     
     94500   189000         403.22007      90.536252      17774.437      17491.344      9662.2545      7829.0894      3275.6513      3176.0024      9578.9665      0             -8201.5309      0              0             -271.10056      214402.71      59.851737      59.851737      59.851737      0.84252843     76.511776      36.319088      158.77789    
     95000   190000         403.83981     -123.71773      17184.896      17574.485      9677.1051      7897.3801      3338.5176      3179.4654      9550.7295      0             -8171.3324      0              0             -269.19136      215923.33      59.9929        59.9929        59.9929        0.83659501     19.45794      -310.03696     -80.574179    
     95500   191000         402.19347     -583.24676      15657.136      17492.149      9637.6543      7854.4945      3261.503       3192.5957      9534.1167      0             -8133.7209      0              0             -269.43232      215730.23      59.97501       59.97501       59.97501       0.83734385    -414.1546      -565.88526     -769.70041    
     96000   192000         401.28965      363.84533      18550.792      17397.504      9615.9963      7781.508       3256.9083      3117.5686      9485.9507      0             -8078.9196      0              0             -267.43344      217342.66      60.124063      60.124063      60.124063      0.83113173    -285.51938      635.91126      741.1441     
     96500   193000         407.47438      37.742983      17742.706      17622.946      9764.1995      7858.7461      3227.6957      3182.0595      9537.7153      0             -8088.7244      0              0             -267.15232      217571.37      60.145146      60.145146      60.145146      0.83025804     357.51297     -512.02254      267.73852    
     97000   194000         404.28771      296.94467      18445.444      17512.017      9687.8379      7824.1795      3293.6989      3165.1005      9518.0282      0             -8152.648       0              0             -269.66971      215540.32      59.957407      59.957407      59.957407      0.83808161     908.29289     -437.60777      420.1489     
     97500   195000         402.30674      36.741926      17725.835      17609.951      9640.3686      7969.5825      3364.5906      3213.3062      9557.6481      0             -8165.9623      0              0             -268.76672      216264.48      60.024479      60.024479      60.024479      0.83527531    -244.16596     -108.92827      463.32001    
     98000   196000         404.11742     -67.45099       17089.195      17300.631      9683.7574      7616.8739      3208.3785      3096.1656      9545.5309      0             -8233.2012      0              0             -270.42396      214939.14      59.901611      59.901611      59.901611      0.84042569     96.097794     -358.68098      60.230218    
     98500   197000         409.32248     -115.56955      17119.416      17479.866      9808.4849      7671.3809      3207.6268      3115.7136      9534.4105      0             -8186.3701      0              0             -271.79084      213858.18      59.801024      59.801024      59.801024      0.84467369    -361.22286      237.09174     -222.57753    
     99000   198000         398.91449     -426.48521      16086.814      17427.402      9559.0811      7868.3208      3216.8949      3218.4463      9595.9441      0             -8162.9645      0              0             -269.67773      215533.91      59.956812      59.956812      59.956812      0.83810655    -556.97213     -577.20815     -145.27535    
     99500   199000         405.48495      249.84294      18469.847      17686.582      9716.5272      7970.0545      3295.5452      3205.7129      9646.7271      0             -8177.9307      0              0             -270.39268      214964.01      59.903921      59.903921      59.903921      0.84032848     571.13153     -394.39691      572.79419    
    100000   200000         402.02834      452.51994      18751.236      17334.683      9633.6974      7700.9859      3131.7676      3142.7031      9598.7034      0             -8172.1882      0              0             -270.79559      214644.17      59.874197      59.874197      59.874197      0.84158064     537.89344      60.470168      759.1962     
    100500   201000         398.68116     -70.397732      17003.027      17223.617      9553.4899      7670.1272      3130.6938      3199.1692      9517.3166      0             -8177.0524      0              0             -270.52602      214858.05      59.894077      59.894077      59.894077      0.84074288     667.84403     -586.24861     -292.78861    
    101000   202000         403.90688      439.92435      19023.46       17640.858      9678.7122      7962.1461      3258.632       3211.465       9631.6457      0             -8139.5967      0              0             -269.72265      215498.01      59.953484      59.953484      59.953484      0.83824615     178.52176      234.29695      906.95434    
    101500   203000         404.50402     -171.89989      16948.238      17490.737      9693.0215      7797.7159      3168.4181      3151.494       9594.5817      0             -8116.7779      0              0             -268.60447      216395.11      60.036562      60.036562      60.036562      0.83477106    -606.72115      11.305099      79.71639     
    102000   204000         403.47632     -200.40656      17028.054      17660.819      9668.3949      7992.4243      3196.0366      3252.3226      9634.7391      0             -8090.674       0              0             -268.47604      216498.63      60.046134      60.046134      60.046134      0.83437193    -97.351749     -454.86649     -49.001439    
[...]
   4228000   8456000        80.198397      0.67076803    -436.85404     -438.63913      1921.7727     -2360.4118      654.1301       693.80989      6996.0321      0             -10704.384      0              0             -318.52948      182478.22      56.720104      56.720104      56.720104      0.98992841     226.66411     -187.69904     -36.952762    
   4228500   8457000        79.876625     -286.51157     -1168.0642     -405.74228      1914.0622     -2319.8044      656.79464      701.36421      7015.4256      0             -10693.389      0              0             -318.596        182440.13      56.716156      56.716156      56.716156      0.99013512    -209.54842     -245.3535      -404.6328     
   4229000   8458000        79.290426     -88.620361     -690.89096     -454.73725      1900.0152     -2354.7525      658.60392      698.31361      6981.7604      0             -10693.43       0              0             -318.10853      182719.7       56.745112      56.745112      56.745112      0.98862016    -45.06565      -177.02312     -43.772309    
   4229500   8459000        78.597028     -158.74724     -835.51581     -412.93785      1883.3995     -2296.3374      675.90998      693.53812      7029.3838      0             -10695.169      0              0             -318.44609      182526.01      56.725055      56.725055      56.725055      0.98966923     39.049043     -179.62489     -335.66587    
   4230000   8460000        80.314182     -247.01341     -1073.2837     -416.14789      1924.5472     -2340.6951      657.24451      686.76297      7029.4178      0             -10714.12       0              0             -318.64121      182414.24      56.713473      56.713473      56.713473      0.99027564    -140.18245     -179.66809     -421.18968    
   4230500   8461000        79.265787      422.66526      720.10383     -405.2213       1899.4248     -2304.6461      682.17347      708.26233      6997.9782      0             -10693.06       0              0             -318.38684      182559.98      56.728573      56.728573      56.728573      0.98948511     567.96173      253.33702      446.69703    
   4231000   8462000        80.701392     -214.08897     -967.11156     -397.36626      1933.8258     -2331.1921      653.62302      695.00362      7018.6095      0             -10698.428      0              0             -318.52984      182478.02      56.720082      56.720082      56.720082      0.98992952    -136.55189     -76.065859     -429.64917    
   4231500   8463000        80.205061     -153.0871      -787.56292     -379.27556      1921.9324     -2301.2079      689.64018      684.03218      7009.6971      0             -10684.577      0              0             -317.84049      182873.79      56.761059      56.761059      56.761059      0.98778714    -349.12995      4.442554      -114.57389    
   4232000   8464000        79.314371     -148.761       -829.72783     -433.24835      1900.589      -2333.8374      668.87452      692.75067      7009.1307      0             -10704.593      0              0             -318.057        182749.3       56.748176      56.748176      56.748176      0.98846002    -206.32409     -214.64532     -25.313605    
   4232500   8465000        79.632056     -89.775855     -656.87653     -417.74379      1908.2016     -2325.9454      660.69446      693.66842      7014.9404      0             -10695.249      0              0             -318.2417       182643.24      56.737195      56.737195      56.737195      0.98903404    -122.8369       41.893561     -188.38422    
   4233000   8466000        79.187459      8.6746955     -388.60876     -411.69861      1897.5479     -2309.2465      683.06048      692.31137      7012.463       0             -10697.081      0              0             -318.47092      182511.78      56.72358       56.72358       56.72358       0.9897464     -175.17182     -58.346851      259.54276    
   4233500   8467000        78.586069     -239.05941     -1080.0711     -443.82805      1883.1369     -2326.965       666.74598      683.20074      7033.4336      0             -10710.345      0              0             -318.5073       182490.94      56.721421      56.721421      56.721421      0.98985946    -248.18799     -137.15841     -331.83183    
   4234000   8468000        80.401981     -30.696376     -475.40086     -393.71258      1926.6511     -2320.3637      659.61636      697.87417      7014.2741      0             -10692.128      0              0             -318.53997      182472.22      56.719481      56.719481      56.719481      0.98996099     28.11352       26.321046     -146.52369    
   4234500   8469000        79.53288      -45.542803     -586.71665     -465.79536      1905.8251     -2371.6204      660.39712      668.39401      7005.478       0             -10705.89       0              0             -319.26665      182056.89      56.676416      56.676416      56.676416      0.99221938    -174.20643     -27.298841      64.876861    
   4235000   8470000        79.016125     -241.90705     -1075.4031     -432.05824      1893.4422     -2325.5005      661.84767      690.47014      7024.9312      0             -10702.749      0              0             -318.74346      182355.72      56.707408      56.707408      56.707408      0.99059341    -194.51325     -215.56739     -315.64051    
   4235500   8471000        79.928066     -102.26296     -671.57077     -399.464        1915.2948     -2314.7588      666.45619      714.73804      7016.1398      0             -10712.093      0              0             -318.57786      182450.52      56.717233      56.717233      56.717233      0.99007874    -114.93763     -57.701217     -134.15002    
   4236000   8472000        80.279147      30.767965     -336.97706     -418.93044      1923.7077     -2342.6381      660.7126       701.64046      7000.0643      0             -10705.056      0              0             -318.25003      182638.46      56.736701      56.736701      56.736701      0.98905991     35.599075     -162.46668      219.1715     
   4236500   8473000        79.311074      27.260397     -341.0709      -413.49187      1900.51       -2314.0019      680.9048       687.28441      7036.6082      0             -10718.799      0              0             -319.08355      182161.36      56.687254      56.687254      56.687254      0.99165035    -170.76882      271.31422     -18.7642      
   4237000   8474000        79.277696     -321.34472     -1245.9048     -390.23361      1899.7102     -2289.9438      671.68503      716.86006      7021.6327      0             -10700.122      0              0             -318.34706      182582.79      56.730936      56.730936      56.730936      0.98936148    -97.8884       -339.11274     -527.03304    
   4237500   8475000        79.901345     -148.65317     -806.98784     -411.85657      1914.6545     -2326.5111      673.96586      682.04998      7025.4998      0             -10708.027      0              0             -318.91088      182259.99      56.697483      56.697483      56.697483      0.99111371    -201.98985     -315.90791      71.938266    
   4238000   8476000        81.188648     -107.50596     -678.20622     -391.78432      1945.5018     -2337.2861      663.90343      690.75905      7010.4405      0             -10702.389      0              0             -318.17269      182682.85      56.741298      56.741298      56.741298      0.98881955    -83.409526      76.054297     -315.16266    
   4238500   8477000        81.082887     -123.50106     -706.09635     -377.72832      1942.9675     -2320.6958      665.54768      699.28652      7032.4228      0             -10717.953      0              0             -318.8206       182311.6       56.702834      56.702834      56.702834      0.99083315    -294.27112     -74.815498     -1.4165475    
   4239000   8478000        79.579102      18.667755     -358.52206     -408.21542      1906.9327     -2315.1481      665.61417      700.62289      7034.5255      0             -10715.911      0              0             -318.44195      182528.39      56.725301      56.725301      56.725301      0.98965635    -143.10053      267.05442     -67.950625    
   4239500   8479000        80.002442     -186.28542     -913.50138     -418.19578      1917.0771     -2335.2729      670.16206      682.45894      7024.6392      0             -10712.533      0              0             -318.81754      182313.35      56.703016      56.703016      56.703016      0.99082362    -267.08903     -148.93386     -142.83338    
   4240000   8480000        80.388711      76.880373     -183.46379     -388.06432      1926.3331     -2314.3975      666.85594      697.51391      7028.722       0             -10707.489      0              0             -318.5263       182480.05      56.720293      56.720293      56.720293      0.98991852     362.27553      42.659295     -174.29371    
   4240500   8481000        80.863205      51.14559      -276.15478     -412.03592      1937.7033     -2349.7392      664.24265      699.45048      7005.3893      0             -10718.822      0              0             -319.06971      182169.27      56.688074      56.688074      56.688074      0.99160731    -144.13169      42.415551      255.15291    
   4241000   8482000        80.668442      79.342362     -182.47086     -393.96185      1933.0362     -2326.9981      679.8581       697.22337      7008.8242      0             -10712.904      0              0             -318.01663      182772.5       56.750578      56.750578      56.750578      0.98833455    -61.623851      366.99992     -67.348984    
   4241500   8483000        79.851502      254.88273      264.94319     -412.8249       1913.4601     -2326.285       657.21636      686.88818      7025.4542      0             -10695.844      0              0             -318.78353      182332.8       56.705032      56.705032      56.705032      0.99071794     226.59246      358.56009      179.49565    
   4242000   8484000        81.057153     -85.931753     -631.29055     -402.77003      1942.3508     -2345.1209      666.09035      694.56892      7007.2004      0             -10712.981      0              0             -318.7609       182345.75      56.706374      56.706374      56.706374      0.9906476     -165.86193      5.8639587     -97.797287    
   4242500   8485000        78.874687      71.768909     -247.03439     -437.94628      1890.053      -2327.9993      664.32212      696.57855      7025.4323      0             -10714.332      0              0             -318.6691       182398.28      56.711819      56.711819      56.711819      0.9903623     -55.007043     -8.9019004      279.21567    
   4243000   8486000        79.975765      174.39326      43.77679      -420.28165      1916.4378     -2336.7195      664.28916      680.06486      7034.0659      0             -10715.139      0              0             -318.56173      182459.75      56.71819       56.71819       56.71819       0.99002863     96.154009      380.98969      46.036089    
   4243500   8487000        80.756732      140.85461     -30.794534     -404.62531      1935.1519     -2339.7772      658.5855       689.42048      7034.7932      0             -10722.576      0              0             -319.3983       181981.85      56.668628      56.668628      56.668628      0.99262852     110.42264     -23.002734      335.14394    
   4244000   8488000        80.137766      62.852184     -277.57004     -445.00857      1920.3198     -2365.3284      657.21808      678.21213      7000.0305      0             -10700.789      0              0             -318.20099      182666.6       56.739615      56.739615      56.739615      0.98890752     187.26466     -165.94469      167.23658    
   4244500   8489000        80.974173     -133.11724     -740.02109     -385.79937      1940.3624     -2326.1618      673.85653      685.25412      7022.5721      0             -10707.844      0              0             -318.56327      182458.87      56.718099      56.718099      56.718099      0.99003339    -224.99638      27.696388     -202.05173    
   4245000   8490000        81.00508       2.6717835     -367.63188     -374.74079      1941.103      -2315.8438      682.27609      683.39661      7010.7057      0             -10692.222      0              0             -318.59232      182442.23      56.716374      56.716374      56.716374      0.99012369     18.034856      346.71002     -356.72953    
   4245500   8491000        80.829277     -40.472466     -515.08727     -407.42271      1936.8903     -2344.313       661.46565      692.96289      7007.2731      0             -10706.015      0              0             -318.657        182405.2       56.712537      56.712537      56.712537      0.9903247      4.392947      -291.6996       165.88926    
   4246000   8492000        80.495212      107.3552      -113.42073     -398.87966      1928.8852     -2327.7648      656.58295      705.97192      7005.0661      0             -10695.386      0              0             -318.79834      182324.33      56.704154      56.704154      56.704154      0.99076397     110.89339      120.70254      90.469681    
   4246500   8493000        80.090887      125.59203     -88.234039     -422.07756      1919.1965     -2341.274       664.78841      690.07321      7020.2637      0             -10716.399      0              0             -318.90087      182265.72      56.698077      56.698077      56.698077      0.99108259     83.586322      78.556094      214.63367    
   4247000   8494000        80.336154     -155.069       -797.81935     -385.01553      1925.0737     -2310.0893      669.88002      707.67581      7015.9916      0             -10703.637      0              0             -318.43284      182533.6       56.725841      56.725841      56.725841      0.98962807    -352.61847     -107.22128     -5.3672518    
   4247500   8495000        79.569809     -24.169454     -475.79062     -411.39703      1906.71       -2318.107       665.13815      706.72161      7012.6748      0             -10702.642      0              0             -318.17111      182683.76      56.741391      56.741391      56.741391      0.98881464    -78.875163     -128.29747      134.66427    
   4248000   8496000        80.050221     -25.212849     -485.05527     -417.96758      1918.222      -2336.1896      672.76853      705.07501      6997.6542      0             -10711.687      0              0             -318.57792      182450.48      56.717229      56.717229      56.717229      0.99007894     27.761228     -44.377876     -59.0219      
   4248500   8497000        80.785982     -30.527865     -478.30259     -396.95183      1935.8528     -2332.8047      670.90117      678.04521      7007.2599      0             -10689.011      0              0             -318.10562      182721.37      56.745285      56.745285      56.745285      0.98861111     55.675759      76.280932     -223.54029    
   4249000   8498000        80.061233      169.02663      68.811825     -380.82182      1918.4859     -2299.3077      675.95013      705.49972      7022.0127      0             -10702.77       0              0             -318.66393      182401.24      56.712126      56.712126      56.712126      0.99034624     98.537684      6.9881159      401.55409    
   4249500   8499000        79.451797      62.088979     -268.92958     -434.15377      1903.8821     -2338.0359      659.66009      693.46717      7020.4706      0             -10711.634      0              0             -318.54989      182466.54      56.718893      56.718893      56.718893      0.98999181     161.75375      93.853455     -69.34027     
   4250000   8500000        79.249922     -48.649502     -523.85658     -394.45845      1899.0446     -2293.5031      679.4062       699.46511      7021.9448      0             -10694.319      0              0             -318.70359      182378.54      56.709773      56.709773      56.709773      0.99046949    -150.47159      175.43611     -170.91302    
Loop time of 1899.7 on 8 procs for 250000 steps with 8040 atoms

Performance: 22.740 ns/day, 1.055 hours/ns, 131.600 timesteps/s, 1.058 Matom-step/s
98.5% CPU use with 8 MPI tasks x 1 OpenMP threads

MPI task timing breakdown:
Section |  min time  |  avg time  |  max time  |%varavg| %total
---------------------------------------------------------------
Pair    | 1069.7     | 1302.8     | 1679.7     | 622.0 | 68.58
Bond    | 43.196     | 50.166     | 62.16      | 101.3 |  2.64
Neigh   | 38.062     | 38.181     | 38.314     |   1.6 |  2.01
Comm    | 87.067     | 477.12     | 716.8      |1062.4 | 25.12
Output  | 0.04135    | 0.044784   | 0.066377   |   3.9 |  0.00
Modify  | 19.365     | 20.949     | 22.462     |  23.5 |  1.10
Other   |            | 10.49      |            |       |  0.55

Nlocal:           1005 ave        1017 max         989 min
Histogram: 1 0 0 1 0 3 1 0 0 2
Nghost:        8696.12 ave        8739 max        8674 min
Histogram: 3 0 0 3 1 0 0 0 0 1
Neighs:         377095 ave      389146 max      363744 min
Histogram: 1 1 1 0 1 0 1 1 0 2

Total # of neighbors = 3016759
Ave neighs/atom = 375.21878
Ave special neighs/atom = 5.9701493
Neighbor list builds = 2357
Dangerous builds = 0
  unfix npt_tg
  dump per_t_snap all atom 1 per_t_structs.dump
  dump_modify per_t_snap append yes
  run 0
WARNING: No fixes with time integration, atoms won't move
For more information see https://docs.lammps.org/err0028 (src/verlet.cpp:60)
Generated 3 of 3 mixed pair_coeff terms from arithmetic mixing rule
Per MPI rank memory allocation (min/avg/max) = 9.237 | 9.429 | 9.62 Mbytes
   Step          Time           Temp          Press         Enthalpy        TotEng         KinEng         PotEng         E_bond        E_angle        E_dihed        E_impro         E_vdwl         E_coul         E_long         E_tail         Volume           Lx             Ly             Lz          Density          Pxx            Pyy            Pzz      
   4250000   8500000        79.249922     -48.649502     -523.85658     -394.45845      1899.0446     -2293.5031      679.4062       699.46511      7021.9448      0             -10694.319      0              0             -318.70359      182378.54      56.709773      56.709773      56.709773      0.99046949    -150.47159      175.43611     -170.91302    
Loop time of 8.42987e-06 on 8 procs for 0 steps with 8040 atoms

115.7% CPU use with 8 MPI tasks x 1 OpenMP threads

MPI task timing breakdown:
Section |  min time  |  avg time  |  max time  |%varavg| %total
---------------------------------------------------------------
Pair    | 0          | 0          | 0          |   0.0 |  0.00
Bond    | 0          | 0          | 0          |   0.0 |  0.00
Neigh   | 0          | 0          | 0          |   0.0 |  0.00
Comm    | 0          | 0          | 0          |   0.0 |  0.00
Output  | 0          | 0          | 0          |   0.0 |  0.00
Modify  | 0          | 0          | 0          |   0.0 |  0.00
Other   |            | 8.43e-06   |            |       |100.00

Nlocal:           1005 ave        1026 max         988 min
Histogram: 1 0 2 0 2 1 1 0 0 1
Nghost:        8697.62 ave        8723 max        8671 min
Histogram: 2 0 0 1 1 0 1 1 1 1
Neighs:         377298 ave      387539 max      363211 min
Histogram: 2 0 1 0 0 1 0 0 1 3

Total # of neighbors = 3018383
Ave neighs/atom = 375.42077
Ave special neighs/atom = 5.9701493
Neighbor list builds = 0
Dangerous builds = 0
  undump per_t_snap
  print "STAGE COMPLETE: Tg step T=${temps}K P=1.0atm steps=250000"
STAGE COMPLETE: Tg step T=80K P=1.0atm steps=250000
  next temps
  jump SELF TEMP_LOOP

write_data tg_step_out.data
System init for write_data ...
Generated 3 of 3 mixed pair_coeff terms from arithmetic mixing rule
Total wall time: 8:59:57
