units real
atom_style full
boundary p p p

# --- Force Field Styles ---
pair_style lj/cut 14.0
dielectric 1.000000
bond_style harmonic
angle_style harmonic
dihedral_style multi/harmonic
improper_style none
special_bonds lj 0 0 0
pair_modify mix arithmetic tail yes
neighbor 2.0 bin
neigh_modify delay 0 every 1 check yes
neigh_modify one 4000
package gpu 1 neigh yes

read_data /home/alexzhao/PolyJarvis/data/PE4/lammps/equil/minimize/minimize_out.data
Reading data file ...
  orthogonal box = (0 0 0) to (55.778372 55.778372 55.778372)
  1 by 1 by 1 MPI processor grid
  reading atoms ...
  4840 atoms
  reading velocities ...
  4840 velocities
  scanning bonds ...
  2 = max bonds/atom
  scanning angles ...
  1 = max angles/atom
  scanning dihedrals ...
  2 = max dihedrals/atom
  orthogonal box = (0 0 0) to (55.778372 55.778372 55.778372)
  1 by 1 by 1 MPI processor grid
  reading bonds ...
  4820 bonds
  reading angles ...
  4800 angles
  reading dihedrals ...
  4780 dihedrals
Finding 1-2 1-3 1-4 neighbors ...
  special bond factors lj:    0        0        0       
  special bond factors coul:  0        0        0       
     2 = max # of 1-2 neighbors
     2 = max # of 1-3 neighbors
     4 = max # of 1-4 neighbors
     6 = max # of special neighbors
  special bonds CPU = 0.002 seconds
  read_data CPU = 0.069 seconds
include /home/alexzhao/PolyJarvis/data/PE4/lammps/equil/emc_build.params
# LAMMPS parameters created by EMC v9.4.4, build Jul 31 2025 20:33:44

# Variables

variable	seed		index	942725
variable	ntotal		index	4840
variable	fshape		index	1
variable	output		index	emc_build
variable	field		index	trappe/2014/trappe-ua
variable	location1	index	~/emc/field/
variable	nav		index	0.6022141179
variable	temperature	index	300
variable	radius		index	5
variable	nrelax		index	100
variable	weight_nonbond	index	0.0001
variable	weight_bond	index	0.0001
variable	weight_focus	index	1
variable	cutoff		index	14
variable	charge_cutoff	index	14
variable	kappa		index	4
variable	density1	index	0.65
variable	lprevious	index	0
variable	lphase		index	55.7783720511
variable	f_poly		index	20
variable	chem_repeat	index	*CC*
variable	chem_cap	index	*C
variable	lg_repeat	index	2
variable	lg_cap		index	1
variable	norm_poly	index	100
variable	l_poly		index	242
variable	mg_repeat	index	28.0536
variable	mg_cap		index	15.0347
variable	m_poly		index	3396.5014
variable	n_poly		index	20
variable	mtotal		index	67930.028
variable	nphase1		index	4840
variable	mphase1		index	67930.028
variable	vphase1		index	173539.165354
variable	lbox		index	55.7783720511
variable	lphase1		index	55.7783720511
variable	lxx		index	55.7783720511
variable	lyy		index	55.7783720511
variable	lzz		index	55.7783720511
variable	lzy		index	0
variable	lzx		index	0
variable	lyx		index	0
variable	vtotal		index	173539.165354
variable	nl_poly		index	20

# Types

variable	type_c4h2	index	1
variable	type_c4h3	index	2

variable	type_bond_c4h2_c4h2 index	1
variable	type_bond_c4h2_c4h3 index	2

variable	type_angle_c4h2_c4h2_c4h2 index	1
variable	type_angle_c4h2_c4h2_c4h3 index	2

# Clusters

variable	n0_poly		index	1
variable	n1_poly		index	20
variable	nl_poly		index	20

# Flags

variable	flag_charged	index	0

# Masses

mass		1    14.02680  # c4h2
mass		2    15.03470  # c4h3

# Potentials

pair_modify	mix arithmetic tail yes
special_bonds	lj 0 0 0 coul 0 0 0.5
Finding 1-2 1-3 1-4 neighbors ...
  special bond factors lj:    0        0        0       
  special bond factors coul:  0        0        0.5     
     2 = max # of 1-2 neighbors
     2 = max # of 1-3 neighbors
     4 = max # of 1-4 neighbors
     6 = max # of special neighbors
  special bonds CPU = 0.002 seconds

# Pair Coeffs

pair_coeff	1 1    0.09141    3.95000  # c4h2,c4h2
pair_coeff	2 2    0.19475    3.75000  # c4h3,c4h3

# Bond Coeffs

bond_coeff	1  260.00013    1.54000  # c4h2,c4h2
bond_coeff	2  260.00013    1.54000  # c4h2,c4h3

# Angle Coeffs

angle_coeff	1   62.10020  114.00000  # c4h2,c4h2,c4h2
angle_coeff	2   62.10020  114.00000  # c4h2,c4h2,c4h3

# Dihedral Coeffs

dihedral_coeff	1    2.00702   -4.01203    0.27102    6.29006    0.00000  # c4h2,c4h2,c4h2,c4h2
dihedral_coeff	2    2.00702   -4.01203    0.27102    6.29006    0.00000  # c4h2,c4h2,c4h2,c4h3


# --- Thermo Output ---
thermo_style custom step time temp press enthalpy etotal ke pe ebond eangle edihed eimp evdwl ecoul elong etail vol lx ly lz density pxx pyy pzz
thermo_modify flush yes
thermo 1000

# --- Trajectory ---
dump dump_nvt all custom 1000 nvt_softheat.dump id type mol x y z ix iy iz vx vy vz

# --- Restart Checkpointing ---
restart 10000 nvt_1.rst nvt_2.rst

# --- Initial Velocities (optional) ---
velocity all create 300.0 846205 mom yes rot yes dist gaussian

# --- SHAKE Constraints ---
# Constrains H-X bonds to allow 2fs timestep
# SHAKE disabled (TraPPE-UA united-atom)

# --- NVT Thermostat (Nose-Hoover) ---
# T_damp = 50.0 fs  (coupling timescale for heat exchange)
# Ramp: 300.0 K -> 620.0 K over 300000 steps
timestep 0.5
fix nvt_fix all nvt temp 300.0 620.0 50.0

run 300000

CITE-CITE-CITE-CITE-CITE-CITE-CITE-CITE-CITE-CITE-CITE-CITE-CITE

Your simulation uses code contributions which should be cited:

- GPU package (short-range, long-range and three-body potentials): doi:10.1016/j.cpc.2010.12.021, doi:10.1016/j.cpc.2011.10.012, doi:10.1016/j.cpc.2013.08.002, doi:10.1016/j.commatsci.2014.10.068, doi:10.1016/j.cpc.2016.10.020, doi:10.3233/APC200086

@Article{Brown11,
 author = {W. M. Brown and P. Wang and S. J. Plimpton and A. N. Tharrington},
 title = {Implementing Molecular Dynamics on Hybrid High Performance Computers---Short Range Forces},
 journal = {Comput.\ Phys.\ Commun.},
 year =    2011,
 volume =  182,
 pages =   {898--911},
 doi =     {10.1016/j.cpc.2010.12.021}
}

@Article{Brown12,
 author = {W. M. Brown and A. Kohlmeyer and S. J. Plimpton and A. N. Tharrington},
 title = {Implementing Molecular Dynamics on Hybrid High Performance Computers - Particle-Particle Particle-Mesh},
 journal = {Comput.\ Phys.\ Commun.},
 year =    2012,
 volume =  183,
 doi =     {10.1016/j.cpc.2011.10.012},
 pages =   {449--459}
}

@Article{Brown13,
 author = {W. M. Brown and Y. Masako},
 title = {Implementing Molecular Dynamics on Hybrid High Performance Computers---Three-Body Potentials},
 journal = {Comput.\ Phys.\ Commun.},
 year =    2013,
 volume =  184,
 pages =   {2785--2793},
 doi =     {10.1016/j.cpc.2013.08.002},
}

@Article{Trung15,
 author = {T. D. Nguyen and S. J. Plimpton},
 title = {Accelerating Dissipative Particle Dynamics Simulations for Soft Matter Systems},
 journal = {Comput.\ Mater.\ Sci.},
 year =    2015,
 doi =     {10.1016/j.commatsci.2014.10.068},
 volume =  100,
 pages =   {173--180}
}

@Article{Trung17,
 author = {T. D. Nguyen},
 title = {{GPU}-Accelerated {T}ersoff Potentials for Massively Parallel
    Molecular Dynamics Simulations},
 journal = {Comput.\ Phys.\ Commun.},
 year =    2017,
 doi =     {10.1016/j.cpc.2016.10.020},
 volume =  212,
 pages =   {113--122}
}

@inproceedings{Nikolskiy19,
 author = {V. Nikolskiy and V. Stegailov},
 title = {{GPU} Acceleration of Four-Site Water Models in {LAMMPS}},
 booktitle = {Proceedings of the International Conference on Parallel
    Computing (ParCo 2019), Prague, Czech Republic},
 doi =     {10.3233/APC200086},
 year =    2019
}

CITE-CITE-CITE-CITE-CITE-CITE-CITE-CITE-CITE-CITE-CITE-CITE-CITE

Generated 1 of 1 mixed pair_coeff terms from arithmetic mixing rule
Per MPI rank memory allocation (min/avg/max) = 14.79 | 14.79 | 14.79 Mbytes
   Step          Time           Temp          Press         Enthalpy        TotEng         KinEng         PotEng         E_bond        E_angle        E_dihed        E_impro         E_vdwl         E_coul         E_long         E_tail         Volume           Lx             Ly             Lz          Density          Pxx            Pyy            Pzz      
         0   0              300            449.15069      2584.8881      1448.1368      4327.2419     -2879.1052      7.3847348      135.61369      1975.2071      0             -4997.3107      0              0             -143.6595       173539.17      55.778372      55.778372      55.778372      0.64999999     485.99797      473.63845      387.81564    
      1000   500            303.63291      84.202333      6286.9258      6073.8189      4379.6436      1694.1754      1556.8385      1458.5414      3216.5266      0             -4537.7311      0              0             -143.6595       173539.17      55.778372      55.778372      55.778372      0.64999999     346.72152      253.53655     -347.65108    
      2000   1000           302.90869     -717.32159      4101.8948      5917.3574      4369.1974      1548.16        1418.7124      1405.9206      3196.1994      0             -4472.6725      0              0             -143.6595       173539.17      55.778372      55.778372      55.778372      0.64999999    -814.46931     -1013.695      -323.8005     
      3000   1500           301.91967     -159.96108      5737.2694      6142.1134      4354.9316      1787.1818      1500.6162      1473.2505      3219.6494      0             -4406.3343      0              0             -143.6595       173539.17      55.778372      55.778372      55.778372      0.64999999    -435.72733      124.15091     -168.30681    
      4000   2000           300.46432     -181.53974      5535.0626      5994.5199      4333.9393      1660.5806      1430.3742      1480.2766      3142.2362      0             -4392.3065      0              0             -143.6595       173539.17      55.778372      55.778372      55.778372      0.64999999     19.126391     -457.067       -106.6786     
      5000   2500           307.6619      -688.95245      4391.7466      6135.4099      4437.7582      1697.6517      1475.8164      1472.9803      3129.6623      0             -4380.8072      0              0             -143.6595       173539.17      55.778372      55.778372      55.778372      0.64999999    -685.29249     -364.16252     -1017.4023    
      6000   3000           305.78918     -476.85989      4898.1483      6105.0286      4410.7459      1694.2826      1425.3877      1482.9741      3148.0918      0             -4362.171       0              0             -143.6595       173539.17      55.778372      55.778372      55.778372      0.64999999    -263.42684     -207.47924     -959.67358    
      7000   3500           302.49139     -385.99211      5034.8325      6011.7363      4363.1781      1648.5582      1445.3206      1488.867       3077.9112      0             -4363.5406      0              0             -143.6595       173539.17      55.778372      55.778372      55.778372      0.64999999    -567.50836     -80.297584     -510.17038    
      8000   4000           309.876       -508.73486      4879.7026      6167.2549      4469.6948      1697.5602      1440.2586      1488.1323      3144.6097      0             -4375.4404      0              0             -143.6595       173539.17      55.778372      55.778372      55.778372      0.64999999    -649.97634      0.24659841    -876.47484    
      9000   4500           303.5724       29.41946       6211.8976      6137.4401      4378.7708      1758.6693      1517.1454      1487.7054      3150.3496      0             -4396.5311      0              0             -143.6595       173539.17      55.778372      55.778372      55.778372      0.64999999     426.62772     -357.95129      19.581946    
     10000   5000           317.68456     -851.34541      4037.8897      6192.5519      4582.3265      1610.2255      1441.8457      1455.7282      3111.1825      0             -4398.5309      0              0             -143.6595       173539.17      55.778372      55.778372      55.778372      0.64999999    -766.89887     -630.81        -1156.3273    
     11000   5500           306.62241     -440.56886      4932.9621      6047.9938      4422.7646      1625.2292      1501.8377      1448.1168      3109.0303      0             -4433.7556      0              0             -143.6595       173539.17      55.778372      55.778372      55.778372      0.64999999    -587.56382     -376.27767     -357.86508    
     12000   6000           314.57729     -72.575438      6079.5361      6263.2166      4537.5068      1725.7098      1498.2854      1543.969       3112.1026      0             -4428.6471      0              0             -143.6595       173539.17      55.778372      55.778372      55.778372      0.64999999     20.47418      -45.478059     -192.72244    
     13000   6500           318.26367     -519.77519      5013.4574      6328.9516      4590.6797      1738.2719      1533.883       1456.7137      3170.7531      0             -4423.0779      0              0             -143.6595       173539.17      55.778372      55.778372      55.778372      0.64999999    -475.90093     -565.98304     -517.44161    
     14000   7000           312.36001     -857.09042      3980.8392      6150.0413      4505.5245      1644.5169      1472.323       1492.5393      3085.4475      0             -4405.793       0              0             -143.6595       173539.17      55.778372      55.778372      55.778372      0.64999999    -662.70297     -1126.8526     -781.71566    
     15000   7500           308.554       -481.05944      4976.5042      6194.013       4450.6261      1743.387       1540.2134      1493.0699      3105.6102      0             -4395.5065      0              0             -143.6595       173539.17      55.778372      55.778372      55.778372      0.64999999    -431.27855     -326.08552     -685.81426    
     16000   8000           316.84246     -764.58026      4430.1124      6365.1815      4570.1799      1795.0015      1523.1644      1538.6491      3121.5737      0             -4388.3857      0              0             -143.6595       173539.17      55.778372      55.778372      55.778372      0.64999999    -803.55868     -582.77212     -907.40997    
     17000   8500           319.51648     -531.15719      5068.7606      6413.0614      4608.7504      1804.311       1522.7186      1605.5726      3125.0121      0             -4448.9923      0              0             -143.6595       173539.17      55.778372      55.778372      55.778372      0.64999999    -358.48485     -377.83631     -857.1504     
     18000   9000           317.53975     -471.88233      5075.8657      6270.1484      4580.2377      1689.9107      1493.3712      1531.9451      3081.3762      0             -4416.7819      0              0             -143.6595       173539.17      55.778372      55.778372      55.778372      0.64999999    -561.41365     -409.32981     -444.90354    
     19000   9500           316.38738     -850.17819      4142.3453      6294.0534      4563.6158      1730.4377      1520.3771      1552.1463      3081.3272      0             -4423.4129      0              0             -143.6595       173539.17      55.778372      55.778372      55.778372      0.64999999    -745.19975     -965.37437     -839.96046    
     20000   10000          323.13276     -755.29622      4507.3456      6418.9178      4660.9121      1758.0057      1513.9176      1550.8297      3140.4448      0             -4447.1865      0              0             -143.6595       173539.17      55.778372      55.778372      55.778372      0.64999999    -775.84702     -901.36911     -588.67254    
     21000   10500          327.98554     -486.52826      5245.6638      6477.0137      4730.9093      1746.1043      1519.14        1542.5638      3137.2986      0             -4452.898       0              0             -143.6595       173539.17      55.778372      55.778372      55.778372      0.64999999    -284.09047     -86.870726     -1088.6236    
     22000   11000          326.20982     -829.55278      4252.3588      6351.8663      4705.2961      1646.5702      1504.3285      1542.1754      3106.8346      0             -4506.7683      0              0             -143.6595       173539.17      55.778372      55.778372      55.778372      0.64999999    -764.65704     -945.71307     -778.28822    
     23000   11500          320.73918     -390.05387      5365.1818      6352.3655      4626.3867      1725.9788      1505.497       1567.6793      3150.6491      0             -4497.8466      0              0             -143.6595       173539.17      55.778372      55.778372      55.778372      0.64999999    -434.89379     -141.53294     -593.73488    
     24000   12000          322.50913     -163.0085       5954.7077      6367.2644      4651.9168      1715.3476      1505.6101      1567.3076      3157.7343      0             -4515.3044      0              0             -143.6595       173539.17      55.778372      55.778372      55.778372      0.64999999     232.75256     -95.795098     -625.98295    
     25000   12500          333.60833     -309.90638      5664.0231      6448.3623      4812.0132      1636.3491      1488.7925      1579.252       3070.5668      0             -4502.2623      0              0             -143.6595       173539.17      55.778372      55.778372      55.778372      0.64999999    -587.89468     -261.27249     -80.551975    
     26000   13000          320.67647     -659.94226      4661.1393      6331.381       4625.4822      1705.8988      1527.9959      1574.402       3091.9973      0             -4488.4964      0              0             -143.6595       173539.17      55.778372      55.778372      55.778372      0.64999999    -383.89036     -761.84619     -834.09023    
     27000   13500          331.58861     -296.45749      5749.7854      6500.0869      4782.8804      1717.2065      1526.6566      1595.4624      3092.7645      0             -4497.6771      0              0             -143.6595       173539.17      55.778372      55.778372      55.778372      0.64999999    -107.3427      -590.53412     -191.49567    
     28000   14000          324.80937     -587.25683      4950.002       6436.2848      4685.0958      1751.1891      1547.8833      1583.6703      3120.4686      0             -4500.8331      0              0             -143.6595       173539.17      55.778372      55.778372      55.778372      0.64999999    -960.84524     -649.71339     -151.21186    
     29000   14500          331.88682     -571.29093      4994.5313      6440.4062      4787.1819      1653.2243      1490.7923      1538.3259      3126.7049      0             -4502.5987      0              0             -143.6595       173539.17      55.778372      55.778372      55.778372      0.64999999    -805.44078      69.48258      -977.91459    
     30000   15000          334.13473     -692.99067      4872.089       6625.9726      4819.606       1806.3666      1593.2965      1541.7149      3196.9172      0             -4525.562       0              0             -143.6595       173539.17      55.778372      55.778372      55.778372      0.64999999    -376.91265     -738.43694     -963.62241    
     31000   15500          331.65906     -995.91811      4092.5132      6613.0731      4783.8966      1829.1765      1617.6327      1588.2059      3124.3349      0             -4500.997       0              0             -143.6595       173539.17      55.778372      55.778372      55.778372      0.64999999    -647.49237     -1392.2644     -947.99758    
     32000   16000          335.16478     -1104.3047      3886.7849      6681.6593      4834.4637      1847.1956      1565.0872      1642.6837      3159.5268      0             -4520.1021      0              0             -143.6595       173539.17      55.778372      55.778372      55.778372      0.64999999    -1255.9198     -598.66213     -1458.3321    
     33000   16500          340.83        -770.41715      4820.0064      6769.848       4916.1795      1853.6685      1575.5729      1614.6768      3160.5133      0             -4497.0945      0              0             -143.6595       173539.17      55.778372      55.778372      55.778372      0.64999999    -675.74786     -779.30994     -856.19365    
     34000   17000          337.79882     -363.14837      5875.5292      6794.6181      4872.4574      1922.1607      1613.6264      1616.242       3222.9653      0             -4530.6729      0              0             -143.6595       173539.17      55.778372      55.778372      55.778372      0.64999999    -69.704527     -455.14286     -564.59772    
     35000   17500          336.07058     -377.2521       5780.8425      6735.6264      4847.529       1888.0973      1603.7098      1631.1084      3191.8347      0             -4538.5555      0              0             -143.6595       173539.17      55.778372      55.778372      55.778372      0.64999999    -325.78402     -730.15413     -75.818148    
     36000   18000          343.80563      11.608588      6947.9917      6918.6117      4959.1005      1959.5111      1571.6749      1643.9106      3273.5654      0             -4529.6397      0              0             -143.6595       173539.17      55.778372      55.778372      55.778372      0.64999999     9.0885388     -19.591911      45.329136    
     37000   18500          340.72873     -692.88431      5055.3025      6808.917       4914.7189      1894.1981      1608.4216      1598.9277      3231.705       0             -4544.8561      0              0             -143.6595       173539.17      55.778372      55.778372      55.778372      0.64999999    -820.16462     -641.64892     -616.83938    
     38000   19000          343.49484     -398.86981      5856.8886      6866.3845      4954.6176      1911.7669      1562.0387      1631.9814      3258.2865      0             -4540.5397      0              0             -143.6595       173539.17      55.778372      55.778372      55.778372      0.64999999    -871.48405     -131.12189     -194.00349    
     39000   19500          341.50964     -340.55842      6009.7222      6871.6383      4925.9828      1945.6556      1637.8244      1627.9428      3214.1798      0             -4534.2914      0              0             -143.6595       173539.17      55.778372      55.778372      55.778372      0.64999999    -665.18457     -152.52656     -203.96414    
     40000   20000          341.95078     -101.11357      6610.1632      6866.0706      4932.3459      1933.7247      1605.3496      1633.383       3214.6001      0             -4519.608       0              0             -143.6595       173539.17      55.778372      55.778372      55.778372      0.64999999    -441.54571     -402.3141       540.51909    
     41000   20500          341.52665      10.374357      6868.178       6841.9216      4926.2281      1915.6935      1607.9272      1652.2529      3192.9149      0             -4537.4015      0              0             -143.6595       173539.17      55.778372      55.778372      55.778372      0.64999999     274.32623      107.21929     -350.42245    
     42000   21000          346.79873     -634.93644      5395.1489      7002.1036      5002.2733      1999.8303      1593.7946      1653.1426      3297.5684      0             -4544.6754      0              0             -143.6595       173539.17      55.778372      55.778372      55.778372      0.64999999    -90.384483     -651.82867     -1162.5962    
     43000   21500          345.86388     -503.60461      5516.2267      6790.7949      4988.789       1802.0059      1582.6248      1578.9633      3197.8454      0             -4557.4275      0              0             -143.6595       173539.17      55.778372      55.778372      55.778372      0.64999999    -63.167526     -952.74847     -494.89784    
     44000   22000          340.4643      -665.76364      5180.4628      6865.4378      4910.9047      1954.5331      1633.3176      1621.0418      3245.7362      0             -4545.5625      0              0             -143.6595       173539.17      55.778372      55.778372      55.778372      0.64999999    -1165.7596     -480.56346     -350.96793    
     45000   22500          354.87942     -572.647        5601.653       7050.96        5118.8304      1932.1296      1632.3683      1574.1127      3262.4281      0             -4536.7795      0              0             -143.6595       173539.17      55.778372      55.778372      55.778372      0.64999999    -164.83199     -1017.1752     -535.93376    
     46000   23000          345.47414     -425.04194      5983.9024      7059.6371      4983.1673      2076.4698      1663.7126      1668.9903      3257.926       0             -4514.1591      0              0             -143.6595       173539.17      55.778372      55.778372      55.778372      0.64999999    -336.02264     -413.46749     -525.6357     
     47000   23500          348.59036     -619.84551      5497.9391      7066.7003      5028.116       2038.5843      1651.8372      1693.2327      3240.977       0             -4547.4626      0              0             -143.6595       173539.17      55.778372      55.778372      55.778372      0.64999999    -780.13419     -387.19874     -692.20359    
     48000   24000          358.47882      77.336651      7383.8346      7188.104       5170.7486      2017.3554      1623.2467      1701.5203      3242.3076      0             -4549.7192      0              0             -143.6595       173539.17      55.778372      55.778372      55.778372      0.64999999    -147.0677      -145.05775      524.1354     
     49000   24500          354.00401     -294.6095       6468.3139      7213.9383      5106.2033      2107.735       1689.2968      1719.7479      3249.3105      0             -4550.6202      0              0             -143.6595       173539.17      55.778372      55.778372      55.778372      0.64999999     71.09431      -567.50505     -387.41775    
     50000   25000          346.93338     -655.14584      5479.8976      7138.0001      5004.2156      2133.7845      1694.7956      1720.8433      3255.5169      0             -4537.3713      0              0             -143.6595       173539.17      55.778372      55.778372      55.778372      0.64999999    -140.18431     -623.39863     -1201.8546    
     51000   25500          346.19381     -1143.1012      4200.249       7093.3131      4993.548       2099.7651      1688.0877      1701.9094      3254.3419      0             -4544.5738      0              0             -143.6595       173539.17      55.778372      55.778372      55.778372      0.64999999    -1475.9041     -1246.1478     -707.25158    
     52000   26000          358.33781     -342.33554      6353.1036      7219.5174      5168.7146      2050.8028      1624.9594      1670.5751      3301.2859      0             -4546.0176      0              0             -143.6595       173539.17      55.778372      55.778372      55.778372      0.64999999    -584.36004     -32.786512     -409.86007    
     53000   26500          346.47947     -704.95349      5357.9759      7142.1361      4997.6684      2144.4678      1691.4292      1679.1079      3272.7411      0             -4498.8105      0              0             -143.6595       173539.17      55.778372      55.778372      55.778372      0.64999999    -714.19033     -741.65383     -659.01631    
     54000   27000          362.83631     -498.73386      6097.9176      7360.1585      5233.6016      2126.5569      1673.7625      1713.1638      3275.1806      0             -4535.55        0              0             -143.6595       173539.17      55.778372      55.778372      55.778372      0.64999999    -310.09026     -505.47893     -680.6324     
     55000   27500          357.74799     -397.9445       6212.6589      7219.813       5160.207       2059.606       1670.4869      1656.9221      3252.1869      0             -4519.9899      0              0             -143.6595       173539.17      55.778372      55.778372      55.778372      0.64999999    -553.65773     -184.14671     -456.02905    
     56000   28000          365.2554      -552.26387      6093.3015      7491.021       5268.495       2222.5259      1735.0039      1721.8016      3299.322       0             -4533.6015      0              0             -143.6595       173539.17      55.778372      55.778372      55.778372      0.64999999    -791.87875     -422.06233     -442.85053    
     57000   28500          362.94389     -890.62265      5157.0778      7411.1464      5235.1535      2175.9929      1698.5458      1721.7322      3316.6292      0             -4560.9143      0              0             -143.6595       173539.17      55.778372      55.778372      55.778372      0.64999999    -712.34541     -693.49957     -1266.023     
     58000   29000          362.98024     -438.74047      6329.7689      7440.173       5235.6777      2204.4953      1726.0336      1705.7028      3323.4792      0             -4550.7203      0              0             -143.6595       173539.17      55.778372      55.778372      55.778372      0.64999999    -715.73057     -342.7233      -257.76754    
     59000   29500          365.03868     -308.63945      6704.5688      7485.7015      5265.369       2220.3326      1703.1179      1738.6189      3279.8542      0             -4501.2585      0              0             -143.6595       173539.17      55.778372      55.778372      55.778372      0.64999999    -274.07509     -287.60777     -364.23547    
     60000   30000          364.80703     -729.3738       5855.4256      7701.391       5262.0276      2439.3634      1757.9016      1810.2204      3342.3984      0             -4471.1571      0              0             -143.6595       173539.17      55.778372      55.778372      55.778372      0.64999999    -114.20277     -901.44383     -1172.4748    
     61000   30500          371.30186     -714.30071      5892.4509      7700.268       5355.71        2344.558       1740.4823      1728.27        3339.1403      0             -4463.3345      0              0             -143.6595       173539.17      55.778372      55.778372      55.778372      0.64999999    -856.14163     -852.81993     -433.94057    
     62000   31000          358.60426     -938.99947      5071.4189      7447.9239      5172.558       2275.366       1708.5829      1770.8681      3292.6003      0             -4496.6853      0              0             -143.6595       173539.17      55.778372      55.778372      55.778372      0.64999999    -1143.5136     -281.82926     -1391.6556    
     63000   31500          369.75463     -419.43764      6648.113       7709.6638      5333.3925      2376.2714      1714.3844      1802.4355      3357.0512      0             -4497.5998      0              0             -143.6595       173539.17      55.778372      55.778372      55.778372      0.64999999    -556.13342     -428.52358     -273.65591    
     64000   32000          372.70327      24.229191      7666.9264      7605.605       5375.924       2229.681       1727.4422      1726.2203      3312.6587      0             -4536.6403      0              0             -143.6595       173539.17      55.778372      55.778372      55.778372      0.64999999    -161.31661      189.49546      44.508723    
     65000   32500          362.16849      75.915912      7694.3537      7502.2188      5223.969       2278.2498      1720.7543      1781.9141      3282.9339      0             -4507.3524      0              0             -143.6595       173539.17      55.778372      55.778372      55.778372      0.64999999     81.435477     -101.71498      248.02724    
     66000   33000          377.81056     -674.48846      6043.5058      7750.5623      5449.5923      2300.97        1787.4955      1738.1188      3316.2496      0             -4540.8938      0              0             -143.6595       173539.17      55.778372      55.778372      55.778372      0.64999999    -643.54034     -785.46931     -594.45573    
     67000   33500          369.02006     -644.89547      6115.5184      7747.6783      5322.7969      2424.8814      1788.3012      1787.2886      3359.9189      0             -4510.6272      0              0             -143.6595       173539.17      55.778372      55.778372      55.778372      0.64999999    -54.04939      -693.84689     -1186.7901    
     68000   34000          370.00879     -455.54032      6568.7901      7721.7129      5337.0585      2384.6543      1780.5929      1765.9957      3359.8466      0             -4521.7808      0              0             -143.6595       173539.17      55.778372      55.778372      55.778372      0.64999999    -705.57774     -497.30245     -163.74075    
     69000   34500          377.12922     -41.977799      7841.0974      7947.3386      5439.7645      2507.5741      1747.9968      1819.5414      3429.3213      0             -4489.2854      0              0             -143.6595       173539.17      55.778372      55.778372      55.778372      0.64999999     267.73464     -392.73321     -0.93482388   
     70000   35000          372.63055     -905.64024      5691.8637      7983.9402      5374.8751      2609.0651      1843.2927      1836.8266      3394.5545      0             -4465.6088      0              0             -143.6595       173539.17      55.778372      55.778372      55.778372      0.64999999    -993.18325     -561.60481     -1162.1327    
     71000   35500          369.91816     -72.38415       7718.5098      7901.7062      5335.7513      2565.9548      1838.2199      1763.3173      3434.0501      0             -4469.6325      0              0             -143.6595       173539.17      55.778372      55.778372      55.778372      0.64999999     30.776198     -5.953893      -241.97475    
     72000   36000          377.99701     -771.73487      6109.3752      8062.5518      5452.2817      2610.2701      1843.5693      1808.791       3442.5962      0             -4484.6864      0              0             -143.6595       173539.17      55.778372      55.778372      55.778372      0.64999999    -812.84458     -650.27952     -852.08051    
     73000   36500          380.49359     -163.32513      7659.2282      8072.5863      5488.2927      2584.2935      1821.3554      1812.098       3422.0438      0             -4471.2037      0              0             -143.6595       173539.17      55.778372      55.778372      55.778372      0.64999999    -0.44393145    -433.27803     -56.253436    
     74000   37000          380.14428     -58.89915       7942.1329      8091.2002      5483.2543      2607.9459      1885.2251      1768.1682      3422.1643      0             -4467.6116      0              0             -143.6595       173539.17      55.778372      55.778372      55.778372      0.64999999    -36.939965     -165.93579      26.178304    
     75000   37500          387.04998     -117.37543      7948.0196      8245.084       5582.863       2662.221       1816.9986      1831.1713      3443.1748      0             -4429.1237      0              0             -143.6595       173539.17      55.778372      55.778372      55.778372      0.64999999    -84.381062     -252.45081     -15.294431    
     76000   38000          378.46433     -285.74635      7299.4169      8022.6097      5459.0224      2563.5873      1837.0987      1804.8377      3373.711       0             -4452.06        0              0             -143.6595       173539.17      55.778372      55.778372      55.778372      0.64999999    -11.137829     -726.14338     -119.95785    
     77000   38500          382.84054     -345.05624      7347.1384      8220.438       5522.1455      2698.2926      1848.2856      1795.825       3480.9336      0             -4426.7516      0              0             -143.6595       173539.17      55.778372      55.778372      55.778372      0.64999999    -443.50706     -42.518696     -549.14297    
     78000   39000          379.7979      -380.10619      7148.2271      8110.2343      5478.258       2631.9763      1803.737       1805.749       3436.9778      0             -4414.4874      0              0             -143.6595       173539.17      55.778372      55.778372      55.778372      0.64999999    -254.71578      6.8479014     -892.45069    
     79000   39500          380.82749     -458.76648      7103.4596      8264.5474      5493.1089      2771.4385      1834.9866      1875.7194      3474.8891      0             -4414.1565      0              0             -143.6595       173539.17      55.778372      55.778372      55.778372      0.64999999     82.645855     -1004.0865     -454.85881    
     80000   40000          380.33893     -278.53275      7354.4123      8059.3483      5486.062       2573.2863      1811.0184      1778.5888      3423.9395      0             -4440.2603      0              0             -143.6595       173539.17      55.778372      55.778372      55.778372      0.64999999     331.45581     -402.09963     -764.95442    
     81000   40500          384.23529     -172.24721      7720.9093      8156.8481      5542.2635      2614.5847      1811.7672      1808.2612      3430.4585      0             -4435.9022      0              0             -143.6595       173539.17      55.778372      55.778372      55.778372      0.64999999    -40.060528     -383.83586     -92.845244    
     82000   41000          389.1444      -727.81583      6444.1801      8286.2025      5613.0732      2673.1293      1842.043       1828.5059      3437.6642      0             -4435.0839      0              0             -143.6595       173539.17      55.778372      55.778372      55.778372      0.64999999    -149.97165     -781.74488     -1251.731     
     83000   41500          390.16677     -44.937072      8240.7058      8354.4366      5627.82        2726.6166      1867.3834      1844.0951      3460.1139      0             -4444.9758      0              0             -143.6595       173539.17      55.778372      55.778372      55.778372      0.64999999    -223.09575     -375.95519      464.23972    
     84000   42000          382.49436     -423.40573      7259.6746      8331.2683      5517.1522      2814.1161      1911.1824      1867.1133      3482.2059      0             -4446.3856      0              0             -143.6595       173539.17      55.778372      55.778372      55.778372      0.64999999    -601.73449      121.34329     -789.826      
     85000   42500          387.84099     -465.832        7118.7424      8297.7123      5594.2727      2703.4396      1835.4185      1809.8394      3494.4582      0             -4436.2765      0              0             -143.6595       173539.17      55.778372      55.778372      55.778372      0.64999999    -193.66409     -717.53858     -486.29334    
     86000   43000          388.14737      186.13818      8777.6126      8306.5172      5598.692       2707.8252      1861.3999      1861.0232      3418.7439      0             -4433.3419      0              0             -143.6595       173539.17      55.778372      55.778372      55.778372      0.64999999     687.52344     -261.33741      132.22852    
     87000   43500          394.46137     -324.29548      7735.9802      8556.7366      5689.766       2866.9706      1917.3856      1838.8824      3533.9579      0             -4423.2552      0              0             -143.6595       173539.17      55.778372      55.778372      55.778372      0.64999999    -847.29241     -68.874276     -56.719752    
     88000   44000          390.29227     -488.0531       7121.9806      8357.1896      5629.6303      2727.5594      1876.3341      1853.6303      3435.2402      0             -4437.6451      0              0             -143.6595       173539.17      55.778372      55.778372      55.778372      0.64999999    -365.02554     -523.88544     -575.24832    
     89000   44500          392.68807     -605.44612      6953.2958      8485.6138      5664.1877      2821.4261      1909.9444      1913.7535      3437.1434      0             -4439.4152      0              0             -143.6595       173539.17      55.778372      55.778372      55.778372      0.64999999    -858.2964      -407.47104     -550.57093    
     90000   45000          395.99833     -539.93554      7208.917       8575.4349      5711.9352      2863.4996      1926.7584      1857.3379      3534.6614      0             -4455.2582      0              0             -143.6595       173539.17      55.778372      55.778372      55.778372      0.64999999    -298.44906     -607.71679     -713.64078    
     91000   45500          395.02186     -529.87057      7181.2932      8522.3377      5697.8505      2824.4872      1897.8461      1855.4867      3537.7263      0             -4466.5719      0              0             -143.6595       173539.17      55.778372      55.778372      55.778372      0.64999999    -481.75858     -595.39995     -512.45316    
     92000   46000          398.33548      186.85083      9070.9661      8598.067       5745.6467      2852.4204      1931.9814      1902.5068      3469.1782      0             -4451.246       0              0             -143.6595       173539.17      55.778372      55.778372      55.778372      0.64999999     204.76638      554.38968     -198.60358    
     93000   46500          404.43818     -997.11376      6346.6735      8870.2595      5833.6729      3036.5866      1973.9115      1987.7544      3501.6799      0             -4426.7592      0              0             -143.6595       173539.17      55.778372      55.778372      55.778372      0.64999999    -692.87617     -1570.4561     -728.00902    
     94000   47000          402.33996     -690.58274      6996.1355      8743.9249      5803.4079      2940.517       1957.8773      1924.9906      3519.8421      0             -4462.1931      0              0             -143.6595       173539.17      55.778372      55.778372      55.778372      0.64999999    -990.3244      -553.6045      -527.81931    
     95000   47500          395.20237     -195.40762      8185.564       8680.1193      5700.4542      2979.6651      1883.4655      1990.4745      3562.1418      0             -4456.4166      0              0             -143.6595       173539.17      55.778372      55.778372      55.778372      0.64999999    -223.27534      42.284028     -405.23153    
     96000   48000          401.4961       38.015098      8962.7701      8866.5581      5791.2359      3075.3221      1999.5737      1878.483       3571.0509      0             -4373.7855      0              0             -143.6595       173539.17      55.778372      55.778372      55.778372      0.64999999    -228.71939      263.7997       78.964986    
     97000   48500          404.3614      -620.08677      7384.9973      8954.3691      5832.5654      3121.8037      1975.6304      1914.9571      3636.2424      0             -4405.0262      0              0             -143.6595       173539.17      55.778372      55.778372      55.778372      0.64999999    -795.09623     -257.399       -807.7651     
     98000   49000          412.74492     -403.47677      8135.2409      9156.3965      5953.4904      3202.906       1999.1009      1940.6064      3628.2696      0             -4365.0709      0              0             -143.6595       173539.17      55.778372      55.778372      55.778372      0.64999999    -129.41228     -534.47624     -546.54178    
     99000   49500          408.93828     -309.71695      8183.4077      8967.2675      5898.583       3068.6845      2008.0745      1905.1678      3569.6157      0             -4414.1734      0              0             -143.6595       173539.17      55.778372      55.778372      55.778372      0.64999999    -470.62036     -275.61707     -182.91342    
    100000   50000          405.83139     -473.21722      7805.9937      9003.6548      5853.7688      3149.8861      1983.2621      1894.7156      3641.608       0             -4369.6997      0              0             -143.6595       173539.17      55.778372      55.778372      55.778372      0.64999999    -625.27359     -278.86578     -515.5123     
    101000   50500          404.08624     -315.65139      8152.2151      8951.0942      5828.5965      3122.4977      1959.2543      1874.5982      3641.0763      0             -4352.431       0              0             -143.6595       173539.17      55.778372      55.778372      55.778372      0.64999999    -502.64362     -216.30258     -228.00797    
    102000   51000          401.82342      64.766267      9142.9612      8979.0448      5795.9572      3183.0876      1978.0628      1875.662       3717.1334      0             -4387.7706      0              0             -143.6595       173539.17      55.778372      55.778372      55.778372      0.64999999     5.8576674      112.97911      75.462023    
    103000   51500          409.87387      15.475102      9201.1305      9161.9647      5912.078       3249.8867      2026.2442      1940.9168      3659.1631      0             -4376.4374      0              0             -143.6595       173539.17      55.778372      55.778372      55.778372      0.64999999    -179.59833      115.35078      110.67286    
    104000   52000          409.19285     -111.10906      8921.7998      9203.0046      5902.2549      3300.7498      2034.6707      1966.347       3636.7967      0             -4337.0647      0              0             -143.6595       173539.17      55.778372      55.778372      55.778372      0.64999999    -497.4924       449.21128     -285.04606    
    105000   52500          410.00439     -537.75237      7772.5328      9133.5252      5913.9607      3219.5646      1944.6013      1935.3502      3692.3785      0             -4352.7654      0              0             -143.6595       173539.17      55.778372      55.778372      55.778372      0.64999999    -197.19549     -567.31909     -848.74252    
    106000   53000          407.55232     -542.59877      7767.4821      9140.7403      5878.5916      3262.1486      1977.2811      1942.4118      3679.955       0             -4337.4993      0              0             -143.6595       173539.17      55.778372      55.778372      55.778372      0.64999999    -871.04751     -503.91564     -252.83315    
    107000   53500          407.16895     -959.12687      6889.8773      9317.3226      5873.0619      3444.2607      2008.5061      2037.1063      3706.2998      0             -4307.6515      0              0             -143.6595       173539.17      55.778372      55.778372      55.778372      0.64999999    -976.74141     -635.52428     -1265.1149    
    108000   54000          411.48594     -703.59995      7627.9823      9408.7168      5935.3307      3473.3862      2083.5324      1979.7177      3707.578       0             -4297.4419      0              0             -143.6595       173539.17      55.778372      55.778372      55.778372      0.64999999    -554.93747     -457.90275     -1097.9596    
    109000   54500          411.76101     -225.55074      8703.4218      9274.2661      5939.2984      3334.9677      2005.7083      1970.5461      3702.9849      0             -4344.2716      0              0             -143.6595       173539.17      55.778372      55.778372      55.778372      0.64999999     15.463023     -349.80311     -342.31214    
    110000   55000          415.03886     -694.36324      7725.8897      9483.2472      5986.5786      3496.6686      2106.4504      2010.4522      3680.3877      0             -4300.6217      0              0             -143.6595       173539.17      55.778372      55.778372      55.778372      0.64999999    -1337.1997     -264.52269     -481.3673     
    111000   55500          409.91421     -23.667221      9256.2262      9316.1254      5912.6599      3403.4655      2038.6262      1956.5192      3735.5813      0             -4327.2613      0              0             -143.6595       173539.17      55.778372      55.778372      55.778372      0.64999999     151.34302     -125.25907     -97.08562     
    112000   56000          418.88293     -291.87915      8836.7838      9575.4981      6042.0259      3533.4721      2065.9932      2032.8804      3779.2376      0             -4344.6391      0              0             -143.6595       173539.17      55.778372      55.778372      55.778372      0.64999999    -316.07603     -347.03511     -212.52632    
    113000   56500          420.76309     -354.29706      8531.8473      9428.5344      6069.1456      3359.3888      1992.6688      1974.043       3713.7111      0             -4321.0341      0              0             -143.6595       173539.17      55.778372      55.778372      55.778372      0.64999999    -671.03604     -459.0055       67.150344    
    114000   57000          420.30721     -466.12786      8383.7038      9563.4225      6062.57        3500.8525      1993.6789      2054.4959      3793.0187      0             -4340.341       0              0             -143.6595       173539.17      55.778372      55.778372      55.778372      0.64999999    -370.03634     -307.41233     -720.93492    
    115000   57500          416.21348     -168.43642      9064.1902      9490.4844      6003.5214      3486.963       1993.1362      1989.3499      3839.6567      0             -4335.1799      0              0             -143.6595       173539.17      55.778372      55.778372      55.778372      0.64999999     115.78971     -477.17102     -143.92794    
    116000   58000          415.52839     -857.563        7384.7929      9555.1912      5993.6395      3561.5516      2118.9117      1988.3373      3761.3693      0             -4307.0666      0              0             -143.6595       173539.17      55.778372      55.778372      55.778372      0.64999999    -582.83501     -858.3348      -1131.5192    
    117000   58500          419.78008      137.75031      9952.9799      9604.3489      6054.9666      3549.3823      2054.3382      1985.4246      3782.925       0             -4273.3055      0              0             -143.6595       173539.17      55.778372      55.778372      55.778372      0.64999999     178.3812       377.9338      -143.06407    
    118000   59000          423.26066     -542.51192      8335.4962      9708.5346      6105.1709      3603.3637      2150.3151      2030.0979      3729.4582      0             -4306.5075      0              0             -143.6595       173539.17      55.778372      55.778372      55.778372      0.64999999    -200.93524     -938.05356     -488.54695    
    119000   59500          419.46005     -1048.336       7011.8154      9665.0392      6050.3504      3614.6888      2104.169       2039.5584      3805.8626      0             -4334.9012      0              0             -143.6595       173539.17      55.778372      55.778372      55.778372      0.64999999    -788.8162      -1624.1024     -732.08935    
    120000   60000          439.08293     -702.53931      8112.1448      9890.195       6333.3936      3556.8014      2023.9941      2022.209       3767.8626      0             -4257.2642      0              0             -143.6595       173539.17      55.778372      55.778372      55.778372      0.64999999    -650.83706     -462.65252     -994.12836    
    121000   60500          428.91379     -443.39119      8770.8849      9893.0595      6186.7124      3706.3471      2151.6916      2049.9114      3769.8025      0             -4265.0584      0              0             -143.6595       173539.17      55.778372      55.778372      55.778372      0.64999999    -866.9609      -290.62888     -172.58379    
    122000   61000          438.10881     -573.43367      8546.0539      9997.3519      6319.3428      3678.0091      2080.8846      2063.933       3825.0396      0             -4291.8481      0              0             -143.6595       173539.17      55.778372      55.778372      55.778372      0.64999999    -548.09398     -641.65855     -530.54847    
    123000   61500          440.45199     -784.96949      8026.45        10013.122      6353.1411      3659.9809      2082.3628      2070.75        3798.8662      0             -4291.9981      0              0             -143.6595       173539.17      55.778372      55.778372      55.778372      0.64999999    -611.11059     -1143.0613     -600.7366     
    124000   62000          427.41177     -281.60293      9175.9635      9888.6698      6165.0471      3723.6227      2131.895       2084.7755      3797.0382      0             -4290.0861      0              0             -143.6595       173539.17      55.778372      55.778372      55.778372      0.64999999    -473.19886     -386.23784      14.627921    
    125000   62500          431.0856      -563.89769      8315.1746      9742.3381      6218.039       3524.2991      2019.196       2067.504       3743.0705      0             -4305.4714      0              0             -143.6595       173539.17      55.778372      55.778372      55.778372      0.64999999    -314.22779     -629.10993     -748.35536    
    126000   63000          442.1088      -132.39919      9650.6027      9985.6906      6377.0392      3608.6514      2021.9559      2053.8631      3796.7396      0             -4263.9071      0              0             -143.6595       173539.17      55.778372      55.778372      55.778372      0.64999999     80.213206      29.964915     -507.37569    
    127000   63500          437.4326      -797.8122       7996.4221      10015.598      6309.5889      3706.0086      2096.2806      2106.9089      3812.7701      0             -4309.951       0              0             -143.6595       173539.17      55.778372      55.778372      55.778372      0.64999999    -914.03635     -1236.1185     -243.28174    
    128000   64000          446.49069     -974.68307      7915.1861      10382.002      6440.2441      3941.7584      2157.3082      2136.5929      3931.8668      0             -4284.0096      0              0             -143.6595       173539.17      55.778372      55.778372      55.778372      0.64999999    -1039.7511     -1358.959      -525.33919    
    129000   64500          434.41101     -386.88959      8988.3281      9967.5034      6266.0052      3701.4982      2024.1459      2044.958       3896.7187      0             -4264.3244      0              0             -143.6595       173539.17      55.778372      55.778372      55.778372      0.64999999    -153.33821     -907.30516     -100.0254     
    130000   65000          433.37209     -502.3151       8847.6442      10118.949      6251.0196      3867.9292      2193.0205      2039.43        3863.6513      0             -4228.1726      0              0             -143.6595       173539.17      55.778372      55.778372      55.778372      0.64999999    -464.78398     -155.22163     -886.93968    
    131000   65500          451.39838     -617.60459      8770.9511      10334.041      6511.0334      3823.0075      2080.9476      2101.8871      3916.3367      0             -4276.1639      0              0             -143.6595       173539.17      55.778372      55.778372      55.778372      0.64999999    -816.2761      -321.72548     -714.81219    
    132000   66000          440.89561     -242.02583      9577.3122      10189.853      6359.54        3830.3132      2128.9937      2085.8567      3889.2793      0             -4273.8165      0              0             -143.6595       173539.17      55.778372      55.778372      55.778372      0.64999999    -661.37463     -234.61237      169.90951    
    133000   66500          438.43762     -368.01304      9043.6675      9975.0683      6324.0855      3650.9828      2044.3614      2048.271       3834.2965      0             -4275.9461      0              0             -143.6595       173539.17      55.778372      55.778372      55.778372      0.64999999    -401.62358     -35.010909     -667.40463    
    134000   67000          443.61031     -379.70761      9376.0484      10337.047      6398.6972      3938.3497      2160.1814      2124.6325      3889.4793      0             -4235.9435      0              0             -143.6595       173539.17      55.778372      55.778372      55.778372      0.64999999    -611.03855      51.20086      -579.28515    
    135000   67500          447.33889     -257.69046      9484.5756      10136.762      6452.4787      3684.2834      2014.2743      2136.8732      3774.5853      0             -4241.4494      0              0             -143.6595       173539.17      55.778372      55.778372      55.778372      0.64999999    -152.92784      13.000441     -633.14399    
    136000   68000          438.04199     -392.09374      9217.8702      10210.217      6318.379       3891.8376      2112.6203      2157.8442      3856.7438      0             -4235.3707      0              0             -143.6595       173539.17      55.778372      55.778372      55.778372      0.64999999    -247.81944     -483.75858     -444.70321    
    137000   68500          440.78404     -500.36626      8978.103       10244.475      6357.9307      3886.5447      2079.2754      2160.148       3885.0703      0             -4237.9491      0              0             -143.6595       173539.17      55.778372      55.778372      55.778372      0.64999999    -778.81871     -422.22794     -300.05213    
    138000   69000          450.9455       21.713226      10440.681      10385.727      6504.501       3881.2263      2116.4136      2111.5275      3906.9211      0             -4253.6359      0              0             -143.6595       173539.17      55.778372      55.778372      55.778372      0.64999999     374.53757     -172.55414     -136.84375    
    139000   69500          444.58304     -269.26482      9677.0694      10358.549      6412.7279      3945.8213      2125.7244      2158.6661      3847.8118      0             -4186.3809      0              0             -143.6595       173539.17      55.778372      55.778372      55.778372      0.64999999    -474.51353     -193.32246     -139.95848    
    140000   70000          440.98139     -199.96122      9779.4291      10285.509      6360.7772      3924.7319      2066.5028      2182.1419      3867.2315      0             -4191.1444      0              0             -143.6595       173539.17      55.778372      55.778372      55.778372      0.64999999    -53.737929      260.93977     -807.08549    
    141000   70500          451.19901     -363.27773      9609.2503      10528.667      6508.1576      4020.509       2127.9301      2133.6825      3971.871       0             -4212.9746      0              0             -143.6595       173539.17      55.778372      55.778372      55.778372      0.64999999    -744.03721     -180.53185     -165.26413    
    142000   71000          453.56465     -450.3946       9376.7423      10516.642      6542.2799      3974.362       2124.2655      2079.0862      3946.5378      0             -4175.5276      0              0             -143.6595       173539.17      55.778372      55.778372      55.778372      0.64999999    -257.19841     -465.32447     -628.66091    
    143000   71500          450.75261     -601.89995      9145.7806      10669.124      6501.7186      4167.405       2223.2733      2150.2722      3985.6268      0             -4191.7673      0              0             -143.6595       173539.17      55.778372      55.778372      55.778372      0.64999999    -668.50155     -1054.0905     -83.107769    
    144000   72000          459.39107     -513.85334      9354.0347      10654.541      6626.321       4028.2204      2167.0367      2115.7129      3972.3977      0             -4226.927       0              0             -143.6595       173539.17      55.778372      55.778372      55.778372      0.64999999    -496.50206     -705.91958     -339.13839    
    145000   72500          460.30224     -328.62252      9913.9196      10745.627      6639.4638      4106.1635      2147.9816      2183.8519      3948.3678      0             -4174.0378      0              0             -143.6595       173539.17      55.778372      55.778372      55.778372      0.64999999    -353.1941      -100.44509     -532.22837    
    146000   73000          453.88487     -348.25742      9825.3166      10706.718      6546.8988      4159.8192      2155.909       2199.1603      3961.5568      0             -4156.8069      0              0             -143.6595       173539.17      55.778372      55.778372      55.778372      0.64999999    -1220.5528     -195.14572      370.92626    
    147000   73500          451.26846     -514.5712       9374.7936      10677.117      6509.1594      4167.9577      2223.9845      2120.825       4029.8945      0             -4206.7463      0              0             -143.6595       173539.17      55.778372      55.778372      55.778372      0.64999999    -70.264328     -1018.9898     -454.45944    
    148000   74000          450.97896     -794.45567      8649.2622      10659.943      6504.9836      4154.9591      2144.1496      2158.007       4053.2132      0             -4200.4107      0              0             -143.6595       173539.17      55.778372      55.778372      55.778372      0.64999999    -625.34867     -1167.2174     -590.80092    
    149000   74500          456.98038     -582.30853      9265.4155      10739.175      6591.5489      4147.6259      2124.9106      2188.8934      4005.9038      0             -4172.082       0              0             -143.6595       173539.17      55.778372      55.778372      55.778372      0.64999999    -654.74839     -356.2155      -735.96171    
    150000   75000          463.32587     -163.95665      10603.182      11018.139      6683.0772      4335.0614      2215.2628      2189.0611      4075.2278      0             -4144.4903      0              0             -143.6595       173539.17      55.778372      55.778372      55.778372      0.64999999    -333.17244      17.162075     -175.85959    
    151000   75500          459.78998     -452.94311      9850.6732      10997.023      6632.075       4364.9477      2177.6773      2229.4564      4112.1166      0             -4154.3026      0              0             -143.6595       173539.17      55.778372      55.778372      55.778372      0.64999999    -241.45806     -456.69226     -660.67902    
    152000   76000          476.84231      210.43006      11716.258      11183.682      6878.0401      4305.6421      2182.4877      2177.4519      4121.3463      0             -4175.6438      0              0             -143.6595       173539.17      55.778372      55.778372      55.778372      0.64999999     701.99815     -273.67424      202.96627    
    153000   76500          460.18285     -1059.4263      8031.8168      10713.109      6637.7418      4075.3671      2111.8617      2200.6044      3979.265       0             -4216.364       0              0             -143.6595       173539.17      55.778372      55.778372      55.778372      0.64999999    -807.00275     -1189.0645     -1182.2116    
    154000   77000          455.56884     -241.9422       10166.927      10779.256      6571.1886      4208.0674      2099.4448      2218.8486      4060.4514      0             -4170.6774      0              0             -143.6595       173539.17      55.778372      55.778372      55.778372      0.64999999     88.050681     -539.73236     -274.14491    
    155000   77500          462.89072     -204.0916       10356.891      10873.425      6676.8005      4196.6243      2112.636       2187.4334      4069.9162      0             -4173.3614      0              0             -143.6595       173539.17      55.778372      55.778372      55.778372      0.64999999     92.364976     -342.18347     -362.45631    
    156000   78000          460.60906     -746.05479      9168.2961      11056.479      6643.8895      4412.5897      2202.4431      2216.9413      4172.7957      0             -4179.5904      0              0             -143.6595       173539.17      55.778372      55.778372      55.778372      0.64999999    -717.06668     -817.67888     -703.41879    
    157000   78500          467.79552     -328.55943      10282.028      11113.576      6747.548       4366.0285      2198.0647      2238.3564      4062.0812      0             -4132.4738      0              0             -143.6595       173539.17      55.778372      55.778372      55.778372      0.64999999     42.245476     -767.38866     -260.5351     
    158000   79000          451.5752      -84.144014      10656.395      10869.354      6513.5838      4355.7705      2198.8647      2249.7315      4062.953       0             -4155.7787      0              0             -143.6595       173539.17      55.778372      55.778372      55.778372      0.64999999     299.89415     -505.81401     -46.512187    
    159000   79500          467.57642     -561.04501      9739.108       11159.052      6744.3876      4414.664       2252.2146      2240.2019      4099.9717      0             -4177.7242      0              0             -143.6595       173539.17      55.778372      55.778372      55.778372      0.64999999    -727.91603     -260.32107     -694.89794    
    160000   80000          467.31403     -484.72582      9900.0118      11126.8        6740.6029      4386.1971      2182.134       2269.7893      4065.9585      0             -4131.6848      0              0             -143.6595       173539.17      55.778372      55.778372      55.778372      0.64999999     60.579188     -822.59357     -692.16309    
    161000   80500          469.97581     -930.75968      8832.4428      11188.094      6778.9968      4409.0971      2274.9234      2243.5073      4060.4403      0             -4169.7739      0              0             -143.6595       173539.17      55.778372      55.778372      55.778372      0.64999999    -875.13931     -883.13655     -1034.0032    
    162000   81000          474.03844     -252.37804      10617.68       11256.421      6837.5968      4418.8244      2215.9856      2266.6149      4074.8216      0             -4138.5977      0              0             -143.6595       173539.17      55.778372      55.778372      55.778372      0.64999999    -215.55396     -100.11944     -441.46072    
    163000   81500          474.24396      73.823828      11627.25       11440.41       6840.5612      4599.8492      2234.8995      2300.1819      4234.8191      0             -4170.0512      0              0             -143.6595       173539.17      55.778372      55.778372      55.778372      0.64999999     322.04065     -118.16806      17.598893    
    164000   82000          470.28221     -287.60098      10722.409      11450.296      6783.4163      4666.8796      2247.0362      2277.949       4264.9567      0             -4123.0624      0              0             -143.6595       173539.17      55.778372      55.778372      55.778372      0.64999999    -831.48789     -203.11064      171.79558    
    165000   82500          484.43313      53.050712      11769.546      11635.28       6987.5312      4647.7489      2281.2554      2274.6312      4224.2941      0             -4132.4318      0              0             -143.6595       173539.17      55.778372      55.778372      55.778372      0.64999999    -223.05732      30.115381      352.09407    
    166000   83000          485.84167     -478.88215      10269.591      11481.59       7007.8482      4473.7415      2196.1613      2238.2016      4160.1245      0             -4120.7459      0              0             -143.6595       173539.17      55.778372      55.778372      55.778372      0.64999999    -299.70254     -901.47858     -235.46533    
    167000   83500          477.14042     -1030.5406      8863.7368      11471.923      6882.3402      4589.5824      2263.7828      2300.4478      4175.2971      0             -4149.9453      0              0             -143.6595       173539.17      55.778372      55.778372      55.778372      0.64999999    -903.29114     -1105.6941     -1082.6366    
    168000   84000          479.01388     -53.144749      11400.792      11535.296      6909.3633      4625.9327      2253.2548      2316.9219      4186.0539      0             -4130.298       0              0             -143.6595       173539.17      55.778372      55.778372      55.778372      0.64999999    -231.06278     -400.10607      471.73461    
    169000   84500          481.96647     -269.25319      10943.526      11624.977      6951.9518      4673.025       2249.1716      2351.2431      4175.041       0             -4102.4308      0              0             -143.6595       173539.17      55.778372      55.778372      55.778372      0.64999999     596.81871     -705.3         -699.27828    
    170000   85000          477.91565     -692.53893      9762.842       11515.582      6893.5221      4622.0602      2274.0146      2268.7307      4168.1755      0             -4088.8606      0              0             -143.6595       173539.17      55.778372      55.778372      55.778372      0.64999999    -405.22019     -946.19624     -726.20038    
    171000   85500          481.97163     -62.237306      11438.652      11596.168      6952.0263      4644.1419      2252.6512      2287.8369      4179.6147      0             -4075.9608      0              0             -143.6595       173539.17      55.778372      55.778372      55.778372      0.64999999    -360.24532      34.71522       138.81818    
    172000   86000          481.16346     -467.63633      10502.796      11686.333      6940.3691      4745.9637      2320.5747      2355.704       4168.1428      0             -4098.4578      0              0             -143.6595       173539.17      55.778372      55.778372      55.778372      0.64999999    -634.8219      -347.12884     -420.95824    
    173000   86500          477.20529     -211.72977      11087.563      11623.428      6883.2758      4740.1524      2320.7331      2312.0045      4220.7866      0             -4113.3717      0              0             -143.6595       173539.17      55.778372      55.778372      55.778372      0.64999999    -524.7496       24.351377     -134.7911     
    174000   87000          486.73704     -546.93922      10404.266      11788.509      7020.7632      4767.7459      2332.1724      2355.4667      4205.8613      0             -4125.7546      0              0             -143.6595       173539.17      55.778372      55.778372      55.778372      0.64999999    -531.47251     -805.97522     -303.36992    
    175000   87500          490.62423     -522.54109      10451.446      11773.94       7076.8324      4697.108       2324.1678      2295.1392      4151.8434      0             -4074.0424      0              0             -143.6595       173539.17      55.778372      55.778372      55.778372      0.64999999    -701.85989     -274.05831     -591.70508    
    176000   88000          483.47863     -999.16774      9328.0747      11856.859      6973.7634      4883.0957      2339.138       2333.1823      4338.0022      0             -4127.2269      0              0             -143.6595       173539.17      55.778372      55.778372      55.778372      0.64999999    -1451.4023     -1030.6815     -515.41947    
    177000   88500          487.1002      -402.3862       10874.299      11892.694      7026.0013      4866.6929      2346.7384      2349.7107      4253.605       0             -4083.3611      0              0             -143.6595       173539.17      55.778372      55.778372      55.778372      0.64999999    -343.59955     -505.46587     -358.09317    
    178000   89000          500.00373     -529.67271      10707.714      12048.258      7212.1238      4836.1339      2314.7224      2375.1735      4187.1776      0             -4040.9395      0              0             -143.6595       173539.17      55.778372      55.778372      55.778372      0.64999999    -692.72567     -326.12484     -570.16762    
    179000   89500          493.33413     -605.44245      10340.515      11872.823      7115.9205      4756.903       2311.5998      2388.8144      4114.2297      0             -4057.7409      0              0             -143.6595       173539.17      55.778372      55.778372      55.778372      0.64999999    -632.43987     -509.7996      -674.08789    
    180000   90000          492.26764     -637.13376      10420.507      12033.023      7100.5373      4932.4858      2376.5434      2327.9019      4247.6939      0             -4019.6535      0              0             -143.6595       173539.17      55.778372      55.778372      55.778372      0.64999999    -517.12379     -322.08357     -1072.1939    
    181000   90500          491.34057     -539.08976      10661.27       12025.647      7087.1651      4938.4822      2317.3774      2384.2986      4265.882       0             -4029.0758      0              0             -143.6595       173539.17      55.778372      55.778372      55.778372      0.64999999    -396.21508     -1338.704       117.64983    
    182000   91000          487.23332     -274.35867      11267.233      11961.605      7027.9216      4933.6835      2364.6113      2373.7728      4224.9152      0             -4029.6158      0              0             -143.6595       173539.17      55.778372      55.778372      55.778372      0.64999999    -344.09486      192.66239     -671.64354    
    183000   91500          509.93684     -346.51474      11348.391      12225.382      7355.4003      4869.9817      2321.0936      2345.7723      4219.8558      0             -4016.7401      0              0             -143.6595       173539.17      55.778372      55.778372      55.778372      0.64999999    -380.97666     -637.26747     -21.300097    
    184000   92000          494.90452     -1058.6906      9304.3513      11983.782      7138.572       4845.2095      2312.8892      2318.2863      4233.1829      0             -4019.1489      0              0             -143.6595       173539.17      55.778372      55.778372      55.778372      0.64999999    -1083.3348     -1059.9276     -1032.8095    
    185000   92500          498.52026     -785.67334      10191.223      12179.677      7190.7259      4988.9507      2367.6874      2389.0628      4270.9017      0             -4038.7013      0              0             -143.6595       173539.17      55.778372      55.778372      55.778372      0.64999999    -760.51333     -1137.037      -459.46973    
    186000   93000          491.6694      -33.606345      12071.38       12156.434      7091.9081      5064.5259      2414.1533      2359.5481      4280.8263      0             -3990.0018      0              0             -143.6595       173539.17      55.778372      55.778372      55.778372      0.64999999     240.63536     -147.69152     -193.76288    
    187000   93500          500.80679     -507.72212      11028.11       12313.099      7223.7072      5089.3915      2400.6763      2419.2082      4241.2971      0             -3971.7901      0              0             -143.6595       173539.17      55.778372      55.778372      55.778372      0.64999999    -1037.3553     -87.077256     -398.73377    
    188000   94000          489.48134     -635.25008      10534.358      12142.106      7060.3473      5081.7588      2365.2457      2411.4883      4264.7817      0             -3959.7569      0              0             -143.6595       173539.17      55.778372      55.778372      55.778372      0.64999999    -758.49226     -685.20435     -462.05364    
    189000   94500          504.08107     -124.11969      12137.056      12451.189      7270.9358      5180.2533      2450.7862      2430.6793      4307.5856      0             -4008.7978      0              0             -143.6595       173539.17      55.778372      55.778372      55.778372      0.64999999     330.55745      18.448768     -721.36529    
    190000   95000          513.18365     -167.93851      12092.785      12517.819      7402.2327      5115.5859      2401.0743      2377.6867      4344.905       0             -4008.0801      0              0             -143.6595       173539.17      55.778372      55.778372      55.778372      0.64999999    -456.76004     -60.370619      13.315125    
    191000   95500          508.7965      -456.21004      11266.002      12420.619      7338.9518      5081.6677      2342.0744      2482.9292      4250.7635      0             -3994.0994      0              0             -143.6595       173539.17      55.778372      55.778372      55.778372      0.64999999    -195.12268     -130.30034     -1043.2071    
    192000   96000          502.44148     -454.90047      11172.039      12323.343      7247.2862      5076.0565      2384.4786      2367.8749      4320.2933      0             -3996.5903      0              0             -143.6595       173539.17      55.778372      55.778372      55.778372      0.64999999    -408.8725      -1298.4689      342.63999    
    193000   96500          502.1834      -27.46255       12357.27       12426.774      7243.5636      5183.2109      2461.2517      2377.0497      4357.8277      0             -4012.9183      0              0             -143.6595       173539.17      55.778372      55.778372      55.778372      0.64999999     848.00635     -557.01437     -373.37963    
    194000   97000          500.05732     -855.48564      10196.546      12361.686      7212.8967      5148.7898      2378.357       2400.6056      4358.7341      0             -3988.9069      0              0             -143.6595       173539.17      55.778372      55.778372      55.778372      0.64999999    -683.25961     -947.04283     -936.15449    
    195000   97500          506.60457     -640.11127      10946.813      12566.865      7307.3352      5259.5296      2458.3183      2427.3192      4387.7425      0             -4013.8505      0              0             -143.6595       173539.17      55.778372      55.778372      55.778372      0.64999999    -1458.6748     -419.90898     -41.750038    
    196000   98000          511.69226     -730.24845      10812.087      12660.266      7380.7208      5279.5449      2389.6094      2470.7458      4387.5596      0             -3968.3699      0              0             -143.6595       173539.17      55.778372      55.778372      55.778372      0.64999999    -585.03334     -433.2978      -1172.4142    
    197000   98500          513.3328       223.91388      13041.079      12474.377      7404.3841      5069.9929      2418.3729      2297.6158      4311.5492      0             -3957.545       0              0             -143.6595       173539.17      55.778372      55.778372      55.778372      0.64999999     518.85859      404.19251     -251.30946    
    198000   99000          512.4851       285.09242      13389.015      12667.477      7392.1568      5275.3201      2507.012       2403.2835      4304.2626      0             -3939.238       0              0             -143.6595       173539.17      55.778372      55.778372      55.778372      0.64999999     818.94262      320.79753     -284.4629     
    199000   99500          503.65523     -706.51696      10720.245      12508.363      7264.7934      5243.5691      2426.974       2429.3429      4348.0549      0             -3960.8027      0              0             -143.6595       173539.17      55.778372      55.778372      55.778372      0.64999999    -747.51347     -438.1606      -933.87682    
    200000   100000         506.85707     -224.99917      12032.1        12601.548      7310.9772      5290.5712      2491.3087      2459.1693      4307.2995      0             -3967.2063      0              0             -143.6595       173539.17      55.778372      55.778372      55.778372      0.64999999    -425.57023      325.61681     -575.04409    
    201000   100500         515.42667     -189.87798      12292.72       12773.281      7434.5864      5338.6945      2490.4418      2458.0768      4340.5232      0             -3950.3474      0              0             -143.6595       173539.17      55.778372      55.778372      55.778372      0.64999999    -134.5994       134.89065     -569.92519    
[...]
    258000   129000         564.60059     -613.24768      13177.073      14729.136      8143.8778      6585.2578      2848.4653      2834.2645      4779.1333      0             -3876.6053      0              0             -143.6595       173539.17      55.778372      55.778372      55.778372      0.64999999    -478.6981      -1207.8423     -153.2026     
    259000   129500         591.40923     -196.49893      14388.782      14886.099      8530.5694      6355.5294      2825.1573      2699.7214      4718.6875      0             -3888.0368      0              0             -143.6595       173539.17      55.778372      55.778372      55.778372      0.64999999     36.361533     -310.24491     -315.61342    
    260000   130000         573.82164     -19.263356      14486.646      14535.4        8276.8836      6258.516       2711.8119      2675.7142      4759.001       0             -3888.011       0              0             -143.6595       173539.17      55.778372      55.778372      55.778372      0.64999999    -145.09841      194.37408     -107.06574    
    261000   130500         574.94768     -575.09359      13273.659      14729.158      8293.1257      6436.0319      2729.5137      2732.2643      4831.9372      0             -3857.6832      0              0             -143.6595       173539.17      55.778372      55.778372      55.778372      0.64999999    -220.88722     -662.21392     -842.17964    
    262000   131000         576.04326     -590.30301      13454.311      14948.303      8308.9286      6639.3744      2869.5919      2739.4538      4875.484       0             -3845.1552      0              0             -143.6595       173539.17      55.778372      55.778372      55.778372      0.64999999     15.998179     -1054.3065     -732.60073    
    263000   131500         584.61026     -463.69808      13818.474      14992.043      8432.5001      6559.543       2775.8686      2818.8383      4844.9648      0             -3880.1287      0              0             -143.6595       173539.17      55.778372      55.778372      55.778372      0.64999999    -777.01574     -521.09914     -92.979372    
    264000   132000         574.1745      -215.27334      14157.924      14702.757      8281.9733      6420.784       2845.3297      2630.8791      4806.0422      0             -3861.467       0              0             -143.6595       173539.17      55.778372      55.778372      55.778372      0.64999999    -551.00309     -259.36126      164.54432    
    265000   132500         578.79789     -393.35155      13864.555      14860.084      8348.6617      6511.4225      2780.9148      2844.9113      4722.074       0             -3836.4775      0              0             -143.6595       173539.17      55.778372      55.778372      55.778372      0.64999999    -788.89592     -372.23533     -18.923411    
    266000   133000         584.91087      38.721309      15043.104      14945.104      8436.8361      6508.2683      2859.2847      2759.3315      4743.1849      0             -3853.5328      0              0             -143.6595       173539.17      55.778372      55.778372      55.778372      0.64999999     549.44002      43.608233     -476.88432    
    267000   133500         586.72703     -119.51623      14804.627      15107.11       8463.0328      6644.0772      2908.571       2740.6103      4851.1386      0             -3856.2427      0              0             -143.6595       173539.17      55.778372      55.778372      55.778372      0.64999999    -159.37014     -249.16038      49.981846    
    268000   134000         584.12977     -208.22285      14515.756      15042.746      8425.5694      6617.1763      2825.4946      2796.61        4885.9645      0             -3890.8928      0              0             -143.6595       173539.17      55.778372      55.778372      55.778372      0.64999999    -290.76656     -349.00528      15.103281    
    269000   134500         587.44359     -702.34802      13224.021      15001.587      8473.3684      6528.2184      2883.4217      2711.2871      4774.6482      0             -3841.1387      0              0             -143.6595       173539.17      55.778372      55.778372      55.778372      0.64999999    -727.7595      -1060.6988     -318.58581    
    270000   135000         591.91751     -209.82949      14614.853      15145.909      8537.9009      6608.008       2858.1097      2742.3122      4834.0877      0             -3826.5017      0              0             -143.6595       173539.17      55.778372      55.778372      55.778372      0.64999999    -37.15529      -393.4057      -198.92749    
    271000   135500         597.68782      533.78515      16598.414      15247.463      8621.1327      6626.3299      2847.7321      2760.1031      4857.9967      0             -3839.5019      0              0             -143.6595       173539.17      55.778372      55.778372      55.778372      0.64999999     469.26352      1220.0254     -87.933487    
    272000   136000         598.96877     -522.10336      13898.656      15220.042      8639.6094      6580.433       2812.24        2704.7425      4855.1894      0             -3791.7389      0              0             -143.6595       173539.17      55.778372      55.778372      55.778372      0.64999999    -931.45888     -376.39754     -258.45367    
    273000   136500         588.36378      120.77068      15619.346      15313.688      8486.6415      6827.0468      2928.9013      2753.7334      5013.8042      0             -3869.3921      0              0             -143.6595       173539.17      55.778372      55.778372      55.778372      0.64999999     74.43858      -240.6407       528.51417    
    274000   137000         598.28344     -264.22832      14585.386      15254.119      8629.724       6624.3951      2762.3231      2796.3468      4880.9093      0             -3815.1841      0              0             -143.6595       173539.17      55.778372      55.778372      55.778372      0.64999999     349.27336     -798.4504      -343.50792    
    275000   137500         600.92489      259.31464      16195.192      15538.895      8667.8246      6871.0702      2924.128       2867.1441      4909.0608      0             -3829.2627      0              0             -143.6595       173539.17      55.778372      55.778372      55.778372      0.64999999     365.293       -106.98727      519.63819    
    276000   138000         584.21363     -588.78913      13490.62       14980.781      8426.7791      6554.0017      2766.2998      2788.8668      4844.096       0             -3845.2609      0              0             -143.6595       173539.17      55.778372      55.778372      55.778372      0.64999999    -787.43418     -505.71403     -473.21918    
    277000   138500         587.1114      -187.40782      14692.56       15166.869      8468.5769      6698.2917      2808.8103      2855.5987      4861.4638      0             -3827.5811      0              0             -143.6595       173539.17      55.778372      55.778372      55.778372      0.64999999     177.36856     -316.99463     -422.5974     
    278000   139000         596.02769     -135.54167      14891.646      15234.687      8597.1868      6637.5005      2793.4822      2814.1571      4827.3284      0             -3797.4672      0              0             -143.6595       173539.17      55.778372      55.778372      55.778372      0.64999999    -82.721996     -182.3471      -141.55592    
    279000   139500         604.0103      -102.81115      15182.191      15442.395      8712.329       6730.066       2823.9197      2798.7857      4928.0915      0             -3820.7308      0              0             -143.6595       173539.17      55.778372      55.778372      55.778372      0.64999999     266.23637     -323.01371     -251.6561     
    280000   140000         601.09447     -413.33102      14505.047      15551.143      8670.2707      6880.8721      2826.9136      2870.7189      5002.2324      0             -3818.9929      0              0             -143.6595       173539.17      55.778372      55.778372      55.778372      0.64999999     249.77559     -787.59538     -702.17326    
    281000   140500         591.95305     -599.18356      13937.334      15453.802      8538.4136      6915.3884      2959.0534      2842.8567      4970.7227      0             -3857.2444      0              0             -143.6595       173539.17      55.778372      55.778372      55.778372      0.64999999     16.808142     -959.67457     -854.68424    
    282000   141000         591.43847     -391.13963      14484.391      15474.322      8530.9912      6943.3313      2827.2975      2883.0039      5021.7469      0             -3788.717       0              0             -143.6595       173539.17      55.778372      55.778372      55.778372      0.64999999    -119.97418     -844.98098     -208.46373    
    283000   141500         594.60097     -164.61947      14954.747      15371.38       8576.6076      6794.7729      2909.8069      2777.6627      4930.659       0             -3823.3558      0              0             -143.6595       173539.17      55.778372      55.778372      55.778372      0.64999999    -372.21732     -90.360613     -31.28047     
    284000   142000         601.09808     -152.78924      15125.267      15511.96       8670.3227      6841.6371      2933.6219      2833.6685      4911.8266      0             -3837.4799      0              0             -143.6595       173539.17      55.778372      55.778372      55.778372      0.64999999    -446.75459     -30.258461      18.645315    
    285000   142500         596.34661     -339.22476      14783.036      15641.577      8601.7869      7039.7901      3033.6284      2895.7228      4943.1484      0             -3832.7095      0              0             -143.6595       173539.17      55.778372      55.778372      55.778372      0.64999999    -277.64123      157.23574     -897.2688     
    286000   143000         612.02313     -368.79783      14946.369      15879.756      8827.9072      7051.8484      2972.8283      2948.6706      4924.7076      0             -3794.3581      0              0             -143.6595       173539.17      55.778372      55.778372      55.778372      0.64999999     58.011434      233.45463     -1397.8596    
    287000   143500         599.67109     -236.96478      14935.441      15535.173      8649.7397      6885.4332      2929.7243      2849.6471      4950.9449      0             -3844.8831      0              0             -143.6595       173539.17      55.778372      55.778372      55.778372      0.64999999    -30.106202     -748.50901      67.720875    
    288000   144000         601.91775      27.043489      15414.703      15346.259      8682.1458      6664.1134      2892.4714      2757.3923      4880.4823      0             -3866.2326      0              0             -143.6595       173539.17      55.778372      55.778372      55.778372      0.64999999    -51.064359      185.84971     -53.654888    
    289000   144500         607.53755      337.73354      16275.375      15420.608      8763.2066      6657.4017      2923.4744      2723.0066      4844.0037      0             -3833.083       0              0             -143.6595       173539.17      55.778372      55.778372      55.778372      0.64999999     887.88281      8.262919       117.05489    
    290000   145000         622.68021     -245.08951      15470.079      16090.373      8981.6264      7108.7471      2998.2006      2881.2167      5102.9145      0             -3873.5847      0              0             -143.6595       173539.17      55.778372      55.778372      55.778372      0.64999999    -185.09574     -596.45896      46.286179    
    291000   145500         611.00851      289.2732       16459.62       15727.501      8813.2721      6914.229       2961.5989      2844.0162      4911.5327      0             -3802.9188      0              0             -143.6595       173539.17      55.778372      55.778372      55.778372      0.64999999     271.06969      457.54962      139.20029    
    292000   146000         626.44835      31.308542      16216.288      16137.049      9035.9786      7101.0706      3026.917       2928.1845      4948.5469      0             -3802.5777      0              0             -143.6595       173539.17      55.778372      55.778372      55.778372      0.64999999     206.64952     -189.8865       77.1626      
    293000   146500         608.84995     -354.81833      14737.546      15635.553      8782.1369      6853.4156      2913.5063      2781.242       4974.6169      0             -3815.9495      0              0             -143.6595       173539.17      55.778372      55.778372      55.778372      0.64999999    -310.03854      530.55917     -1284.9756    
    294000   147000         612.43041      280.05348      16449.484      15740.7        8833.7819      6906.9177      2963.1242      2895.4733      4849.2384      0             -3800.9182      0              0             -143.6595       173539.17      55.778372      55.778372      55.778372      0.64999999     95.441666      187.51029      557.20848    
    295000   147500         619.65108      101.62808      16144.7        15887.49       8937.9338      6949.5562      2969.1736      2931.7542      4846.5274      0             -3797.899       0              0             -143.6595       173539.17      55.778372      55.778372      55.778372      0.64999999    -43.105139      202.38795      145.60144    
    296000   148000         608.54899     -277.14062      15037.937      15739.35       8777.7958      6961.5539      3019.6749      2935.4585      4854.1935      0             -3847.773       0              0             -143.6595       173539.17      55.778372      55.778372      55.778372      0.64999999     358.80545     -822.70305     -367.52424    
    297000   148500         628.02105     -176.9653       15656.915      16104.795      9058.6635      7046.1317      3018.5345      2892.5043      4939.2262      0             -3804.1333      0              0             -143.6595       173539.17      55.778372      55.778372      55.778372      0.64999999    -643.11353      343.65914     -231.4415     
    298000   149000         615.76728     -299.58359      15255.882      16014.096      8881.9133      7132.1823      2971.4658      2987.5202      4981.295       0             -3808.0987      0              0             -143.6595       173539.17      55.778372      55.778372      55.778372      0.64999999    -935.01762      339.3227      -303.05586    
    299000   149500         634.47811     -37.493372      16107.095      16201.987      9151.801       7050.1858      2936.4579      2978.8535      4904.941       0             -3770.0666      0              0             -143.6595       173539.17      55.778372      55.778372      55.778372      0.64999999     433.29786      583.43361     -1129.2116    
    300000   150000         634.44012      410.46338      17136.839      16098.001      9151.253       6946.748       2904.8129      2912.3193      4936.9539      0             -3807.3382      0              0             -143.6595       173539.17      55.778372      55.778372      55.778372      0.64999999     810.65773      304.1656       116.56681    
Loop time of 200.715 on 1 procs for 300000 steps with 4840 atoms

Performance: 64.569 ns/day, 0.372 hours/ns, 1494.660 timesteps/s, 7.234 Matom-step/s
99.6% CPU use with 1 MPI tasks x 1 OpenMP threads

MPI task timing breakdown:
Section |  min time  |  avg time  |  max time  |%varavg| %total
---------------------------------------------------------------
Pair    | 17.914     | 17.914     | 17.914     |   0.0 |  8.92
Bond    | 149.61     | 149.61     | 149.61     |   0.0 | 74.54
Neigh   | 0.017179   | 0.017179   | 0.017179   |   0.0 |  0.01
Comm    | 14.297     | 14.297     | 14.297     |   0.0 |  7.12
Output  | 2.6261     | 2.6261     | 2.6261     |   0.0 |  1.31
Modify  | 11.798     | 11.798     | 11.798     |   0.0 |  5.88
Other   |            | 4.457      |            |       |  2.22

Nlocal:           4840 ave        4840 max        4840 min
Histogram: 1 0 0 0 0 0 0 0 0 0
Nghost:          13691 ave       13691 max       13691 min
Histogram: 1 0 0 0 0 0 0 0 0 0
Neighs:              0 ave           0 max           0 min
Histogram: 1 0 0 0 0 0 0 0 0 0

Total # of neighbors = 0
Ave neighs/atom = 0
Ave special neighs/atom = 5.9504132
Neighbor list builds = 2651
Dangerous builds = 0

# --- Cleanup ---
unfix nvt_fix

undump dump_nvt

# --- Write Output ---
write_dump all custom nvt_softheat_last.dump id type mol x y z xu yu zu vx vy vz modify sort id
write_data /home/alexzhao/PolyJarvis/data/PE4/lammps/equil/nvt_softheat/nvt_softheat_out.data
System init for write_data ...
Generated 1 of 1 mixed pair_coeff terms from arithmetic mixing rule

print "STAGE COMPLETE: NVT T=300.0->620.0K steps=300000"
STAGE COMPLETE: NVT T=300.0->620.0K steps=300000
quit
| 74.54
Neigh   | 0.017179   | 0.017179   | 0.017179   |   0.0 |  0.01
Comm    | 14.297     | 14.297     | 14.297     |   0.0 |  7.12
Output  | 2.6261     | 2.6261     | 2.6261     |   0.0 |  1.31
Modify  | 11.798     | 11.798     | 11.798     |   0.0 |  5.88
Other   |            | 4.457      |            |       |  2.22

Nlocal:           4840 ave        4840 max        4840 min
Histogram: 1 0 0 0 0 0 0 0 0 0
Nghost:          13691 ave       13691 max       13691 min
Histogram: 1 0 0 0 0 0 0 0 0 0
Neighs:              0 ave           0 max           0 min
Histogram: 1 0 0 0 0 0 0 0 0 0

Total # of neighbors = 0
Ave neighs/atom = 0
Ave special neighs/atom = 5.9504132
Neighbor list builds = 2651
Dangerous builds = 0
System init for write_data ...


---------------------------------------------------------------------
      Device Time Info (average): 
---------------------------------------------------------------------
Data Transfer:   10.3777 s.
Neighbor copy:   0.2171 s.
Neighbor build:  1.5541 s.
Force calc:      23.6416 s.
Device Overhead: 11.9204 s.
CPU Neighbor:    0.3800 s.
CPU Cast/Pack:   7.7963 s.
CPU Driver_Time: 5.5779 s.
CPU Idle_Time:   0.6762 s.
Average split:   1.0000.
Max Mem / Proc:  33.39 MB.
Prefetch mode:   None.
Vector width:    32.
Lanes / atom:    4.
Pair block:      256.
Neigh block:     128.
Neigh mode:      Hybrid (binning on host) with subgroup support.
Neigh sorting:   Unavailable or disabled.
---------------------------------------------------------------------


--------------------------------------------------------------------------
- Using acceleration for lj/cut:
-  with 1 proc(s) per device.
-  with 1 thread(s) per proc.
-  Horizontal vector operations: ENABLED
-  Shared memory system: No
--------------------------------------------------------------------------
Device 0: NVIDIA A800 40GB Active, 108 CUs, 39/39 GB, 1.4 GHZ (Mixed Precision)
--------------------------------------------------------------------------

Initializing Device and compiling on process 0...Done.
Initializing Device 0 on core 0...Done.

Generated 1 of 1 mixed pair_coeff terms from arithmetic mixing rule
STAGE COMPLETE: NVT T=300.0->620.0K steps=300000
Cuda driver error 4 in call at file '/home/alexzhao/lammps/lib/gpu/geryon/nvd_timer.h' in line 98.
Cuda driver error 4 in call at file '/home/alexzhao/lammps/lib/gpu/geryon/nvd_timer.h' in line 99.
Cuda driver error 4 in call at file '/home/alexzhao/lammps/lib/gpu/geryon/nvd_timer.h' in line 98.
Cuda driver error 4 in call at file '/home/alexzhao/lammps/lib/gpu/geryon/nvd_timer.h' in line 99.
Cuda driver error 4 in call at file '/home/alexzhao/lammps/lib/gpu/geryon/nvd_timer.h' in line 98.
Cuda driver error 4 in call at file '/home/alexzhao/lammps/lib/gpu/geryon/nvd_timer.h' in line 99.
