LAMMPS (22 Jul 2025 - Update 3)
KOKKOS mode with Kokkos version 4.6.2 is enabled
  will use up to 1 GPU(s) per node
  using 1 OpenMP thread(s) per MPI task
Reading data file ...
  orthogonal box = (4.7339447 4.7339447 4.7339447) to (46.00074 46.00074 46.00074)
  1 by 1 by 1 MPI processor grid
  reading atoms ...
  6420 atoms
  reading velocities ...
  6420 velocities
  scanning bonds ...
  4 = max bonds/atom
  scanning angles ...
  14 = max angles/atom
  scanning dihedrals ...
  34 = max dihedrals/atom
  scanning impropers ...
  11 = max impropers/atom
  orthogonal box = (4.7339447 4.7339447 4.7339447) to (46.00074 46.00074 46.00074)
  1 by 1 by 1 MPI processor grid
  reading bonds ...
  6810 bonds
  reading angles ...
  12000 angles
  reading dihedrals ...
  19110 dihedrals
  reading impropers ...
  5600 impropers
Finding 1-2 1-3 1-4 neighbors ...
  special bond factors lj:    0        0        1       
  special bond factors coul:  0        0        1       
     4 = max # of 1-2 neighbors
     8 = max # of 1-3 neighbors
    12 = max # of special neighbors
  special bonds CPU = 0.003 seconds
  read_data CPU = 0.276 seconds
Finding SHAKE clusters ...
    2390 = # of size 2 clusters
     400 = # of size 3 clusters
      10 = # of size 4 clusters
       0 = # of frozen angles
  find clusters CPU = 0.002 seconds
PPPM Kokkos initialization ...
  using 12-bit tables for long-range coulomb
  G vector (1/distance) = 0.30258092
  grid = 30 30 30
  stencil order = 5
  estimated absolute RMS force accuracy = 0.00027183677
  estimated relative force accuracy = 8.1862835e-07
  using double precision cuFFT
  3d grid and FFT values/proc = 50653 27000
Generated 6 of 6 mixed pair_coeff terms from sixthpower/sixthpower mixing rule
Neighbor list info ...
  update: every = 1 steps, delay = 0 steps, check = yes
  max neighbors/atom: 4000, page size: 100000
  master list distance cutoff = 11.5
  ghost atom cutoff = 11.5
  binsize = 11.5, bins = 4 4 4
  1 neighbor lists, perpetual/occasional/extra = 1 0 0
  (1) pair lj/class2/coul/long/kk, perpetual
      attributes: full, newton off, kokkos_device
      pair build: full/bin/kk/device
      stencil: full/bin/3d
      bin: kk/device
Setting up Verlet run ...
  Unit style    : real
  Current step  : 0
  Time step     : 1
Per MPI rank memory allocation (min/avg/max) = 43.89 | 43.89 | 43.89 Mbytes
   Step          Time           Temp          Press         Enthalpy        TotEng         KinEng         PotEng         E_bond        E_angle        E_dihed        E_impro         E_vdwl         E_coul         E_long         E_tail         Volume           Lx             Ly             Lz          Density          Pxx            Pyy            Pzz      
         0   0              360.96534      494.27608      8867.0114      8360.4317      5751.7722      2608.6596      1769.5321      2618.8731     -1988.048       201.99085      132.63867      3833.7516     -3960.0788     -409.28075      70275.225      41.266796      41.266796      41.266796      0.98489181     1959.7984      831.44898     -1308.4191    
       100   100            301.33649     -647.10827      6797.3535      7460.3442      4801.6213      2658.7229      1787.4958      2664.9558     -1961.8044      202.77118      91.68159       3838.4592     -3964.8362     -409.41991      70251.339      41.26212       41.26212       41.26212       0.98522668    -183.43921     -40.211603     -1717.674     
       200   200            298.403        264.14479      7697.8335      7427.8602      4754.8779      2672.9823      1761.8424      2643.647      -1963.1271      204.84775      149.39505      3839.1312     -3962.7541     -410.41259      70081.418      41.228825      41.228825      41.228825      0.98761547     432.36069      911.08515     -551.01147    
       300   300            295.91483      739.31052      8160.0083      7404.9291      4715.2303      2689.6987      1822.31        2612.5843     -1973.3035      209.76088      138.11063      3844.9431     -3964.7067     -410.7086       70030.909      41.218918      41.218918      41.218918      0.98832778     897.96994      420.07252      899.88909    
       400   400            302.77109      580.66434      8046.1689      7453.5489      4824.4807      2629.0681      1797.8675      2596.0411     -2013.1372      202.39033      161.69665      3845.2802     -3961.0704     -411.0061       69980.218      41.20897       41.20897       41.20897       0.98904369     526.21456      1501.6365     -285.85801    
       500   500            300.29776     -273.79455      7228.163       7507.8859      4785.0696      2722.8162      1822.1212      2624.2502     -1973.3156      212.47589      158.29187      3838.5783     -3959.5856     -410.57856      70053.089      41.223269      41.223269      41.223269      0.98801486    -720.52774     -1108.3832      1007.5273    
       600   600            298.1264      -1633.2008      5866.3125      7540.6903      4750.4704      2790.2199      1833.6299      2660.302      -1886.241       220.19876      90.976675      3835.5487     -3964.1951     -409.15283      70297.195      41.271096      41.271096      41.271096      0.98458399    -1188.0648     -2469.8204     -1241.717     
       700   700            302.14435     -114.02664      7419.2413      7536.3292      4814.4941      2721.8351      1786.5755      2650.8627     -1913.2769      210.17619      115.82106      3834.7885     -3963.112      -408.50163      70409.258      41.293015      41.293015      41.293015      0.98301693    -1113.7644      391.00145      380.68301    
       800   800            298.09648      500.69507      7931.9056      7417.6477      4749.9935      2667.6542      1905.0602      2562.3777     -2021.5472      204.29615      136.56362      3842.5298     -3961.6261     -408.40573      70425.791      41.296246      41.296246      41.296246      0.98278616    -562.49417      1571.2271      493.35225    
       900   900            294.01524     -140.80397      7220.1189      7364.6878      4684.9614      2679.7264      1797.7654      2659.972      -1984.6702      201.11737      129.10561      3840.0393     -3963.6031     -408.54475      70401.826      41.291562      41.291562      41.291562      0.98312071     546.20481     -1475.8425      507.22575    
      1000   1000           297.36036     -263.22617      7164.4299      7434.4742      4738.2639      2696.2104      1821.4706      2652.9903     -2008.5341      199.31816      147.29233      3845.1776     -3961.5046     -408.87775      70344.489      41.280349      41.280349      41.280349      0.98392203     1020.6616      50.153338     -1860.4934    
      1100   1100           299.73783     -147.80725      7363.3953      7514.6034      4776.1475      2738.4559      1819.9874      2656.7003     -1971.274       208.98767      146.51234      3842.9297     -3965.3875     -410.03448      70146.044      41.241494      41.241494      41.241494      0.98670558    -660.4792       381.96705     -164.90958    
      1200   1200           304.05577      41.282885      7559.3248      7517.2191      4844.9514      2672.2677      1804.8891      2673.1191     -2011.8344      208.28583      123.5096       3840.7041     -3966.4057     -411.27228      69934.925      41.200078      41.200078      41.200078      0.98968423     173.61059     -143.84049      94.07856     
      1300   1300           300.58943      585.94113      8067.7074      7471.9197      4789.7174      2682.2023      1799.5252      2629.2458     -1983.0973      210.33743      142.73766      3848.0232     -3964.5697     -412.53602      69720.692      41.157965      41.157965      41.157965      0.99272527    -260.42868      1000.4319      1017.8202    
      1400   1400           297.99813      1288.5679      8732.4426      7423.1145      4748.4265      2674.688       1852.0328      2619.8859     -2053.9945      201.36076      176.70775      3844.8368     -3966.1416     -412.81766      69673.125      41.148603      41.148603      41.148603      0.99340302     1326.8313      1637.7631      901.10949    
      1500   1500           299.69378      1139.0924      8566.0549      7404.9838      4775.4456      2629.5381      1803.8048      2636.6817     -2048.8431      203.60339      156.92151      3842.8877     -3965.5178     -411.52817      69891.44       41.191537      41.191537      41.191537      0.9903         2025.2987     -152.51924      1544.4976    
      1600   1600           300.67112     -1403.7441      6019.5421      7457.2688      4791.019       2666.2498      1842.2126      2602.1031     -1970.593       200.40278      120.48357      3835.085      -3963.4443     -409.55389      70228.356      41.25762       41.25762       41.25762       0.9855491     -1764.1311     -438.6978      -2008.4035    
      1700   1700           305.16966     -319.56168      7289.0721      7617.6357      4862.7006      2754.9351      1823.3061      2633.8595     -1960.9993      214.24873      171.76829      3836.0436     -3963.2917     -407.97603      70499.966      41.310739      41.310739      41.310739      0.98175215    -90.716391      374.46233     -1242.431     
      1800   1800           301.73161     -544.6196       7044.324       7605.3618      4807.9173      2797.4445      1800.0919      2687.421      -1940.3108      208.67885      165.31503      3836.9133     -3960.6648     -407.19323      70635.497      41.337195      41.337195      41.337195      0.97986842    -228.45655     -1345.4223     -59.979952    
      1900   1900           298.84647     -105.34824      7391.239       7499.8268      4761.9442      2737.8826      1862.3313      2625.0383     -1987.649       201.97344      150.88108      3844.7763     -3959.4688     -406.95426      70676.977      41.345285      41.345285      41.345285      0.97929335     746.59937     -705.88195     -356.76212    
      2000   2000           299.2281       649.98817      8110.2461      7440.2745      4768.0253      2672.2491      1836.6728      2626.3944     -2067.2496      199.68895      194.48604      3842.5657     -3960.3091     -406.95698      70676.504      41.345193      41.345193      41.345193      0.9792999      877.80812      488.37673      583.77965    
      2100   2100           297.81417     -421.9925       7023.6452      7458.491       4745.4951      2712.9959      1844.0041      2636.1906     -1989.2925      202.63964      145.86589      3836.1527     -3962.5645     -407.06988      70656.902      41.34137       41.34137       41.34137       0.97957157    -770.71092      289.21302     -784.4796     
      2200   2200           300.22048     -158.64301      7373.9798      7537.1331      4783.8383      2753.2947      1888.7223      2622.2195     -2003.9665      194.02057      169.5663       3840.1448     -3957.4121     -407.87265      70517.836      41.31423       41.31423       41.31423       0.98150336    -1032.768       163.43553      393.40341    
      2300   2300           305.00411     -1595.0856      6029.4811      7667.3366      4860.0626      2807.274       1781.8541      2695.8089     -1907.6908      209.1363       152.2065       3840.0049     -3964.0459     -408.51484      70406.981      41.292569      41.292569      41.292569      0.98304872    -1778.9419     -786.37433     -2219.9405    
      2400   2400           299.24515     -125.23846      7493.7897      7622.2728      4768.2969      2853.9759      1849.7592      2685.8905     -1944.7919      210.51812      171.26204      3841.511      -3960.1731     -408.8755       70344.877      41.280425      41.280425      41.280425      0.98391661    -888.67043      796.50339     -283.54835    
      2500   2500           304.34258      3.2314291      7536.5169      7533.1983      4849.5215      2683.6768      1868.4754      2627.923      -2022.5537      197.19539      125.58979      3845.3831     -3958.3362     -408.44504      70419.013      41.294921      41.294921      41.294921      0.98288077     661.72341      502.40571     -1154.4348    
      2600   2600           297.94212      318.66419      7826.0543      7498.7406      4747.534       2751.2066      1819.529       2670.8935     -2004.7051      197.11798      184.4163       3841.632      -3957.6771     -408.38381      70429.57       41.296985      41.296985      41.296985      0.98273343     1361.1097     -225.41        -179.70716    
      2700   2700           299.16613      859.36996      8363.5533      7481.7734      4767.0379      2714.7355      1818.4514      2633.9248     -2000.2556      204.90624      174.06154      3841.9874     -3958.3404     -408.80804      70356.485      41.282695      41.282695      41.282695      0.98375428     772.8723       863.46102      941.77656    
      2800   2800           293.5677      -1174.6133      6261.5875      7466.9646      4677.8301      2789.1345      1818.27        2669.8338     -1944.6424      207.66667      150.48833      3844.8198     -3957.3016     -408.76287      70364.259      41.284216      41.284216      41.284216      0.98364558    -762.82441     -1190.4639     -1570.5517    
      2900   2900           296.18593     -867.69404      6621.1835      7511.7421      4719.5502      2792.1919      1903.7893      2652.1834     -1966.0759      216.33596      104.14758      3841.417      -3959.6055     -408.69898      70375.259      41.286367      41.286367      41.286367      0.98349185    -2014.5163      17.966485     -606.53234    
      3000   3000           305.54751      551.07008      8136.0387      7570.6412      4868.7214      2701.9198      1859.1187      2592.6773     -1993.3006      208.98045      157.50359      3840.3009     -3963.3606     -408.83909      70351.142      41.28165       41.28165       41.28165       0.98382899    -276.79465      211.54689      1718.458     
      3100   3100           302.23511      614.27833      8184.854       7554.2186      4815.9403      2738.2783      1872.7921      2604.1053     -2007.5314      205.96419      181.62368      3843.202      -3961.8776     -408.58867      70394.258      41.290082      41.290082      41.290082      0.9832264      596.8711       875.61569      370.34821    
      3200   3200           298.29469     -1028.4244      6370.7346      7428.6631      4753.152       2675.5111      1820.654       2621.5935     -1972.1396      196.63621      125.98688      3844.236      -3961.456      -407.77024      70535.545      41.317688      41.317688      41.317688      0.98125694    -807.5293      -1366.7373     -911.00675    
      3300   3300           298.23397     -433.97759      6949.9321      7396.5511      4752.1843      2644.3667      1771.1983      2599.6541     -1969.8282      202.04349      159.71949      3841.9612     -3960.3817     -407.59573      70565.745      41.323584      41.323584      41.323584      0.98083699     361.98263     -365.52646     -1298.3889    
      3400   3400           300.21215     -693.81526      6734.8161      7447.4295      4783.7056      2663.7239      1872.062       2574.1117     -1980.5423      197.02075      112.95506      3849.1813     -3961.0645     -408.40337      70426.198      41.296326      41.296326      41.296326      0.98278048    -83.559787     -977.44395     -1020.442     
      3500   3500           300.62807      1242.572       8779.7538      7509.6429      4790.333       2719.3099      1814.0304      2681.8724     -2030.5762      203.48225      170.12158      3842.5992     -3962.2196     -410.37356      70088.084      41.230132      41.230132      41.230132      0.98752155     1799.7151      1696.2678      231.73313    
      3600   3600           301.2603      -844.57435      6647.3422      7509.0015      4800.4073      2708.5942      1800.7014      2648.1435     -1950.5658      201.87433      127.64548      3845.0907     -3964.2954     -411.15136      69955.494      41.204117      41.204117      41.204117      0.98939325    -984.07035     -879.53063     -670.12207    
      3700   3700           299.21554      1864.5975      9382.0884      7481.6072      4767.8252      2713.782       1886.0335      2606.0504     -2048.4887      211.16052      188.74849      3837.4849     -3967.2071     -411.54847      69887.994      41.19086       41.19086       41.19086       0.99034884     1880.8321      2459.8697      1253.0909    
      3800   3800           298.98365      429.04115      7902.1276      7464.29        4764.1301      2700.1599      1903.6801      2620.3268     -2031.4327      200.46797      132.99361      3839.7915     -3965.6674     -411.04113      69974.254      41.2078        41.2078        41.2078        0.98912799    -1217.3617      950.72144      1553.7637    
      3900   3900           298.84645     -833.03539      6629.2359      7480.6179      4761.944       2718.6739      1777.6672      2619.9729     -1924.0673      201.6042       162.7416       3843.7765     -3963.0211     -410.42936      70078.555      41.228264      41.228264      41.228264      0.98765583     123.66784     -682.17315     -1940.6009    
      4000   4000           301.18257     -66.874346      7503.1967      7571.8171      4799.1686      2772.6485      1897.7044      2601.9749     -1991.7393      210.56343      177.51413      3837.6193     -3960.9884     -408.79524      70358.688      41.283126      41.283126      41.283126      0.98372348    -30.659755     -1053.288       883.32473    
      4100   4100           305.14115     -264.25393      7346.2657      7618.8636      4862.2463      2756.6173      1866.3175      2639.238      -1973.5619      209.76798      133.3136       3841.5325     -3959.9904     -406.62912      70733.49       41.356302      41.356302      41.356302      0.97851094    -20.235023      74.257428     -846.78421    
      4200   4200           300.75642      13.623347      7543.7129      7529.636       4792.3782      2737.2578      1840.4857      2622.2262     -2002.5956      202.81668      188.12416      3844.1454     -3957.9446     -405.95398      70851.127      41.379216      41.379216      41.379216      0.97688627     370.99528      691.82337     -1021.9486    
      4300   4300           299.11479     -169.1378       7261.7707      7436.5516      4766.2198      2670.3318      1848.2669      2581.9343     -2007.6067      194.68576      163.40471      3846.3898     -3956.743      -405.92538      70856.117      41.380187      41.380187      41.380187      0.97681747    -464.8522      -611.51075      568.94955    
      4400   4400           297.46016      25.30488       7465.8928      7439.7722      4739.8542      2699.918       1819.592       2625.1305     -1988.3352      204.05157      143.1164       3852.9697     -3956.6069     -406.36841      70778.869      41.365144      41.365144      41.365144      0.97788357    -1199.0915      186.63334      1088.3728    
      4500   4500           301.90623     -861.03542      6617.953       7504.0236      4810.6998      2693.3238      1778.0015      2642.0728     -1962.142       207.73629      130.9535       3853.8929     -3957.1912     -407.61687      70562.085      41.322869      41.322869      41.322869      0.98088786    -1153.7907     -450.05649     -979.25905    
      4600   4600           303.69888     -476.38765      7059.4589      7547.8095      4839.2647      2708.5448      1816.0101      2630.208      -1958.2629      211.05686      111.71885      3854.4993     -3956.6853     -409.19302      70290.291      41.269744      41.269744      41.269744      0.9846807     -393.0579      -244.20879     -791.89625    
      4700   4700           297.27117      152.51302      7646.4899      7490.8349      4736.8427      2753.9921      1834.5739      2641.6717     -1959.3858      205.43454      148.11354      3844.698      -3961.1137     -411.00128      69981.038      41.209131      41.209131      41.209131      0.98903209     2110.7299     -1055.3693     -597.82152    
      4800   4800           297.70262      1397.0513      8755.6805      7335.3454      4743.7177      2591.6277      1834.1192      2581.4992     -2071.3556      196.66206      163.70096      3848.5853     -3961.5835     -412.59218      69711.202      41.156098      41.156098      41.156098      0.99286042     2527.5919      1364.4661      299.09599    
      4900   4900           296.78942      1292.9064      8673.3036      7361.2507      4729.1664      2632.0843      1851.3835      2624.151      -2046.7192      202.71233      119.23413      3844.6396     -3963.3171     -413.34738      69583.836      41.131018      41.131018      41.131018      0.99467775     1463.0285      1380.3391      1035.3517    
      5000   5000           296.96795     -412.31776      7045.3096      7463.8761      4732.0111      2731.865       1808.1883      2645.8955     -1955.6195      202.07598      143.64989      3848.9705     -3961.2957     -413.20643      69607.573      41.135694      41.135694      41.135694      0.99433855    -1015.2824      299.8924      -521.56324    
      5100   5100           308.94144     -1011.6674      6497.4052      7527.4608      4922.8017      2604.6591      1823.7735      2566.4693     -1965.596       202.8567       95.793857      3844.1314     -3962.7697     -411.98037      69814.725      41.17646       41.17646       41.17646       0.99138817    -282.5706      -1176.3245     -1576.107     
      5200   5200           302.31075      276.73984      7785.4922      7502.8067      4817.1455      2685.6612      1889.2195      2622.5543     -2015.3509      206.43742      104.05135      3844.2306     -3965.4811     -410.64601      70041.583      41.221012      41.221012      41.221012      0.98817716     1102.0731      214.36142     -486.21499    
      5300   5300           300.01796      734.87648      8209.8472      7457.8006      4780.6112      2677.1894      1815.6248      2590.3811     -2020.6866      196.65111      216.23313      3841.3251     -3962.3394     -409.89167      70170.482      41.246283      41.246283      41.246283      0.98636194     1045.0056      437.57032      722.05349    
      5400   5400           299.4136      -796.31881      6596.6119      7415.0441      4770.9811      2644.063       1828.1386      2655.7111     -2033.2575      199.13417      102.73018      3852.4418     -3960.8353     -408.13486      70472.531      41.30538       41.30538       41.30538       0.98213434    -501.3734       28.940932     -1916.5239    
      5500   5500           296.58352     -53.509908      7301.0759      7356.0338      4725.8855      2630.1483      1874.4727      2585.0247     -2038.3007      196.95716      130.16421      3842.9941     -3961.1638     -408.41667      70423.904      41.295878      41.295878      41.295878      0.98281249    -150.91454     -1301.8015      1292.1863    
      5600   5600           297.90058     -202.65824      7207.0295      7414.5268      4746.872       2667.6548      1821.4318      2640.4182     -2013.8814      194.0735       139.9146       3847.6206     -3961.9225     -409.68622      70205.672      41.253177      41.253177      41.253177      0.98586753     104.5253      -244.03844     -468.46157    
      5700   5700           303.77539     -349.67233      7165.9543      7523.2228      4840.4837      2682.7391      1783.1153      2676.3385     -1944.7034      202.77495      79.191072      3848.1887     -3962.1659     -410.54992      70057.976      41.224228      41.224228      41.224228      0.98794594     95.846716      387.29846     -1532.1622    
      5800   5800           305.62494      192.63084      7727.8557      7531.7347      4869.9553      2661.7795      1852.6278      2598.6337     -2004.6506      197.99735      133.00818      3848.1872     -3964.0241     -412.00375      69810.763      41.175681      41.175681      41.175681      0.99144444    -97.19714       419.53956      255.55009    
      5900   5900           299.87858      887.42316      8361.8845      7460.354       4778.3903      2681.9637      1866.043       2608.0247     -2028.231       202.83044      151.15871      3847.62       -3965.4821     -412.90465      69658.447      41.145713      41.145713      41.145713      0.99361235     683.65337      1911.5152      67.100885    
      6000   6000           296.79322      38.763911      7385.3362      7345.9         4729.2269      2616.6731      1884.5113      2587.4938     -2030.0666      199.22147      97.10333       3844.4313     -3966.0216     -412.31784      69757.585      41.165224      41.165224      41.165224      0.99220024     678.3388       577.94818     -1139.9953    
      6100   6100           295.81579      586.85726      7938.6014      7340.8969      4713.6521      2627.2448      1823.6233      2600.5865     -1998.2531      191.52083      136.61765      3839.2939     -3966.1442     -411.85597      69835.813      41.180606      41.180606      41.180606      0.99108881     956.79129     -541.43079      1345.2113    
      6200   6200           300.53476      34.926227      7429.3632      7393.7195      4788.8462      2604.8733      1851.8681      2585.7614     -2016.3068      198.73147      104.94622      3840.5323     -3960.6594     -411.02447      69977.09       41.208356      41.208356      41.208356      0.9890879      265.32092     -19.686037     -140.8562     
      6300   6300           302.65105     -73.107652      7390.1429      7464.8179      4822.5679      2642.25        1840.0157      2600.5139     -2012.5686      198.44049      140.88064      3837.8334     -3962.8654     -410.66434      70038.457      41.220399      41.220399      41.220399      0.98822127     813.82187     -139.27157     -893.87325    
      6400   6400           301.10005     -728.53985      6771.7978      7515.2479      4797.8537      2717.3941      1852.5741      2592.9404     -1931.7391      206.13325      112.23988      3846.596      -3961.3504     -411.05595      69971.732      41.207305      41.207305      41.207305      0.98916364    -781.43292      566.65925     -1970.8459    
      6500   6500           304.21381      93.833604      7591.8501      7496.1737      4847.4696      2648.7041      1874.9819      2596.8622     -2053.5424      200.57682      153.38843      3836.7085     -3960.2715     -411.38928      69915.037      41.196172      41.196172      41.196172      0.98996577     10.272048     -646.81541      918.04417    
      6600   6600           303.74445      533.666        7886.6887      7342.7258      4839.9907      2502.7351      1827.8294      2547.2647     -2050.4586      199.26221      108.93259      3833.3052     -3963.4004     -411.52832      69891.414      41.191532      41.191532      41.191532      0.99030036     970.96859      52.238085      577.79133    
      6700   6700           297.46388      1131.5774      8471.7088      7318.8285      4739.9135      2578.9149      1799.8299      2627.9468     -2067.7037      203.45089      139.82432      3838.0926     -3962.5259     -411.71764      69859.276      41.185217      41.185217      41.185217      0.99075594     1335.6617      754.6039       1304.4666    
      6800   6800           297.35175      1466.8984      8913.9001      7418.4543      4738.1267      2680.3276      1819.7297      2719.8492     -2084.3867      194.66204      146.5004       3845.9481     -3961.9752     -411.46114      69902.826      41.193774      41.193774      41.193774      0.99013869     2150.1828      1971.4581      279.05447    
      6900   6900           300.17198     -47.147851      7440.5453      7488.6983      4783.0655      2705.6328      1821.3441      2592.5835     -1944.6672      211.24759      146.51631      3840.7171     -3962.1085     -410.71265      70030.218      41.218783      41.218783      41.218783      0.98833753     56.781656      709.93342     -908.15863    
      7000   7000           301.61628     -425.81795      7074.4213      7509.6895      4806.0795      2703.6099      1834.6565      2598.925      -1944.9158      209.57626      126.06312      3842.2688     -3962.9639     -410.36143      70090.156      41.230539      41.230539      41.230539      0.98749235    -248.34704     -600.15162     -428.95518    
      7100   7100           300.26381      668.96816      8148.8073      7464.9733      4784.5287      2680.4447      1859.7603      2649.2034     -2040.3007      203.9909       132.28622      3839.8153     -3964.3107     -410.3498       70092.142      41.230928      41.230928      41.230928      0.98746437     747.16719     -535.41757      1795.1549    
      7200   7200           293.6126      -205.69101      7127.548       7337.6128      4678.5456      2659.0672      1859.4253      2634.9881     -2002.7054      208.15815      77.594458      3844.9019     -3963.2953     -410.7348       70026.442      41.218042      41.218042      41.218042      0.98839082     1513.7327     -437.23404     -1693.5717    
      7300   7300           292.84501     -213.43835      7099.6735      7316.965       4666.3144      2650.6505      1846.0648      2597.1704     -2029.7828      202.72337      152.1902       3845.1316     -3962.847      -412.03031      69806.264      41.174797      41.174797      41.174797      0.99150834    -626.37997     -975.04978      961.11469    
      7400   7400           296.4491      -690.27367      6705.7635      7407.4526      4723.7435      2683.7091      1840.7027      2595.4758     -1954.2026      205.75656      107.47332      3850.0801     -3961.5768     -412.64447      69702.367      41.154359      41.154359      41.154359      0.99298627    -1295.3942      455.62424     -1231.0511    
      7500   7500           301.35548     -233.4075       7193.1913      7430.4689      4801.9239      2628.545       1883.8143      2538.8322     -1954.7326      212.93308      65.839524      3843.6706     -3961.812      -412.6268       69705.352      41.154947      41.154947      41.154947      0.99294374     420.87106     -367.69975     -753.3938     
      7600   7600           302.91196      610.0011       8070.7759      7450.5592      4826.7255      2623.8337      1808.061       2598.448      -1992.5815      202.28065      130.20447      3841.3055     -3963.8844     -412.5595       69716.723      41.157184      41.157184      41.157184      0.99278178     1424.4931      795.73467     -390.22443    
      7700   7700           299.24811     -601.63805      6849.7893      7462.6546      4768.3441      2694.3105      1886.3502      2658.4133     -1990.7786      209.48058      55.591594      3841.7789     -3966.5255     -411.78425      69847.976      41.182996      41.182996      41.182996      0.99091624     596.14374     -2219.1687     -181.88918    
      7800   7800           301.40286     -7.0009692      7472.8597      7479.983       4802.6789      2677.3041      1815.3388      2541.9771     -1896.5419      199.48383      142.24443      3839.7618     -3964.9599     -412.26789      69766.036      41.166886      41.166886      41.166886      0.99208005     921.24337     -316.14701     -626.09926    
      7900   7900           301.44161     -774.23553      6676.2289      7464.8676      4803.2963      2661.5713      1854.4104      2569.3657     -1953.1264      208.09168      115.30083      3834.9055     -3967.3765     -411.8077       69843.999      41.182215      41.182215      41.182215      0.99097266     352.34369     -1543.2327     -1131.8175    
      8000   8000           298.24652     -483.86635      6943.9239      7437.6621      4752.3844      2685.2777      1847.4966      2632.3002     -1978.7444      198.91477      115.72586      3834.822      -3965.2372     -411.08163      69967.361      41.206447      41.206447      41.206447      0.98922544     327.81542      62.090937     -1841.5054    
      8100   8100           293.37808     -180.7532       7191.6446      7375.8729      4674.8086      2701.0643      1839.4663      2605.9483     -1967.3762      206.94328      151.44976      3833.9172     -3969.2844     -411.55596      69886.721      41.19061       41.19061       41.19061       0.99036687    -604.43874     -438.02647      500.20561    
      8200   8200           301.41731      750.72277      8156.624       7392.085       4802.9091      2589.1759      1823.3407      2567.7649     -2012.0464      203.91032      146.12806      3826.893      -3966.8148     -411.88826      69830.337      41.17953       41.17953       41.17953       0.99116653    -21.590512      649.06968      1624.6891    
      8300   8300           299.27956      1386.6013      8927.5611      7512.959       4768.8454      2744.1136      1877.2146      2644.3179     -2019.4957      224.05464      155.51602      3830.0313     -3967.5252     -411.16559      69953.072      41.203641      41.203641      41.203641      0.98942749     1244.8269      1346.4005      1568.5767    
      8400   8400           301.6401      -1632.3964      5898.2094      7567.7874      4806.4591      2761.3283      1841.4014      2655.7791     -1904.9934      212.48571      91.022213      3831.1384     -3965.5053     -410.127        70130.22       41.238393      41.238393      41.238393      0.98692822    -1597.6193     -709.81551     -2589.7543    
      8500   8500           306.69378      0.5707676      7513.6658      7513.0817      4886.9865      2626.0952      1802.2573      2628.8213     -1993.7592      202.32922      121.17849      3830.3557     -3965.0876     -409.95137      70160.264      41.244281      41.244281      41.244281      0.98650559    -254.41984     -379.12554      635.25768    
      8600   8600           300.01502     -423.19601      7014.3802      7447.688       4780.5645      2667.1235      1845.2248      2627.8858     -1971.5118      212.72415      95.632225      3824.7846     -3967.6162     -409.67983      70206.767      41.253392      41.253392      41.253392      0.98585215     943.67151     -1346.3474     -866.91214    
      8700   8700           302.05157      141.44481      7588.5527      7443.9792      4813.0157      2630.9636      1738.8007      2620.9052     -1959.3474      196.90115      159.79288      3840.0845     -3966.1734     -410.39095      70085.113      41.22955       41.22955       41.22955       0.9875634      1757.1656     -576.95889     -755.87228    
      8800   8800           298.70607     -478.49875      6965.7514      7455.7726      4759.7071      2696.0655      1836.2228      2642.0487     -1993.8856      214.4227       125.43731      3837.4686     -3965.649      -409.6051       70219.577      41.2559        41.2559        41.2559        0.98567232    -761.13826      952.96221     -1627.3202    
      8900   8900           301.50319      1258.8864      8802.0423      7511.924       4804.2776      2707.6465      1865.2997      2639.555      -2050.6625      197.47341      182.43845      3838.6111     -3965.0687     -409.31384      70269.543      41.265683      41.265683      41.265683      0.98497145     939.30157      1461.2607      1376.0968    
      9000   9000           307.70874     -356.67185      7285.2278      7651.3896      4903.1594      2748.2302      1847.603       2663.2357     -1956.4321      203.25836      118.22493      3838.8138     -3966.4734     -408.59707      70392.812      41.289799      41.289799      41.289799      0.98324659    -20.87572      -990.47723     -58.662606    
      9100   9100           305.60702     -835.56751      6787.3737      7644.7296      4869.6696      2775.06        1814.2576      2678.7655     -1944.42        201.31949      148.4474       3842.6697     -3965.9796     -408.80843      70356.418      41.282682      41.282682      41.282682      0.98375521    -349.12013     -741.44764     -1416.1348    
      9200   9200           306.5153       1821.8869      9402.4632      7533.3273      4884.1426      2649.1847      1828.5117      2675.6015     -2116.1128      198.28563      196.77653      3832.9158     -3966.7937     -408.86506      70346.673      41.280776      41.280776      41.280776      0.98389149     2188.1462      1175.6479      2101.8667    
      9300   9300           298.85892      102.06887      7591.4293      7486.449       4762.1427      2724.3063      1865.2102      2611.4632     -2007.2899      207.5806       179.22913      3833.683      -3965.5699     -407.83554      70524.252      41.315483      41.315483      41.315483      0.98141407     199.52677      1049.2238     -942.5439     
      9400   9400           301.57979     -633.82825      6804.5445      7458.2173      4805.4982      2652.7191      1820.0917      2620.0187     -1980.8877      205.95125      110.10921      3838.8779     -3961.4419     -406.73417      70715.22       41.352741      41.352741      41.352741      0.97876374    -1226.5596     -1152.4871      477.56195    
      9500   9500           296.70492      681.93756      8132.7417      7429.2938      4727.8199      2701.4739      1847.6743      2640.2037     -2033.6794      198.13585      166.01705      3842.3891     -3959.2666     -406.64192      70731.263      41.355868      41.355868      41.355868      0.97854174     397.14971      1836.6085     -187.94557    
      9600   9600           296.00199     -290.05447      7084.1573      7383.1726      4716.6191      2666.5535      1795.0013      2621.1559     -1991.8112      206.60801      145.64481      3848.6613     -3958.7066     -406.89804      70686.742      41.347189      41.347189      41.347189      0.97915806    -176.45068     -805.06723      111.35448    
      9700   9700           294.80057     -46.534038      7310.3255      7358.2117      4697.4752      2660.7365      1868.5521      2520.7093     -1997.5493      200.38812      188.51265      3843.3816     -3963.2579     -407.62412      70560.83       41.322624      41.322624      41.322624      0.98090531     1377.1895     -435.43718     -1081.3544    
      9800   9800           302.85422      445.17934      7926.7086      7468.9804      4825.8055      2643.1749      1853.5196      2604.4941     -2020.592       196.43134      132.59699      3840.3476     -3963.6227     -407.96865      70501.241      41.310989      41.310989      41.310989      0.98173439    -60.18444       409.08807      986.63438    
      9900   9900           305.12433     -92.417766      7449.5923      7544.4352      4861.9783      2682.4569      1818.8627      2611.038      -1979.9099      211.6607       147.33878      3837.6125     -3964.1459     -408.74294      70367.69       41.284887      41.284887      41.284887      0.98359762     389.78315      758.94559     -1425.982     
     10000   10000          299.96692     -1540.6941      5945.9174      7524.0152      4779.7979      2744.2172      1849.1619      2624.6414     -1949.2201      206.83641      128.6684       3846.1128     -3961.9835     -409.52645      70233.062      41.258541      41.258541      41.258541      0.98548306    -1692.3993     -1055.8959     -1873.7871    
     10100   10100          302.39493     -686.02895      6740.9192      7442.28        4818.4869      2623.7931      1793.6471      2624.616      -1997.3891      202.61697      125.94558      3838.4807     -3964.1241     -410.29891      70100.836      41.232633      41.232633      41.232633      0.9873419      1261.8815     -1559.6454     -1760.3229    
     10200   10200          295.98271      350.75576      7698.9383      7340.8333      4716.3119      2624.5214      1799.6911      2616.6227     -2016.012       203.53866      143.73195      3842.6124     -3965.6634     -410.86004      70005.095      41.213853      41.213853      41.213853      0.98869222     446.98707     -809.67805      1414.9583    
     10300   10300          298.67844      914.5682       8285.5646      7353.4791      4759.2668      2594.2123      1827.4836      2598.9679     -2035.392       194.77548      130.85848      3841.2685     -3963.7496     -411.58523      69881.751      41.189633      41.189633      41.189633      0.99043731     1112.0302      931.6018       700.07259    
     10400   10400          300.06348     -947.98011      6428.7104      7393.1045      4781.3366      2611.768       1838.9125      2552.511      -1926.2349      204.36882      69.98361       3837.126      -3964.8989     -412.32921      69755.66       41.164845      41.164845      41.164845      0.99222763    -1500.4224     -341.39502     -1002.1229    
     10500   10500          300.34654      511.84355      7980.0403      7460.261       4785.847       2674.4139      1804.5498      2613.5274     -1959.7278      204.12966      135.56349      3840.1064     -3963.735      -413.06433      69631.519      41.140411      41.140411      41.140411      0.99399659     641.28175      907.73011     -13.481225    
     10600   10600          302.8491      -758.13308      6766.2765      7536.7883      4825.7239      2711.0645      1830.2039      2610.6092     -1949.2568      206.84614      130.23527      3845.5949     -3963.1682     -412.72959      69687.993      41.15153       41.15153       41.15153       0.99319108    -1883.2028     -120.98171     -270.21473    
     10700   10700          304.66707      279.42971      7850.9886      7566.5278      4854.6921      2711.8357      1857.2767      2611.8897     -1968.932       210.97263      125.94113      3840.0432     -3965.3558     -412.04958      69803          41.174155      41.174155      41.174155      0.9915547      50.025964      1182.5151     -394.2519     
     10800   10800          301.11002     -53.525975      7396.3471      7450.9404      4798.0126      2652.9278      1850.6414      2612.7784     -2018.1662      198.14792      132.30643      3842.7783     -3965.5584     -411.26827      69935.608      41.200212      41.200212      41.200212      0.98967458    -892.76442      789.19741     -57.010909    
     10900   10900          297.95532      626.08286      8001.3926      7361.6658      4747.7442      2613.9215      1847.5095      2570.651      -2052.4582      205.27002      174.00379      3835.2454     -3966.3        -410.52221      70062.705      41.225155      41.225155      41.225155      0.98787926     1461.2764      293.74764      123.2246     
     11000   11000          295.22401     -403.37554      6978.6191      7392.4423      4704.2225      2688.2198      1827.171       2619.5331     -1971.5398      209.09968      121.56868      3845.4458     -3963.0587     -408.87845      70344.369      41.280325      41.280325      41.280325      0.98392371    -97.59593      -818.47529     -294.05539    
     11100   11100          303.81576     -1125.349       6322.732       7480.2292      4841.1269      2639.1023      1791.7852      2587.8127     -1958.5107      204.85452      132.79907      3843.4173     -3963.0558     -407.81831      70527.231      41.316064      41.316064      41.316064      0.98137261    -393.13604     -2156.9138     -825.99724    
     11200   11200          305.98074      367.3283       7900.6945      7522.4588      4875.6246      2646.8341      1848.7999      2536.3633     -1984.7933      200.15088      159.87582      3847.2339     -3960.7963     -407.37212      70604.479      41.331143      41.331143      41.331143      0.98029889     470.9816       698.04642     -67.043107    
     11300   11300          297.82033     -865.87791      6613.3695      7506.2449      4745.5933      2760.6516      1874.1196      2605.2521     -1931.4046      209.40392      124.47194      3841.4067     -3962.598      -406.7853       70706.331      41.351008      41.351008      41.351008      0.97888678     512.29527     -1509.2634     -1600.6656    
     11400   11400          301.96499     -249.01517      7230.4839      7487.1664      4811.6361      2675.5303      1828.2077      2625.5375     -1996.0275      205.96036      126.58679      3846.2902     -3961.0248     -406.93876      70679.669      41.34581       41.34581       41.34581       0.97925605    -559.68351      781.19787     -968.55987    
     11500   11500          302.08595      711.59729      8207.0967      7475.1585      4813.5635      2661.595       1818.7837      2586.0959     -2013.5683      198.54852      190.434        3841.9779     -3960.6767     -407.81135      70528.435      41.316299      41.316299      41.316299      0.98135586     389.49456      789.49001      955.8073     
     11600   11600          300.74565      37.579071      7498.9743      7460.3945      4792.2065      2668.188       1829.8676      2650.143      -2026.8437      204.26893      129.35806      3843.6219     -3962.2279     -408.58745      70394.469      41.290123      41.290123      41.290123      0.98322345    -193.08045     -25.134068      330.95173    
     11700   11700          301.64543     -646.37795      6785.9288      7447.2313      4806.5441      2640.6873      1782.5799      2615.9027     -1969.0272      208.20103      123.98278      3843.6339     -3964.5859     -410.00183      70151.63       41.242589      41.242589      41.242589      0.98662701     1371.1257     -2910.912      -399.34755    
     11800   11800          298.83068      736.67977      8201.051       7449.6219      4761.6926      2687.9293      1803.8064      2631.1942     -1966.9353      214.95557      127.49516      3846.1695     -3968.7563     -411.23508      69941.252      41.20132       41.20132       41.20132       0.98959471     866.07527      1302.2796      41.684413    
     11900   11900          300.86806     -436.5927       7010.2085      7454.7262      4794.1572      2660.569       1818.7008      2552.9447     -1945.3275      206.37637      156.07471      3839.4801     -3967.6802     -411.99024      69813.053      41.176132      41.176132      41.176132      0.99141192    -395.72601     -919.31775      5.2656479    
     12000   12000          297.77401      1492.359       8974.1955      7454.9762      4744.8553      2710.1209      1869.9234      2650.3499     -2046.1121      205.6488       154.35773      3842.6112     -3966.658      -412.05225      69802.547      41.174066      41.174066      41.174066      0.99156114     191.09388      2501.7093      1784.2738    
     12100   12100          297.79949      534.73872      8007.9956      7463.7286      4745.2612      2718.4674      1834.1025      2678.759      -2005.0497      212.03899      124.21941      3840.0509     -3965.6536     -412.1251       69790.208      41.17164       41.17164       41.17164       0.99173645     480.97747      295.6884       827.5503     
     12200   12200          301.66784      522.41336      7991.4563      7459.4476      4806.9012      2652.5464      1789.5698      2603.7071     -1995.9235      212.00176      157.6806       3849.7031     -3964.1924     -411.90304      69827.833      41.179037      41.179037      41.179037      0.99120208    -542.78607      887.20242      1222.8237    
     12300   12300          299.74728     -1017.9095      6404.1821      7445.0906      4776.2981      2668.7925      1819.0166      2625.1754     -1965.474       205.02664      101.88733      3847.8628     -3964.7023     -410.20037      70117.676      41.235934      41.235934      41.235934      0.98710478    -1183.5751     -1375.1083     -495.04527    
     12400   12400          298.28983      58.857788      7474.9039      7414.566       4753.0745      2661.4915      1760.5054      2618.8285     -1994.6648      212.23034      174.61682      3852.2677     -3962.2924     -409.17871      70292.749      41.270226      41.270226      41.270226      0.98464627    -155.92722      502.24663     -169.74605    
     12500   12500          297.59629     -1672.7485      5702.7746      7422.1095      4742.0234      2680.0861      1842.6517      2600.4989     -1937.6059      205.03874      78.665314      3852.7511     -3961.9136     -408.10285      70478.058      41.30646       41.30646       41.30646       0.98205732    -168.06675     -2158.2338     -2691.9449    
     12600   12600          303.42302      921.0333       8439.0758      7494.2368      4834.8689      2659.3679      1856.0164      2561.1952     -2007.4489      206.40413      152.27914      3850.8418     -3959.9198     -408.89987      70340.685      41.279605      41.279605      41.279605      0.98397525     1439.9148      276.46008      1046.725     
     12700   12700          307.47673     -1374.1746      6164.4024      7572.8315      4899.4624      2673.369       1789.58        2568.7759     -1889.2065      210.13586      113.13515      3843.6947     -3962.746      -409.26667      70277.641      41.267269      41.267269      41.267269      0.98485794    -1241.1357     -1867.6897     -1013.6982    
     12800   12800          299.11816     -365.858        7184.682       7559.5001      4766.2735      2793.2266      1836.7638      2580.3805     -1898.5363      209.72426      178.72233      3849.5888     -3963.4168     -409.44118      70247.688      41.261405      41.261405      41.261405      0.98527787    -333.58135      300.83415     -1064.8268    
     12900   12900          302.85988      258.77054      7667.7544      7402.2958      4825.8956      2576.4001      1786.0415      2538.3553     -1984.0781      202.69567      152.09776      3845.3712     -3964.0832     -408.90024      70340.62       41.279592      41.279592      41.279592      0.98397616     148.58058      760.11839     -132.38735    
     13000   13000          297.66251      42.295325      7408.2396      7364.7221      4743.0785      2621.6436      1891.7575      2554.3343     -2026.6926      199.8932       116.639        3848.6825     -3962.9704     -407.68801      70549.773      41.320466      41.320466      41.320466      0.98105905    -522.3164       970.18295     -320.98058    
     13100   13100          297.05156      553.8994       7994.9778      7424.6515      4733.3434      2691.3082      1848.8573      2615.3067     -2003.7965      209.57559      133.81046      3847.7599     -3960.2054     -407.38683      70601.93       41.330646      41.330646      41.330646      0.9803343      1425.808      -126.82522      362.71538    
     13200   13200          297.54998     -688.13194      6810.4469      7518.6713      4741.2854      2777.3858      1877.4754      2655.5356     -1977.4968      211.70496      130.6192       3841.8932     -3962.3456     -407.56821      70570.51       41.324514      41.324514      41.324514      0.98077077    -1004.0967     -760.82791     -299.47122    
     13300   13300          300.221        128.19677      7666.5158      7534.8304      4783.8466      2750.9837      1869.321       2602.0836     -1967.8374      214.48845      156.24143      3839.3174     -3962.6308     -408.35593      70434.38       41.297925      41.297925      41.297925      0.98266632    -76.794726      465.937       -4.5519491    
     13400   13400          300.46828      484.97825      7994.4028      7497.0123      4787.7868      2709.2255      1835.5004      2628.1725     -2007.6959      209.94677      170.90283      3836.2843     -3963.8853     -409.00086      70323.316      41.276207      41.276207      41.276207      0.98421828     1606.0659      387.4234      -538.55452    
     13500   13500          298.14817     -1290.453       6132.6314      7456.2776      4750.8172      2705.4604      1839.3609      2659.6296     -1957.7211      204.16799      90.213214      3832.3042     -3962.4944     -408.94953      70332.142      41.277934      41.277934      41.277934      0.98409477    -278.15149     -2340.99       -1252.2175    
     13600   13600          300.08689      1308.4436      8766.4085      7430.6065      4781.7096      2648.8969      1835.2843      2609.7356     -2033.7729      207.77549      164.78323      3833.3266     -3968.2354     -410.87751      70002.119      41.213269      41.213269      41.213269      0.98873426     1398.831       2212.4266      314.07328    
     13700   13700          298.96898      634.92612      8105.1839      7459.8123      4763.8964      2695.9159      1841.0203      2668.2175     -2011.2654      200.24607      129.34296      3835.9908     -3967.6363     -412.67943      69696.463      41.153197      41.153197      41.153197      0.99307038     444.43366      702.49814      757.84654    
     13800   13800          302.06291      1381.2368      8914.3352      7512.4792      4813.1964      2699.2828      1854.2705      2683.7946     -2051.9752      206.96315      145.61817      3829.4837     -3968.872      -413.29885      69592.006      41.132627      41.132627      41.132627      0.99456097     634.77304      2148.7622      1360.1751    
     13900   13900          302.27239      190.66246      7668.9045      7475.3488      4816.5344      2658.8144      1869.0724      2630.5621     -2006.7117      206.9156       93.194262      3831.6418     -3965.8601     -413.19844      69608.919      41.135959      41.135959      41.135959      0.99431933    -2.8982773      1282.1481     -707.26239    
     14000   14000          294.68968     -668.81103      6706.0006      7385.4875      4695.7083      2689.7792      1791.9717      2656.1669     -1960.7532      209.13527      109.23309      3848.5961     -3964.5707     -412.87807      69662.932      41.146596      41.146596      41.146596      0.99354838    -664.09787      324.90966     -1667.2449    
     14100   14100          300.16084      148.4369       7520.3633      7369.3655      4782.888       2586.4775      1827.8265      2570.3222     -2023.984       199.44305      132.57195      3844.7673     -3964.4695     -412.35444      69751.392      41.164005      41.164005      41.164005      0.99228834    -507.5667       40.118779      912.75862    
     14200   14200          298.39325      1312.921       8808.3383      7470.6299      4754.7224      2715.9074      1877.9693      2675.7133     -2061.131       204.28612      139.81553      3845.3596     -3966.1053     -411.69595      69862.957      41.185941      41.185941      41.185941      0.99070374     2828.7883      1016.5106      93.464162    
     14300   14300          300.56178     -1450.0391      6066.4531      7546.7891      4789.2767      2757.5124      1812.0476      2640.2948     -1905.1038      209.24796      115.5831       3847.7412     -3962.2984     -410.88365      70001.073      41.213064      41.213064      41.213064      0.98874903    -868.88225     -2077.3604     -1403.8746    
     14400   14400          302.26739      499.24199      8022.0625      7510.9588      4816.4547      2694.5041      1825.3082      2638.383      -2002.788       209.32925      144.74982      3844.122      -3964.6002     -409.73355      70197.562      41.251588      41.251588      41.251588      0.98598144    -104.16181     -206.7924       1808.6802    
     14500   14500          303.2679      -117.64174      7346.6938      7467.3754      4832.3971      2634.9783      1865.3269      2595.0086     -2044.635       202.13337      136.84072      3843.155      -3962.8513     -408.90246      70340.238      41.279517      41.279517      41.279517      0.9839815     -953.49572      1152.0592     -551.48865    
     14600   14600          296.5744      -172.48132      7258.686       7435.7605      4725.7401      2710.0204      1808.8         2614.8166     -1974.3851      208.62601      181.64687      3836.6292     -3966.1132     -408.58789      70394.393      41.290108      41.290108      41.290108      0.98322452    -1173.9197      321.96065      334.51512    
     14700   14700          295.1695       589.61154      8055.322       7448.9504      4703.3539      2745.5964      1856.3751      2639.5911     -1977.8424      206.15838      155.99543      3829.4732     -3964.1545     -407.87451      70517.515      41.314167      41.314167      41.314167      0.98150783     553.14885      624.62784      591.05792    
     14800   14800          304.35924     -177.57904      7400.7581      7583.433       4849.787       2733.6461      1927.6863      2667.961      -2037.147       196.26114      102.7514       3839.8029     -3963.6697     -407.76704      70536.099      41.317796      41.317796      41.317796      0.98124924     1159.8427      162.04175     -1854.6216    
     14900   14900          306.10173     -265.19287      7371.3294      7643.4346      4877.5526      2765.8821      1766.6818      2643.2117     -1887.4313      208.18088      160.88646      3838.7447     -3964.3922     -408.81277      70355.67       41.282536      41.282536      41.282536      0.98376567     286.96285     -1009.2349     -73.30653     
     15000   15000          300.71745      651.61811      8233.2824      7564.312       4791.7573      2772.5547      1839.8441      2638.2688     -1970.652       206.68747      211.4205       3814.9606     -3967.9748     -408.5881       70394.357      41.290101      41.290101      41.290101      0.98322502     1795.6007      659.76781     -500.51419    
     15100   15100          301.47109     -148.4326       7310.9449      7463.6264      4803.766       2659.8604      1860.6244      2601.3376     -1997.1609      203.86205      126.53814      3830.6997     -3966.0406     -407.7954       70531.194      41.316838      41.316838      41.316838      0.98131747     22.715734      409.62014     -877.63366    
     15200   15200          298.11775      1357.7476      8820.5352      7425.2358      4750.3325      2674.9033      1813.3619      2634.0495     -2048.2277      199.73952      200.30158      3836.8811     -3961.2026     -408.1794       70464.84       41.303877      41.303877      41.303877      0.98224154     662.65629      1784.5323      1626.0541    
     15300   15300          299.45668      652.53236      8106.2289      7434.9228      4771.6676      2663.2552      1830.6982      2669.031      -2053.4711      197.05521      142.74116      3837.6569     -3960.4561     -407.73774      70541.169      41.318786      41.318786      41.318786      0.98117871     522.39033      1114.2712      320.93556    
     15400   15400          302.06401     -1193.1933      6297.95        7525.8882      4813.2138      2712.6744      1841.3699      2637.959      -1970.4659      198.92655      136.09785      3831.2489     -3962.4619     -407.5996       70565.075      41.323453      41.323453      41.323453      0.98084631    -910.63822     -372.68443     -2296.2573    
     15500   15500          303.19505     -18.039001      7613.8411      7632.367       4831.2364      2801.1306      1903.9557      2659.015      -2005.6572      196.72672      164.1092       3844.6278     -3961.6468     -408.44435      70419.132      41.294945      41.294945      41.294945      0.9828791     -268.39794      127.83121      86.449728    
     15600   15600          303.40107     -392.63019      7177.4182      7580.0396      4834.5192      2745.5205      1857.7181      2603.8835     -1950.9429      209.27698      145.07345      3840.5472     -3960.036      -409.05927      70313.275      41.274242      41.274242      41.274242      0.98435883    -533.31427      912.74627     -1557.3226    
     15700   15700          299.64203     -61.495482      7460.7274      7523.7634      4774.621       2749.1424      1871.7062      2651.1938     -1999.6976      208.71576      133.60521      3842.7163     -3959.0972     -409.21728      70286.124      41.268929      41.268929      41.268929      0.98473907    -816.9416      -470.00493      1102.4601    
     15800   15800          303.10438      1139.1221      8652.9164      7487.4904      4829.7916      2657.6988      1858.7647      2641.3863     -2069.5671      196.3199       137.05851      3852.5462     -3958.8097     -410.00109      70151.756      41.242614      41.242614      41.242614      0.98662524     9.7556044      1324.3131      2083.2975    
     15900   15900          301.5302       1143.1021      8598.0488      7430.7636      4804.708       2626.0556      1824.0863      2588.1038     -2016.8536      209.07146      133.81534      3847.6654     -3959.8332     -410.7783       70019.026      41.216587      41.216587      41.216587      0.98849551     1030.1327      2224.5257      174.64777    
     16000   16000          297.24079      8.82488        7388.1076      7379.1011      4736.3587      2642.7424      1817.6287      2619.5439     -1982.0698      210.18175      89.853362      3848.9066     -3961.302      -411.01003      69979.548      41.208839      41.208839      41.208839      0.98905315     1715.249       798.40296     -2487.1773    
     16100   16100          299.01664     -863.72295      6395.3756      7276.5032      4764.6558      2511.8474      1811.6572      2512.3202     -1994.3099      192.2378       101.42645      3850.5781     -3962.0624     -411.18299      69950.112      41.20306       41.20306       41.20306       0.98946937     613.90991     -1352.6531     -1852.4256    
     16200   16200          293.95578      288.27807      7614.0295      7319.8015      4684.0139      2635.7875      1874.198       2532.6279     -2008.9961      199.99748      144.23113      3854.1438     -3960.4147     -410.98594      69983.651      41.209644      41.209644      41.209644      0.98899517    -458.76645      1260.5777      63.022948    
     16300   16300          300.03465      678.1247       8133.4208      7439.7293      4780.8772      2658.8521      1882.1194      2579.7797     -2037.8747      200.11298      152.32082      3844.5925     -3962.1986     -410.05551      70142.447      41.240789      41.240789      41.240789      0.98675618     619.07382      988.53788      426.76241    
     16400   16400          299.78788     -660.56874      6804.0334      7482.1914      4776.945       2705.2464      1826.9737      2602.4717     -1946.4155      208.45688      130.18836      3843.4783     -3959.9071     -408.58889      70394.221      41.290075      41.290075      41.290075      0.98322692    -116.21399     -1147.3357     -718.15651    
     16500   16500          299.92838      134.49018      7652.8783      7514.3556      4779.1839      2735.1717      1875.2618      2665.7245     -2012.1619      200.47959      118.35458      3846.9979     -3959.4848     -407.25738      70624.371      41.335024      41.335024      41.335024      0.98002279    -268.68536      369.62887      302.52704    
     16600   16600          305.05132      73.028692      7629.0146      7553.7178      4860.815       2692.9028      1889.9055      2614.5729     -2056.5032      190.59854      170.24548      3845.3941     -3961.3104     -406.83326      70697.997      41.349383      41.349383      41.349383      0.97900218    -52.119682     -100.96644      372.1722     
     16700   16700          303.11989     -382.75685      7202.1655      7596.6429      4830.0386      2766.6043      1825.1654      2643.9936     -1935.7991      213.30928      127.36791      3852.7496     -3960.1825     -407.00544      70668.088      41.343551      41.343551      41.343551      0.97941652     1123.4203     -317.69866     -1953.9922    
     16800   16800          302.13179      359.86897      7950.5142      7579.5177      4814.2939      2765.2238      1853.7341      2662.7373     -2006.3432      207.06846      164.50615      3845.6213     -3962.1003     -406.8872       70688.625      41.347556      41.347556      41.347556      0.97913198     570.96923      124.89779      383.73991    
     16900   16900          297.86937      473.58044      7967.3112      7478.6701      4746.3747      2732.2954      1897.552       2649.1072     -2057.5656      202.81654      153.36886      3848.7742     -3961.7579     -406.53994      70749.005      41.359325      41.359325      41.359325      0.97829634     261.3004       500.23004      659.2109     
     17000   17000          295.93287     -450.37572      6949.3843      7413.7449      4715.5178      2698.2271      1772.961       2670.5082     -1978.0213      208.55896      143.75849      3842.3516     -3961.8899     -406.83572      70697.57       41.3493        41.3493        41.3493        0.97900809     145.09068     -1352.652      -143.56589    
     17100   17100          299.6626       46.540779      7487.3124      7439.4067      4774.9488      2664.4579      1867.9457      2605.8519     -2049.4712      198.20815      163.9033       3840.0128     -3961.9927     -407.51783      70579.235      41.326217      41.326217      41.326217      0.98064952    -10.160091      1236.3706     -1086.5881    
     17200   17200          305.32002      459.64966      8045.7474      7573.3569      4865.0964      2708.2604      1819.1024      2607.6222     -1983.8403      203.41574      191.51912      3832.7637     -3962.3225     -408.15512      70469.033      41.304697      41.304697      41.304697      0.9821831      1151.3737     -79.024277      306.59956    
     17300   17300          305.47287     -441.01115      7164.4344      7617.4089      4867.5321      2749.8768      1779.7587      2645.0772     -1904.3316      208.26755      141.47662      3841.7947     -3962.1664     -408.3902       70428.469      41.29677       41.29677       41.29677       0.98274879    -436.45383     -120.30498     -766.27465    
     17400   17400          303.51603     -635.38263      6914.3157      7566.5443      4836.351       2730.1933      1915.9995      2614.2897     -2005.6681      207.44394      117.2313       3844.4899     -3963.5929     -408.63446      70386.371      41.28854       41.28854       41.28854       0.98333657    -440.53176     -857.20172     -608.41443    
     17500   17500          300.4898       492.52981      7988.7524      7484.411       4788.1297      2696.2813      1801.5353      2588.7119     -1941.77        208.33562      162.3213       3842.7038     -3965.5566     -409.64472      70212.785      41.25457       41.25457       41.25457       0.98576766     54.971865      1448.4697     -25.852115    
     17600   17600          300.56169     -185.92539      7238.5005      7428.6287      4789.2753      2639.3534      1811.3341      2596.3151     -1962.9269      207.33008      110.25795      3841.979      -3964.9359     -410.19607      70118.411      41.236078      41.236078      41.236078      0.98709443    -3.0646027     -875.89944      321.18788    
     17700   17700          297.07108      843.54646      8241.8295      7380.7906      4733.6544      2647.1362      1861.0945      2582.6912     -2021.0876      209.19144      143.14636      3838.9337     -3966.8334     -410.94689      69990.301      41.21095       41.21095       41.21095       0.9889012      1841.7774      1021.3388     -332.47678    
     17800   17800          295.60042      282.80433      7663.1029      7375.0233      4710.2204      2664.803       1785.324       2587.1592     -1960.3025      206.81387      180.29177      3833.0137     -3967.4972     -411.78738      69847.446      41.182892      41.182892      41.182892      0.99092375     1537.3763      410.28218     -1099.2455    
     17900   17900          302.26543      386.93438      7877.449       7483.108       4816.4233      2666.6847      1809.4095      2581.0589     -1930.1059      207.79253      127.56211      3838.4625     -3967.495      -411.58998      69880.944      41.189475      41.189475      41.189475      0.99044874     1133.5736      800.57611     -773.34658    
     18000   18000          306.26005     -248.17231      7301.0051      7554.5189      4880.0753      2674.4435      1812.9411      2649.0072     -1979.1824      213.66885      102.50524      3839.7559     -3964.2522     -410.63048      70044.232      41.221532      41.221532      41.221532      0.98813979    -315.79261     -282.46699     -146.25734    
     18100   18100          299.47196     -122.92153      7383.0376      7508.731       4771.911       2736.82        1845.087       2572.0671     -1937.8891      214.64798      163.23577      3842.8517     -3963.1805     -410.21804      70114.656      41.235342      41.235342      41.235342      0.9871473      372.9182       573.99404     -1315.6768    
     18200   18200          295.87648     -233.48064      7168.201       7407.4536      4714.6192      2692.8344      1818.0219      2684.1408     -2020.9474      202.44508      127.3729       3845.0494     -3963.2482     -409.34883      70263.536      41.264508      41.264508      41.264508      0.98505565    -476.44435     -634.06961      410.07204    
     18300   18300          299.22153      616.42573      8007.6576      7375.9717      4767.9206      2608.0511      1798.7119      2584.8982     -2014.6164      198.35116      150.31322      3853.2683     -3962.8753     -409.33514      70265.886      41.264968      41.264968      41.264968      0.9850227      196.92839      520.23165      1132.1172    
     18400   18400          296.30574      572.11253      8008.8882      7422.1203      4721.4592      2700.661       1815.9348      2652.2506     -1991.987       212.51055      120.82282      3854.3957     -3963.2664     -408.99173      70324.885      41.276514      41.276514      41.276514      0.98419632     1532.6554     -399.50722      583.18943    
     18500   18500          297.95779      21.86762       7472.5392      7450.1111      4747.7837      2702.3274      1867.1039      2571.9728     -1981.5474      204.98477      150.60323      3851.068      -3961.8578     -408.98591      70325.886      41.27671       41.27671       41.27671       0.98418231     775.95346      31.127965     -741.47856    
     18600   18600          297.76761     -727.37486      6709.9562      7456.6185      4744.7532      2711.8653      1836.1441      2635.1572     -1979.7428      204.03442      131.60937      3847.4279     -3962.7648     -408.63309      70386.606      41.288586      41.288586      41.288586      0.98333329    -256.19273     -549.67729     -1376.2545    
     18700   18700          300.25487     -157.21666      7343.6427      7504.8414      4784.3863      2720.4551      1856.8224      2592.35       -1983.7804      207.1643       168.25229      3840.7684     -3961.1218     -409.10653      70305.151      41.272652      41.272652      41.272652      0.98447258     284.63762      1047.8509     -1804.1385    
     18800   18800          305.85324     -86.430281      7488.6101      7577.0925      4873.593       2703.4995      1839.7792      2589.5967     -1969.3555      212.32807      148.02772      3844.9877     -3961.8644     -409.74015      70196.432      41.251367      41.251367      41.251367      0.98599731     87.367819      48.367349     -395.02601    
     18900   18900          304.51951      1308.2527      8918.5888      7581.4282      4852.3408      2729.0873      1858.4716      2608.4528     -2000.703       213.60726      162.00545      3846.9769     -3959.7236     -410.40014      70083.544      41.229242      41.229242      41.229242      0.98758552     1545.4164      1292.1731      1087.1685    
     19000   19000          297.39711      422.25277      7854.8889      7423.8925      4738.8495      2685.043       1848.4955      2593.6132     -2004.1826      209.78489      141.20111      3853.8749     -3957.7439     -410.95886      69988.262      41.210549      41.210549      41.210549      0.98893002     1621.7358     -805.84594      450.86843    
     19100   19100          299.52682     -220.04803      7166.6526      7391.1293      4772.7853      2618.344       1772.771       2650.4595     -1999.963       198.66206      108.4444       3847.6178     -3959.6477     -411.19302      69948.407      41.202725      41.202725      41.202725      0.98949348    -378.03775      348.0285      -630.13485    
     19200   19200          296.78901      435.82792      7863.6079      7419.4236      4729.1598      2690.2637      1801.9291      2647.412      -1981.6712      203.68165      125.53274      3854.5177     -3961.1383     -411.57717      69883.119      41.189902      41.189902      41.189902      0.99041792     552.91392      708.25894      46.3109      
     19300   19300          299.65486     -226.66693      7286.8472      7518.0849      4774.8254      2743.2594      1852.2897      2642.9804     -1981.6312      206.82181      131.10069      3853.1836     -3961.4855     -411.17716      69951.105      41.203255      41.203255      41.203255      0.98945532    -522.14026      579.93822     -737.79875    
     19400   19400          301.94633      7.2440913      7583.3012      7575.8914      4811.3387      2764.5527      1902.2249      2651.3798     -1991.6861      205.84624      102.75948      3854.2939     -3960.2655     -410.09059      70136.447      41.239613      41.239613      41.239613      0.9868406      264.7352       475.21862     -718.22154    
     19500   19500          298.33944      71.125922      7601.999       7529.1471      4753.8651      2775.282       1903.4262      2611.6273     -1970.549       212.01394      129.10059      3850.2328     -3960.5698     -409.53045      70232.376      41.258407      41.258407      41.258407      0.98549268     553.87206      460.05197     -800.54627    
     19600   19600          298.18684      572.25538      7951.2465      7364.9018      4751.4334      2613.4684      1764.3558      2602.5052     -2003.6327      202.19691      157.47471      3851.6643     -3961.0959     -409.3891       70256.624      41.263155      41.263155      41.263155      0.98515255     958.49084      1349.2426     -590.96731    
     19700   19700          299.13748     -1000.3668      6320.9032      7347.8868      4766.5814      2581.3054      1816.6385      2623.4886     -2014.5686      192.9625       72.496366      3849.4191     -3959.1311     -408.59705      70392.816      41.2898        41.2898        41.2898        0.98324655    -86.194669     -229.56739     -2685.3384    
     19800   19800          296.27057     -436.84876      6967.1297      7415.048       4720.8988      2694.1493      1766.3562      2661.4517     -1971.7479      207.83922      140.08891      3850.5149     -3960.3538     -409.10214      70305.906      41.2728        41.2728        41.2728        0.984462      -182.65605     -554.46944     -573.4208     
     19900   19900          303.33352     -1281.2167      6186.5677      7497.6802      4833.4428      2664.2374      1830.5903      2655.2976     -1984.3706      204.96436      69.766979      3851.3917     -3963.403      -409.90394      70168.383      41.245872      41.245872      41.245872      0.98639145    -1398.541      -1911.1816     -533.92733    
     20000   20000          302.78321      1832.7669      9373.3392      7505.9929      4824.6739      2681.319       1842.8021      2675.4706     -2067.1382      201.54298      140.16347      3852.8621     -3964.384      -411.70092      69862.114      41.185775      41.185775      41.185775      0.9907157      1728.8813      2072.409       1697.0105    
     20100   20100          301.56458      587.11563      8036.5948      7440.0833      4805.2557      2634.8276      1842.7843      2599.1361     -2018.9226      195.66803      129.95056      3849.3244     -3963.1132     -412.86139      69665.746      41.14715       41.14715       41.14715       0.99350825     960.43642      1376.2044     -575.29395    
     20200   20200          292.85363     -1070.8527      6213.7239      7302.4535      4666.4518      2636.0018      1811.1679      2604.2784     -1933.1192      200.45681      77.452948      3840.113      -3964.348      -412.58089      69713.109      41.156473      41.156473      41.156473      0.99283326    -1480.2328     -1098.2076     -634.11756    
     20300   20300          292.30673     -350.81753      6963.4585      7320.9002      4657.7374      2663.1628      1802.1606      2617.0422     -1958.4026      203.42521      133.36369      3832.4317     -3966.8579     -411.69495      69863.126      41.185974      41.185974      41.185974      0.99070135     1462.0964     -1468.2358     -1046.3133    
     20400   20400          299.02436     -1409.5942      5968.9143      7410.3043      4764.7788      2645.5255      1794.039       2664.5949     -1992.0709      191.45148      111.47127      3842.0758     -3966.036      -410.21548      70115.093      41.235428      41.235428      41.235428      0.98714115    -307.09141     -1297.0359     -2624.6552    
     20500   20500          302.04797      492.29173      7978.477       7474.2668      4812.9583      2661.3084      1823.9686      2606.9156     -2005.542       200.85008      154.77621      3844.5801     -3964.2402     -409.55322      70228.471      41.257642      41.257642      41.257642      0.98554748    -207.26503      413.47738      1270.6628    
     20600   20600          300.40316      1228.9785      8760.8436      7497.786       4786.7492      2711.0368      1883.2166      2647.3848     -2045.7385      203.29712      139.17473      3847.5979     -3963.8959     -408.15073      70469.79       41.304845      41.304845      41.304845      0.98217254     1821.5347      1381.3281      484.0727     
     20700   20700          302.88315     -1054.861       6440.2236      7527.4015      4826.2665      2701.135       1793.7419      2628.8264     -1959.4777      195.90995      163.34399      3842.5        -3963.7094     -406.99967      70669.09       41.343747      41.343747      41.343747      0.97940263    -721.32526     -1899.6753     -543.58229    
     20800   20800          305.07439     -783.94896      6798.5882      7607.7276      4861.1825      2746.5452      1821.4235      2648.1844     -1971.9219      206.23968      160.19243      3845.7585     -3963.3315     -406.40951      70771.711      41.363749      41.363749      41.363749      0.97798248    -913.19198     -1051.3724     -387.2825     
     20900   20900          308.18071      60.882009      7726.8435      7663.9741      4910.6799      2753.2942      1847.9166      2649.4219     -2011.2513      214.19198      171.90818      3844.1792     -3963.0724     -406.20836      70806.756      41.370576      41.370576      41.370576      0.97749843    -692.17052     -263.75576      1138.5723    
     21000   21000          304.16203      572.33823      8144.6953      7554.7043      4846.6446      2708.0597      1852.9894      2654.2111     -2030.7914      197.52549      142.62437      3848.584      -3957.0833     -406.9179       70683.292      41.346516      41.346516      41.346516      0.97920585     399.46807      874.95485      442.59179    
     21100   21100          304.28458      398.11337      7867.6896      7458.7209      4848.5974      2610.1234      1836.448       2635.9795     -2048.7813      192.08018      112.35945      3842.0521     -3960.0145     -408.33455      70438.066      41.298646      41.298646      41.298646      0.98261489    -684.52215      1969.6189     -90.756649    
     21200   21200          297.76279     -259.73171      7146.4611      7412.493       4744.6764      2667.8166      1843.5455      2614.2885     -2010.7706      206.2101       130.79354      3845.6894     -3961.9397     -409.5346       70231.665      41.258268      41.258268      41.258268      0.98550267     111.55134      340.98476     -1231.7312    
     21300   21300          294.82414     -627.88335      6757.9369      7399.4465      4697.8507      2701.5957      1867.5711      2608.4739     -1989.1162      201.29287      133.19074      3846.4771     -3966.2937     -410.55871      70056.476      41.223934      41.223934      41.223934      0.98796709    -31.956846     -2354.1451      502.45192    
     21400   21400          302.34506      603.10363      8094.6038      7479.7573      4817.6923      2662.065       1813.5657      2640.2084     -2017.505       211.93422      135.42866      3845.1272     -3966.6942     -411.45718      69903.499      41.193906      41.193906      41.193906      0.99012917     1644.6519     -82.740095      247.39906    
     21500   21500          304.59647      1021.6595      8625.7429      7585.6146      4853.5671      2732.0475      1832.7286      2657.6299     -1990.0364      214.08202      140.90395      3842.6147     -3965.8752     -412.02041      69807.941      41.175127      41.175127      41.175127      0.99148453     556.60608      783.93219      1724.4402    
[...]
    495100   495100         299.97307      187.01684      7676.3831      7486.1071      4779.896       2706.2111      1898.4077      2614.5012     -1998.3784      206.19272      109.7215       3845.9038     -3970.1375     -412.28382      69763.341      41.166356      41.166356      41.166356      0.99211839     667.50475     -583.34703      476.89281    
    495200   495200         298.05738     -158.33417      7213.0726      7373.6957      4749.3705      2624.3252      1804.4385      2596.7108     -1974.4191      211.28627      109.69787      3843.9153     -3967.3044     -413.49114      69559.644      41.126251      41.126251      41.126251      0.99502368    -939.21193      1985.6359     -1521.4265    
    495300   495300         294.72608      452.75148      7760.2117      7302.2306      4696.2882      2605.9424      1817.9252      2596.8386     -2004.0955      202.26092      121.26412      3842.5819     -3970.8327     -414.67875      69360.431      41.086952      41.086952      41.086952      0.99788153     1010.7947      705.28399     -357.82428    
    495400   495400         297.71824      384.01006      7753.9139      7366.4018      4743.9666      2622.4353      1841.6709      2571.8499     -1961.2612      204.01101      99.285496      3837.891      -3971.0118     -415.67778      69193.732      41.05401       41.05401       41.05401       1.0002856      775.48527      612.79507     -236.25016    
    495500   495500         302.19099     -164.83062      7275.9621      7442.2325      4815.2372      2626.9953      1790.9781      2540.6127     -1908.7118      207.60668      125.71892      3840.4334     -3969.6426     -415.83639      69167.339      41.04879       41.04879       41.04879       1.0006673      162.21038     -685.73696      29.034721    
    495600   495600         299.02065      208.88087      7670.4024      7458.8263      4764.7198      2694.1066      1798.6051      2670.5787     -2007.629       213.19689      134.49419      3850.8258     -3965.9651     -414.12514      69453.153      41.105253      41.105253      41.105253      0.99654933     531.58731      584.18147     -489.12617    
    495700   495700         298.80291     -148.42954      7309.4876      7460.8066      4761.2501      2699.5566      1867.2807      2624.5546     -1977.1235      216.69222      88.271662      3844.3652     -3964.4843     -411.45863      69903.252      41.193857      41.193857      41.193857      0.99013266     537.45497     -755.31558     -227.428      
    495800   495800         298.17495      226.39538      7677.1656      7445.4845      4751.244       2694.2405      1796.6858      2649.8118     -1990.2497      204.29253      144.83946      3852.3686     -3963.5079     -409.89848      70169.318      41.246055      41.246055      41.246055      0.98637831    -749.41509      627.1745       801.42671    
    495900   495900         298.758       -1311.4366      6078.0183      7423.3261      4760.5346      2662.7915      1890.2714      2581.0415     -1975.5606      204.60201      70.439255      3853.5294     -3961.5315     -408.90749      70339.373      41.279348      41.279348      41.279348      0.9839936     -182.44435     -1468.5613     -2283.3041    
    496000   496000         294.58738     -149.54653      7250.3444      7403.4043      4694.0781      2709.3263      1812.4248      2635.7702     -1983.0578      199.03897      158.59061      3849.1299     -3962.5704     -409.84002      70179.327      41.248016      41.248016      41.248016      0.98623763     1028.7809      653.63507     -2131.0555    
    496100   496100         295.92156     -337.2296       7143.8876      7488.6824      4715.3376      2773.3448      1836.4223      2637.6866     -1938.1724      211.72587      139.65243      3850.7293     -3964.6993     -410.26501      70106.629      41.233768      41.233768      41.233768      0.98726032     487.19336     -823.01202     -675.87014    
    496200   496200         302.15877     -557.74646      6990.6416      7561.3298      4814.7238      2746.606       1833.579       2662.8039     -1950.3716      214.11339      97.546722      3852.4804     -3963.5458     -409.95612      70159.451      41.244122      41.244122      41.244122      0.98651703     381.18117     -1760.1207     -294.29987    
    496300   496300         303.90748      85.877811      7604.6291      7516.7878      4842.5886      2674.1992      1815.3711      2640.3964     -2010.2755      205.63488      136.05578      3849.6267     -3962.6102     -410.09224      70136.165      41.239558      41.239558      41.239558      0.98684457     112.03783      618.59867     -473.00306    
    496400   496400         297.57578      935.00689      8358.5839      7403.1223      4741.6966      2661.4257      1835.4675      2578.669      -1968.1751      207.49479      126.37136      3845.0362     -3963.438      -410.48849      70068.46       41.226284      41.226284      41.226284      0.98779813     696.70389      1869.4735      238.84328    
    496500   496500         299.61147      167.21273      7560.9099      7390.0252      4774.1341      2615.891       1806.7423      2581.3828     -1980.3479      208.46763      124.04825      3840.6462     -3965.0483     -410.45505      70074.169      41.227404      41.227404      41.227404      0.98771764     898.79086     -602.067        204.91433    
    496600   496600         298.1565       199.94486      7626.2875      7421.9327      4750.95        2670.9827      1757.78        2598.99       -1898.9563      217.14172      127.04919      3835.9167     -3966.9387     -410.41657      70080.738      41.228692      41.228692      41.228692      0.98762505     406.68073     -201.57654      394.73038    
    496700   496700         304.51488     -735.48047      6718.1115      7470.5432      4852.2671      2618.2761      1841.4237      2574.7757     -1961.8289      206.91882      80.582669      3843.3181     -3966.914      -410.01857      70148.766      41.242028      41.242028      41.242028      0.98666729    -152.09239     -1058.3164     -996.03263    
    496800   496800         300.04325      740.61729      8286.0824      7530.691       4781.0142      2749.6768      1855.7859      2585.8044     -1981.6029      212.0661       213.03248      3831.8266     -3967.2358     -411.26452      69936.246      41.200337      41.200337      41.200337      0.98966554     1367.4931      2.156596       852.20213    
    496900   496900         305.09943      464.79024      8116.8229      7643.5919      4861.5816      2782.0103      1889.3822      2710.2954     -1994.5415      211.05128      94.690729      3838.4219     -3967.2897     -411.98678      69813.64       41.176247      41.176247      41.176247      0.99140358     478.02185      1111.2449     -194.89598    
    497000   497000         306.01607      478.71724      8099.6868      7613.1344      4876.1876      2736.9468      1857.8207      2598.9224     -1975.5557      207.27046      183.44354      3833.706      -3968.6607     -412.71368      69690.678      41.152058      41.152058      41.152058      0.99315281    -154.15847      787.66318      802.64702    
    497100   497100         303.66042      733.52418      8204.1877      7458.1128      4838.6517      2619.4611      1862.5292      2652.479      -2056.446       207.09258      84.974381      3838.9296     -3970.0978     -412.41216      69741.631      41.162085      41.162085      41.162085      0.99242722     24.807624      781.35032      1394.4146    
    497200   497200         299.11146      1010.3757      8452.3759      7424.0743      4766.1667      2657.9076      1845.1027      2607.2766     -2008.4089      204.19302      139.75404      3839.0014     -3969.0113     -412.15616      69784.949      41.170606      41.170606      41.170606      0.99181118     994.93807      1318.1775      718.01144    
    497300   497300         298.08957     -162.48624      7273.4916      7438.9451      4749.8835      2689.0616      1796.7795      2635.316      -1941.4393      211.18034      105.46892      3849.1845     -3967.4284     -411.94593      69820.562      41.177608      41.177608      41.177608      0.99130529    -1240.2412      575.63362      177.14885    
    497400   497400         297.04596     -616.78926      6839.531       7467.5569      4733.2542      2734.3027      1804.5392      2633.4484     -1909.3644      210.75748      120.59379      3841.6366     -3967.3084     -411.96348      69817.588      41.177023      41.177023      41.177023      0.99134753     521.50339     -326.01151     -2045.8597    
    497500   497500         305.08971      738.43324      8246.8218      7495.3882      4861.4267      2633.9616      1774.7107      2620.9029     -1982.0828      211.40409      131.28064      3843.3296     -3965.5835     -412.21152      69775.576      41.168762      41.168762      41.168762      0.99194441     2323.4405      295.03314     -403.17393    
    497600   497600         302.23872      1065.069       8590.4216      7504.9443      4815.9978      2688.9465      1915.9561      2561.9845     -2008.5065      208.81243      132.17729      3842.1208     -3963.5982     -411.58209      69882.285      41.189738      41.189738      41.189738      0.99042974     1809.3306      1251.0642      134.81239    
    497700   497700         295.98085      94.65071       7516.8944      7420.3395      4716.2822      2704.0573      1872.1723      2649.1576     -2035.2404      204.4242       134.83821      3843.6839     -3964.9786     -411.19585      69947.926      41.202631      41.202631      41.202631      0.98950029     464.92863      831.73997     -1012.7165    
    497800   497800         295.85935     -447.31124      6892.6367      7348.8322      4714.3462      2634.486       1819.4385      2633.7717     -2005.1878      201.88686      123.06172      3831.0797     -3969.5647     -411.29958      69930.285      41.199167      41.199167      41.199167      0.98974991     40.393815     -1041.8668     -340.46073    
    497900   497900         294.45367     -632.82278      6751.8247      7397.347       4691.9475      2705.3995      1866.0041      2612.5304     -1977.1667      211.26149      128.31181      3832.0288     -3967.5703     -411.21631      69944.444      41.201947      41.201947      41.201947      0.98954954     786.7459      -1387.2439     -1297.9704    
    498000   498000         300.05372     -2256.5223      5218.1013      7519.0667      4781.1811      2737.8856      1878.1139      2665.423      -1961.7607      204.83136      80.523904      3838.0464     -3967.2923     -411.36656      69918.899      41.196931      41.196931      41.196931      0.98991109    -2387.8168     -2726.3459     -1655.4041    
    498100   498100         300.68136      583.37325      8120.4758      7527.2394      4791.1821      2736.0573      1794.2675      2659.3373     -1961.5604      202.17319      161.07638      3846.0378     -3965.2745     -412.49453      69727.704      41.159345      41.159345      41.159345      0.99262544     367.38429      700.42159      682.31386    
    498200   498200         298.97875      538.86629      8036.5151      7488.7633      4764.052       2724.7113      1830.9563      2702.4687     -2016.8253      206.09804      117.3236       3850.8772     -3966.1873     -412.66407      69699.058      41.153708      41.153708      41.153708      0.99303341     1003.5956      1130.5494     -517.54613    
    498300   498300         298.98347      436.15339      7870.0008      7426.9944      4764.1272      2662.8672      1842.6958      2656.2846     -2035.2331      201.07468      117.74029      3849.2936     -3968.9886     -412.97975      69645.779      41.143219      41.143219      41.143219      0.99379307     1298.3212     -709.03442      719.17336    
    498400   498400         293.97974      659.41232      8017.5739      7348.5456      4684.3958      2664.1498      1845.4443      2589.9531     -1985.8125      209.77078      114.04431      3854.8386     -3964.0888     -413.43955      69568.324      41.127961      41.127961      41.127961      0.99489954     1449.9018     -669.31869      1197.6539    
    498500   498500         291.97449     -476.44118      6810.0009      7294.0969      4652.4432      2641.6537      1848.8003      2629.3602     -2007.1372      199.82434      74.9879        3859.2612     -3963.4431     -412.83575      69670.073      41.148002      41.148002      41.148002      0.99344654    -780.6252      -204.51151     -444.18682    
    498600   498600         294.97167      580.99061      7919.3108      7327.1376      4700.2016      2626.936       1821.9         2595.1887     -2034.8805      198.40576      158.10638      3852.029      -3963.8134     -411.54735      69888.183      41.190897      41.190897      41.190897      0.99034616     392.76865      238.12821      1112.075     
    498700   498700         301.18129      861.95301      8353.7167      7471.9879      4799.1482      2672.8397      1814.2329      2637.0492     -2011.2248      210.43854      130.66595      3855.934      -3964.256      -410.06057      70141.58       41.24062       41.24062       41.24062       0.98676837     940.92876      418.07497      1226.8553    
    498800   498800         304.13526     -1197.1742      6325.342       7551.576       4846.2181      2705.3579      1829.3922      2597.3516     -1945.7029      207.06935      129.3762       3851.8892     -3964.0178     -409.52782      70232.827      41.258495      41.258495      41.258495      0.98548636    -1723.0452      56.045572     -1924.5229    
    498900   498900         299.51759      982.05926      8540.5294      7535.9175      4772.6382      2763.2793      1858.9218      2673.9817     -2024.42        204.13199      162.29806      3854.5282     -3966.1623     -410.0519       70143.064      41.240911      41.240911      41.240911      0.98674749     1722.4846     -232.0788       1455.772     
    499000   499000         296.06139     -1078.5141      6328.0008      7429.5532      4717.5657      2711.9875      1838.4052      2599.5272     -1902.4495      206.383        98.878278      3837.0886     -3965.8453     -410.69565      70033.116      41.219351      41.219351      41.219351      0.98829663    -2139.9226      560.50958     -1656.1292    
    499100   499100         298.51871     -45.927455      7334.9062      7381.6865      4756.7216      2624.9649      1813.2634      2600.3678     -1979.5453      203.20732      114.52177      3839.529      -3966.3791     -411.82084      69841.771      41.181777      41.181777      41.181777      0.99100427     1128.3076     -16.887467     -1249.2025    
    499200   499200         302.35701     -31.11206       7390.1484      7421.7578      4817.8827      2603.8751      1775.7323      2573.8347     -1948.5558      212.80961      121.29698      3837.0652     -3968.3079     -412.86951      69664.376      41.146881      41.146881      41.146881      0.99352779     1296.0951     -1134.1426     -255.28871    
    499300   499300         301.84587      1605.1206      9100.2807      7470.2847      4809.7379      2660.5468      1823.3151      2626.0807     -2033.1923      208.27687      162.83575      3840.2975     -3967.0669     -413.06707      69631.057      41.14032       41.14032       41.14032       0.9940032      599.30342      1716.6471      2499.4113    
    499400   499400         301.0599      -1053.4951      6404.7804      7477.5387      4797.2139      2680.3247      1800.5486      2562.2706     -1900.5586      207.87022      127.59032      3845.8304     -3963.2267     -411.93633      69822.19       41.177928      41.177928      41.177928      0.99128219    -1424.5257     -1029.4179     -706.54174    
    499500   499500         302.82025      352.66228      7825.9384      7465.3464      4825.2641      2640.0823      1811.5291      2601.9988     -1981.697       210.78053      110.77235      3850.3674     -3963.6688     -410.24409      70110.204      41.234469      41.234469      41.234469      0.98720998     426.95358      549.92765      81.105612    
    499600   499600         299.70603     -550.04821      6867.2364      7431.3568      4775.6409      2655.7159      1855.6343      2567.6823     -1961.3585      210.60196      113.24099      3837.9482     -3968.0333     -409.00479      70322.64       41.276075      41.276075      41.276075      0.98422774     301.22388     -831.33014     -1120.0384    
    499700   499700         295.71328     -83.65275       7296.5243      7382.5025      4712.0188      2670.4837      1844.9559      2589.5421     -1996.6201      206.68446      142.20424      3849.7447     -3966.0277     -408.12297      70474.584      41.305781      41.305781      41.305781      0.98210573     501.08753     -878.51954      126.47376    
    499800   499800         300.17534     -863.82506      6556.7923      7446.7825      4783.1191      2663.6634      1798.2767      2570.7961     -1953.0689      208.43291      167.18211      3839.0881     -3967.0436     -407.13645      70645.349      41.339117      41.339117      41.339117      0.97973178     706.06373     -2070.8403     -1226.6986    
    499900   499900         302.82742     -494.69437      7061.3693      7570.806       4825.3784      2745.4277      1823.4125      2609.5809     -1931.3761      217.52585      143.77316      3847.5155     -3965.0041     -407.32979      70611.818      41.332575      41.332575      41.332575      0.98019702    -162.93755     -971.85779     -349.28776    
    500000   500000         301.56351     -217.69361      7341.7395      7565.2514      4805.2387      2760.0126      1779.9606      2648.881      -1909.7647      220.79409      141.25684      3844.3719     -3965.4871     -408.54933      70401.038      41.291408      41.291408      41.291408      0.98313172     636.88631     -741.60062     -548.36651    
Loop time of 1080.42 on 1 procs for 500000 steps with 6420 atoms

Performance: 39.985 ns/day, 0.600 hours/ns, 462.784 timesteps/s, 2.971 Matom-step/s
100.0% CPU use with 1 MPI tasks x 1 OpenMP threads

MPI task timing breakdown:
Section |  min time  |  avg time  |  max time  |%varavg| %total
---------------------------------------------------------------
Pair    | 108.42     | 108.42     | 108.42     |   0.0 | 10.03
Bond    | 134.59     | 134.59     | 134.59     |   0.0 | 12.46
Kspace  | 455.15     | 455.15     | 455.15     |   0.0 | 42.13
Neigh   | 62.109     | 62.109     | 62.109     |   0.0 |  5.75
Comm    | 10.065     | 10.065     | 10.065     |   0.0 |  0.93
Output  | 4.9438     | 4.9438     | 4.9438     |   0.0 |  0.46
Modify  | 273.55     | 273.55     | 273.55     |   0.0 | 25.32
Other   |            | 31.59      |            |       |  2.92

Nlocal:           6420 ave        6420 max        6420 min
Histogram: 1 0 0 0 0 0 0 0 0 0
Nghost:          17751 ave       17751 max       17751 min
Histogram: 1 0 0 0 0 0 0 0 0 0
Neighs:              0 ave           0 max           0 min
Histogram: 1 0 0 0 0 0 0 0 0 0
FullNghs:  3.72266e+06 ave 3.72266e+06 max 3.72266e+06 min
Histogram: 1 0 0 0 0 0 0 0 0 0

Total # of neighbors = 3722656
Ave neighs/atom = 579.85296
Ave special neighs/atom = 5.8598131
Neighbor list builds = 11658
Dangerous builds = 0
System init for write_data ...
PPPM Kokkos initialization ...
  using 12-bit tables for long-range coulomb
  G vector (1/distance) = 0.3025322
  grid = 30 30 30
  stencil order = 5
  estimated absolute RMS force accuracy = 0.00027232335
  estimated relative force accuracy = 8.2009369e-07
  using double precision cuFFT
  3d grid and FFT values/proc = 50653 27000
Generated 6 of 6 mixed pair_coeff terms from sixthpower/sixthpower mixing rule
STAGE COMPLETE: NPT T=300.0->300.0K P=0.0->0.0atm steps=500000
