units real
atom_style full
boundary p p p

# --- Force Field Styles ---
pair_style lj/class2/coul/long 9.5 9.5
kspace_style pppm 1e-6
dielectric 1.000000
bond_style class2
angle_style class2
dihedral_style class2
improper_style class2
special_bonds lj/coul 0 0 1
pair_modify mix sixthpower tail yes
neighbor 2.0 bin
neigh_modify delay 0 every 1 check yes
neigh_modify one 4000
# KOKKOS: package loaded via -pk kokkos on the command line

read_data /home/alexzhao/PolyJarvis/data/PVC4/lammps/equil/npt_cool/npt_cool_out.data
Reading data file ...
  orthogonal box = (5.5755739 5.5755739 5.5755739) to (42.809921 42.809921 42.809921)
  1 by 1 by 1 MPI processor grid
  reading atoms ...
  3620 atoms
  reading velocities ...
  3620 velocities
  scanning bonds ...
  4 = max bonds/atom
  scanning angles ...
  12 = max angles/atom
  scanning dihedrals ...
  24 = max dihedrals/atom
  scanning impropers ...
  10 = max impropers/atom
  orthogonal box = (5.5755739 5.5755739 5.5755739) to (42.809921 42.809921 42.809921)
  1 by 1 by 1 MPI processor grid
  reading bonds ...
  3610 bonds
  reading angles ...
  7200 angles
  reading dihedrals ...
  10710 dihedrals
  reading impropers ...
  4800 impropers
Finding 1-2 1-3 1-4 neighbors ...
  special bond factors lj:    0        0        1       
  special bond factors coul:  0        0        1       
     4 = max # of 1-2 neighbors
     6 = max # of 1-3 neighbors
    10 = max # of special neighbors
  special bonds CPU = 0.002 seconds
  read_data CPU = 0.196 seconds
include /home/alexzhao/PolyJarvis/data/PVC4/lammps/equil/emc_build.params
# LAMMPS parameters created by EMC v9.4.4, build Jul 31 2025 20:33:44

# Variables

variable	seed		index	472913
variable	ntotal		index	3620
variable	fshape		index	1
variable	output		index	emc_build
variable	field		index	pcff/pcff
variable	location1	index	~/emc/field/
variable	nav		index	0.6022141179
variable	temperature	index	300
variable	radius		index	5
variable	nrelax		index	100
variable	weight_nonbond	index	0.0001
variable	weight_bond	index	0.0001
variable	weight_focus	index	1
variable	cutoff		index	9.5
variable	charge_cutoff	index	9.5
variable	kappa		index	4
variable	density1	index	0.55
variable	lprevious	index	0
variable	lphase		index	48.3854950346
variable	f_poly		index	10
variable	chem_repeat	index	*CC(Cl)*
variable	chem_cap	index	*[H]
variable	lg_repeat	index	6
variable	lg_cap		index	1
variable	norm_poly	index	100
variable	l_poly		index	362
variable	mg_repeat	index	50.48806
variable	mg_cap		index	1.00797
variable	m_poly		index	3031.29954
variable	n_poly		index	10
variable	mtotal		index	37519.6854
variable	nphase1		index	3620
variable	mphase1		index	37519.6854
variable	vphase1		index	113277.998291
variable	lbox		index	48.3854950346
variable	lphase1		index	48.3854950346
variable	lxx		index	48.3854950346
variable	lyy		index	48.3854950346
variable	lzz		index	48.3854950346
variable	lzy		index	0
variable	lzx		index	0
variable	lyx		index	0
variable	vtotal		index	113277.998291
variable	nl_poly		index	10

# Types

variable	type_c		index	1
variable	type_c1		index	2
variable	type_cl		index	3
variable	type_hc		index	4

variable	type_bond_c_c	index	1
variable	type_bond_c_c1	index	2
variable	type_bond_c_cl	index	3
variable	type_bond_c_hc	index	4
variable	type_bond_c1_cl	index	5
variable	type_bond_c1_hc	index	6

variable	type_angle_c_c_c1 index	1
variable	type_angle_c_c_cl index	2
variable	type_angle_c_c_hc index	3
variable	type_angle_c_c1_c index	4
variable	type_angle_c_c1_cl index	5
variable	type_angle_c_c1_hc index	6
variable	type_angle_c1_c_c1 index	7
variable	type_angle_c1_c_hc index	8
variable	type_angle_cl_c_hc index	9
variable	type_angle_cl_c1_hc index	10
variable	type_angle_hc_c_hc index	11

# Clusters

variable	n0_poly		index	1
variable	n1_poly		index	10
variable	nl_poly		index	10

# Flags

variable	flag_charged	index	1

# Masses

mass		1    12.01115  # c
mass		2    12.01115  # c1
mass		3    35.45300  # cl
mass		4     1.00797  # hc

# Potentials

pair_modify	mix sixthpower tail yes
special_bonds	lj/coul 0 0 1

# Pair Coeffs

pair_coeff	 1  1    0.05400    4.01000  # c,c
pair_coeff	 2  2    0.05400    4.01000  # c1,c1
pair_coeff	 3  3    0.22470    3.92000  # cl,cl
pair_coeff	 4  4    0.02000    2.99500  # hc,hc

# Bond Coeffs

bond_coeff	1    1.53000  299.67000 -501.77000  679.81000  # c,c
bond_coeff	2    1.53000  299.67000 -501.77000  679.81000  # c,c1
bond_coeff	3    1.79000  194.31900    0.00000    0.00000  # c,cl
bond_coeff	4    1.10100  345.00000 -691.89000  844.60000  # c,hc
bond_coeff	5    1.79000  194.31900    0.00000    0.00000  # c1,cl
bond_coeff	6    1.10100  345.00000 -691.89000  844.60000  # c1,hc

# Angle Coeffs

angle_coeff	 1  112.67000   39.51600   -7.44300   -9.55830  # c,c,c1
angle_coeff	 2  107.00000   61.17450    0.00000    0.00000  # c,c,cl
angle_coeff	 3  110.77000   41.45300  -10.60400    5.12900  # c,c,hc
angle_coeff	 4  112.67000   39.51600   -7.44300   -9.55830  # c,c1,c
angle_coeff	 5  107.00000   61.17450    0.00000    0.00000  # c,c1,cl
angle_coeff	 6  110.77000   41.45300  -10.60400    5.12900  # c,c1,hc
angle_coeff	 7  112.67000   39.51600   -7.44300   -9.55830  # c1,c,c1
angle_coeff	 8  110.77000   41.45300  -10.60400    5.12900  # c1,c,hc
angle_coeff	 9  107.99680   51.09870    0.00000    0.00000  # cl,c,hc
angle_coeff	10  107.99680   51.09870    0.00000    0.00000  # cl,c1,hc
angle_coeff	11  107.66000   39.64100  -12.92100   -2.43180  # hc,c,hc

# BondBond Coeffs

angle_coeff	 1 bb    0.00000    1.53000    1.53000  # c,c,c1
angle_coeff	 2 bb    0.00000    1.53000    1.79000  # c,c,cl
angle_coeff	 3 bb    3.38720    1.53000    1.10100  # c,c,hc
angle_coeff	 4 bb    0.00000    1.53000    1.53000  # c,c1,c
angle_coeff	 5 bb    0.00000    1.53000    1.79000  # c,c1,cl
angle_coeff	 6 bb    3.38720    1.53000    1.10100  # c,c1,hc
angle_coeff	 7 bb    0.00000    1.53000    1.53000  # c1,c,c1
angle_coeff	 8 bb    3.38720    1.53000    1.10100  # c1,c,hc
angle_coeff	 9 bb    0.00000    1.79000    1.10100  # cl,c,hc
angle_coeff	10 bb    0.00000    1.79000    1.10100  # cl,c1,hc
angle_coeff	11 bb    5.33160    1.10100    1.10100  # hc,c,hc

# BondAngle Coeffs

angle_coeff	 1 ba    8.01600    8.01600    1.53000    1.53000  # c,c,c1
angle_coeff	 2 ba    0.00000    0.00000    1.53000    1.79000  # c,c,cl
angle_coeff	 3 ba   20.75400   11.42100    1.53000    1.10100  # c,c,hc
angle_coeff	 4 ba    8.01600    8.01600    1.53000    1.53000  # c,c1,c
angle_coeff	 5 ba    0.00000    0.00000    1.53000    1.79000  # c,c1,cl
angle_coeff	 6 ba   20.75400   11.42100    1.53000    1.10100  # c,c1,hc
angle_coeff	 7 ba    8.01600    8.01600    1.53000    1.53000  # c1,c,c1
angle_coeff	 8 ba   20.75400   11.42100    1.53000    1.10100  # c1,c,hc
angle_coeff	 9 ba    0.00000    0.00000    1.79000    1.10100  # cl,c,hc
angle_coeff	10 ba    0.00000    0.00000    1.79000    1.10100  # cl,c1,hc
angle_coeff	11 ba   18.10300   18.10300    1.10100    1.10100  # hc,c,hc

# Dihedral Coeffs

dihedral_coeff	 1    0.00000    0.00000    0.05140    0.00000   -0.14300    0.00000  # c,c,c1,c
dihedral_coeff	 2    0.00000    0.00000    0.00000    0.00000    0.15000    0.00000  # c,c,c1,cl
dihedral_coeff	 3    0.00000    0.00000    0.03160    0.00000   -0.16810    0.00000  # c,c,c1,hc
dihedral_coeff	 4    0.00000    0.00000    0.05140    0.00000   -0.14300    0.00000  # c,c1,c,c1
dihedral_coeff	 5    0.00000    0.00000    0.03160    0.00000   -0.16810    0.00000  # c,c1,c,hc
dihedral_coeff	 6    0.00000    0.00000    0.00000    0.00000    0.15000    0.00000  # c1,c,c,cl
dihedral_coeff	 7    0.00000    0.00000    0.03160    0.00000   -0.16810    0.00000  # c1,c,c,hc
dihedral_coeff	 8    0.00000    0.00000    0.00000    0.00000    0.15000    0.00000  # c1,c,c1,cl
dihedral_coeff	 9    0.00000    0.00000    0.03160    0.00000   -0.16810    0.00000  # c1,c,c1,hc
dihedral_coeff	10    0.00000    0.00000    0.00000    0.00000   -0.10000    0.00000  # cl,c,c,hc
dihedral_coeff	11    0.00000    0.00000    0.00000    0.00000   -0.10000    0.00000  # cl,c1,c,hc
dihedral_coeff	12   -0.14320    0.00000    0.06170    0.00000   -0.10830    0.00000  # hc,c,c,hc
dihedral_coeff	13   -0.14320    0.00000    0.06170    0.00000   -0.10830    0.00000  # hc,c,c1,hc

# MiddleBondTorsion Coeffs

dihedral_coeff	 1 mbt  -17.78700   -7.18770    0.00000    1.53000  # c,c,c1,c
dihedral_coeff	 2 mbt    0.00000    0.00000    0.00000    1.53000  # c,c,c1,cl
dihedral_coeff	 3 mbt  -14.87900   -3.65810   -0.31380    1.53000  # c,c,c1,hc
dihedral_coeff	 4 mbt  -17.78700   -7.18770    0.00000    1.53000  # c,c1,c,c1
dihedral_coeff	 5 mbt  -14.87900   -3.65810   -0.31380    1.53000  # c,c1,c,hc
dihedral_coeff	 6 mbt    0.00000    0.00000    0.00000    1.53000  # c1,c,c,cl
dihedral_coeff	 7 mbt  -14.87900   -3.65810   -0.31380    1.53000  # c1,c,c,hc
dihedral_coeff	 8 mbt    0.00000    0.00000    0.00000    1.53000  # c1,c,c1,cl
dihedral_coeff	 9 mbt  -14.87900   -3.65810   -0.31380    1.53000  # c1,c,c1,hc
dihedral_coeff	10 mbt    0.00000    0.00000    0.00000    1.53000  # cl,c,c,hc
dihedral_coeff	11 mbt    0.00000    0.00000    0.00000    1.53000  # cl,c1,c,hc
dihedral_coeff	12 mbt  -14.26100   -0.53220   -0.48640    1.53000  # hc,c,c,hc
dihedral_coeff	13 mbt  -14.26100   -0.53220   -0.48640    1.53000  # hc,c,c1,hc

# EndBondTorsion Coeffs

dihedral_coeff	 1 ebt   -0.07320    0.00000    0.00000   -0.07320    0.00000    0.00000    1.53000    1.53000  # c,c,c1,c
dihedral_coeff	 2 ebt    0.00000    0.00000    0.00000    0.00000    0.00000    0.00000    1.53000    1.79000  # c,c,c1,cl
dihedral_coeff	 3 ebt    0.24860    0.24220   -0.09250    0.08140    0.05910    0.22190    1.53000    1.10100  # c,c,c1,hc
dihedral_coeff	 4 ebt   -0.07320    0.00000    0.00000   -0.07320    0.00000    0.00000    1.53000    1.53000  # c,c1,c,c1
dihedral_coeff	 5 ebt    0.24860    0.24220   -0.09250    0.08140    0.05910    0.22190    1.53000    1.10100  # c,c1,c,hc
dihedral_coeff	 6 ebt    0.00000    0.00000    0.00000    0.00000    0.00000    0.00000    1.53000    1.79000  # c1,c,c,cl
dihedral_coeff	 7 ebt    0.24860    0.24220   -0.09250    0.08140    0.05910    0.22190    1.53000    1.10100  # c1,c,c,hc
dihedral_coeff	 8 ebt    0.00000    0.00000    0.00000    0.00000    0.00000    0.00000    1.53000    1.79000  # c1,c,c1,cl
dihedral_coeff	 9 ebt    0.24860    0.24220   -0.09250    0.08140    0.05910    0.22190    1.53000    1.10100  # c1,c,c1,hc
dihedral_coeff	10 ebt    0.00000    0.00000    0.00000    0.00000    0.00000    0.00000    1.79000    1.10100  # cl,c,c,hc
dihedral_coeff	11 ebt    0.00000    0.00000    0.00000    0.00000    0.00000    0.00000    1.79000    1.10100  # cl,c1,c,hc
dihedral_coeff	12 ebt    0.21300    0.31200    0.07770    0.21300    0.31200    0.07770    1.10100    1.10100  # hc,c,c,hc
dihedral_coeff	13 ebt    0.21300    0.31200    0.07770    0.21300    0.31200    0.07770    1.10100    1.10100  # hc,c,c1,hc

# AngleTorsion Coeffs

dihedral_coeff	 1 at    0.38860   -0.31390    0.13890    0.38860   -0.31390    0.13890  112.67000  112.67000  # c,c,c1,c
dihedral_coeff	 2 at    0.00000    0.00000    0.00000    0.00000    0.00000    0.00000  112.67000  107.00000  # c,c,c1,cl
dihedral_coeff	 3 at   -0.24540    0.00000   -0.11360    0.31130    0.45160   -0.19880  112.67000  110.77000  # c,c,c1,hc
dihedral_coeff	 4 at    0.38860   -0.31390    0.13890    0.38860   -0.31390    0.13890  112.67000  112.67000  # c,c1,c,c1
dihedral_coeff	 5 at   -0.24540    0.00000   -0.11360    0.31130    0.45160   -0.19880  112.67000  110.77000  # c,c1,c,hc
dihedral_coeff	 6 at    0.00000    0.00000    0.00000    0.00000    0.00000    0.00000  112.67000  107.00000  # c1,c,c,cl
dihedral_coeff	 7 at   -0.24540    0.00000   -0.11360    0.31130    0.45160   -0.19880  112.67000  110.77000  # c1,c,c,hc
dihedral_coeff	 8 at    0.00000    0.00000    0.00000    0.00000    0.00000    0.00000  112.67000  107.00000  # c1,c,c1,cl
dihedral_coeff	 9 at   -0.24540    0.00000   -0.11360    0.31130    0.45160   -0.19880  112.67000  110.77000  # c1,c,c1,hc
dihedral_coeff	10 at    0.00000    0.00000    0.00000    0.00000    0.00000    0.00000  107.00000  110.77000  # cl,c,c,hc
dihedral_coeff	11 at    0.00000    0.00000    0.00000    0.00000    0.00000    0.00000  107.00000  110.77000  # cl,c1,c,hc
dihedral_coeff	12 at   -0.80850    0.55690   -0.24660   -0.80850    0.55690   -0.24660  110.77000  110.77000  # hc,c,c,hc
dihedral_coeff	13 at   -0.80850    0.55690   -0.24660   -0.80850    0.55690   -0.24660  110.77000  110.77000  # hc,c,c1,hc

# AngleAngleTorsion Coeffs

dihedral_coeff	 1 aat  -22.04500  112.67000  112.67000  # c,c,c1,c
dihedral_coeff	 2 aat    0.00000  112.67000  107.00000  # c,c,c1,cl
dihedral_coeff	 3 aat  -16.16400  112.67000  110.77000  # c,c,c1,hc
dihedral_coeff	 4 aat  -22.04500  112.67000  112.67000  # c,c1,c,c1
dihedral_coeff	 5 aat  -16.16400  112.67000  110.77000  # c,c1,c,hc
dihedral_coeff	 6 aat    0.00000  112.67000  107.00000  # c1,c,c,cl
dihedral_coeff	 7 aat  -16.16400  112.67000  110.77000  # c1,c,c,hc
dihedral_coeff	 8 aat    0.00000  112.67000  107.00000  # c1,c,c1,cl
dihedral_coeff	 9 aat  -16.16400  112.67000  110.77000  # c1,c,c1,hc
dihedral_coeff	10 aat    0.00000  107.00000  110.77000  # cl,c,c,hc
dihedral_coeff	11 aat    0.00000  107.00000  110.77000  # cl,c1,c,hc
dihedral_coeff	12 aat  -12.56400  110.77000  110.77000  # hc,c,c,hc
dihedral_coeff	13 aat  -12.56400  110.77000  110.77000  # hc,c,c1,hc

# BondBond13 Coeffs

dihedral_coeff	 1 bb13    0.00000    1.53000    1.53000  # c,c,c1,c
dihedral_coeff	 2 bb13    0.00000    1.53000    1.79000  # c,c,c1,cl
dihedral_coeff	 3 bb13    0.00000    1.53000    1.10100  # c,c,c1,hc
dihedral_coeff	 4 bb13    0.00000    1.53000    1.53000  # c,c1,c,c1
dihedral_coeff	 5 bb13    0.00000    1.53000    1.10100  # c,c1,c,hc
dihedral_coeff	 6 bb13    0.00000    1.53000    1.79000  # c1,c,c,cl
dihedral_coeff	 7 bb13    0.00000    1.53000    1.10100  # c1,c,c,hc
dihedral_coeff	 8 bb13    0.00000    1.53000    1.79000  # c1,c,c1,cl
dihedral_coeff	 9 bb13    0.00000    1.53000    1.10100  # c1,c,c1,hc
dihedral_coeff	10 bb13    0.00000    1.79000    1.10100  # cl,c,c,hc
dihedral_coeff	11 bb13    0.00000    1.79000    1.10100  # cl,c1,c,hc
dihedral_coeff	12 bb13    0.00000    1.10100    1.10100  # hc,c,c,hc
dihedral_coeff	13 bb13    0.00000    1.10100    1.10100  # hc,c,c1,hc

# Improper Coeffs

improper_coeff	 1    0.00000    0.00000  # c,c,cl,hc
improper_coeff	 2    0.00000    0.00000  # c,c,hc,c1
improper_coeff	 3    0.00000    0.00000  # c,c,hc,cl
improper_coeff	 4    0.00000    0.00000  # c,c,hc,hc
improper_coeff	 5    0.00000    0.00000  # c,c1,c1,hc
improper_coeff	 6    0.00000    0.00000  # c,c1,hc,hc
improper_coeff	 7    0.00000    0.00000  # c,cl,hc,hc
improper_coeff	 8    0.00000    0.00000  # c,hc,hc,hc
improper_coeff	 9    0.00000    0.00000  # c1,c,c,cl
improper_coeff	10    0.00000    0.00000  # c1,c,c,hc
improper_coeff	11    0.00000    0.00000  # c1,c,cl,hc

# AngleAngle Coeffs

improper_coeff	 1 aa    0.00000    0.00000    0.00000  107.00000  110.77000  107.99680  # c,c,cl,hc
improper_coeff	 2 aa    0.11840   -1.31990   -1.31990  110.77000  112.67000  110.77000  # c,c,hc,c1
improper_coeff	 3 aa    0.00000    0.00000    0.00000  110.77000  107.00000  107.99680  # c,c,hc,cl
improper_coeff	 4 aa    0.27380   -0.48250    0.27380  110.77000  110.77000  107.66000  # c,c,hc,hc
improper_coeff	 5 aa   -1.31990   -1.31990    0.11840  112.67000  110.77000  110.77000  # c,c1,c1,hc
improper_coeff	 6 aa    0.27380   -0.48250    0.27380  110.77000  110.77000  107.66000  # c,c1,hc,hc
improper_coeff	 7 aa    0.00000    0.00000    0.00000  107.99680  107.99680  107.66000  # c,cl,hc,hc
improper_coeff	 8 aa   -0.31570   -0.31570   -0.31570  107.66000  107.66000  107.66000  # c,hc,hc,hc
improper_coeff	 9 aa    0.00000    0.00000    0.00000  112.67000  107.00000  107.00000  # c1,c,c,cl
improper_coeff	10 aa   -1.31990   -1.31990    0.11840  112.67000  110.77000  110.77000  # c1,c,c,hc
improper_coeff	11 aa    0.00000    0.00000    0.00000  107.00000  110.77000  107.99680  # c1,c,cl,hc


# --- Thermo Output ---
thermo_style custom step time temp press enthalpy etotal ke pe ebond eangle edihed eimp evdwl ecoul elong etail vol lx ly lz density pxx pyy pzz
thermo_modify flush yes
thermo 1000

# --- Trajectory ---
dump dump_nvt all custom 1000 nvt_production.dump id type mol x y z ix iy iz vx vy vz

# --- Restart Checkpointing ---
# No restart checkpointing

# --- Initial Velocities (optional) ---
# Velocities read from data file

# --- SHAKE Constraints ---
# Constrains H-X bonds to allow 2fs timestep
# SHAKE disabled

# --- NVT Thermostat (Nose-Hoover) ---
# T_damp = 100.0 fs  (coupling timescale for heat exchange)
# Ramp: 530.0 K -> 530.0 K over 1000000 steps
timestep 1.0
fix nvt_fix all nvt temp 530.0 530.0 100.0

run 1000000
PPPM Kokkos initialization ...
  using 12-bit tables for long-range coulomb
  G vector (1/distance) = 0.29551199
  grid = 25 25 25
  stencil order = 5
  estimated absolute RMS force accuracy = 0.00035157799
  estimated relative force accuracy = 1.0587667e-06
  using double precision cuFFT
  3d grid and FFT values/proc = 32768 15625
Generated 6 of 6 mixed pair_coeff terms from sixthpower/sixthpower mixing rule
Neighbor list info ...
  update: every = 1 steps, delay = 0 steps, check = yes
  max neighbors/atom: 4000, page size: 100000
  master list distance cutoff = 11.5
  ghost atom cutoff = 11.5
  binsize = 11.5, bins = 4 4 4
  1 neighbor lists, perpetual/occasional/extra = 1 0 0
  (1) pair lj/class2/coul/long/kk, perpetual
      attributes: full, newton off, kokkos_device
      pair build: full/bin/kk/device
      stencil: full/bin/3d
      bin: kk/device
Per MPI rank memory allocation (min/avg/max) = 24.29 | 24.29 | 24.29 Mbytes
   Step          Time           Temp          Press         Enthalpy        TotEng         KinEng         PotEng         E_bond        E_angle        E_dihed        E_impro         E_vdwl         E_coul         E_long         E_tail         Volume           Lx             Ly             Lz          Density          Pxx            Pyy            Pzz      
         0   0              534.7028      -441.45686      4934.1384      5266.4882      5768.1341     -501.64588      2335.1792      3219.0839     -1913.2883      21.895298     -420.97837     -1531.0143     -2212.5234     -245.14859      51621.573      37.234347      37.234347      37.234347      1.2069159      476.68756      525.49834     -2326.5565    
      1000   1000           515.8549      -176.74427      4926.8758      5059.9373      5564.8113     -504.87402      2388.3612      3212.7214     -1933.3654      22.592588     -409.9358      -1556.0313     -2229.2168     -245.14859      51621.573      37.234347      37.234347      37.234347      1.2069159      56.681252      366.79806     -953.71213    
      2000   2000           534.40784      509.73844      5544.1953      5160.4399      5764.9522     -604.51228      2176.2175      3255.4249     -1921.068       21.674518     -356.42941     -1552.7549     -2227.5768     -245.14859      51621.573      37.234347      37.234347      37.234347      1.2069159      382.55239     -983.93912      2130.602     
      3000   3000           545.42319     -1260.9825      4387.8485      5337.1762      5883.7808     -546.60462      2306.8863      3144.8358     -1879.2554      21.403459     -384.37589     -1544.743      -2211.3559     -245.14859      51621.573      37.234347      37.234347      37.234347      1.2069159     -392.93897     -2464.843      -925.16537    
      4000   4000           543.95046      1046.1838      5949.2133      5161.5962      5867.8937     -706.29748      2153.2467      3183.1642     -1899.6926      21.056951     -383.35652     -1553.3375     -2227.3787     -245.14859      51621.573      37.234347      37.234347      37.234347      1.2069159      254.21984      1823.8514      1060.4803    
      5000   5000           532.91661     -382.33274      4897.4617      5185.3         5748.8655     -563.56549      2225.268       3240.6064     -1881.5247      20.03222      -403.08361     -1541.7684     -2223.0954     -245.14859      51621.573      37.234347      37.234347      37.234347      1.2069159     -1007.4309      403.8535      -543.42079    
      6000   6000           528.27703      668.5286       5665.913       5162.6127      5698.8157     -536.20293      2256.0394      3206.3468     -1871.7232      22.009952     -378.26115     -1550.0118     -2220.603      -245.14859      51621.573      37.234347      37.234347      37.234347      1.2069159     -961.70113      2231.3679      735.91898    
      7000   7000           529.89897     -140.13511      4991.6848      5097.1852      5716.3124     -619.12729      2240.93        3201.2303     -1885.8717      20.070919     -427.81109     -1545.8833     -2221.7923     -245.14859      51621.573      37.234347      37.234347      37.234347      1.2069159      4.0230571     -993.28956      568.86116    
      8000   8000           537.17037     -286.42286      4909.4076      5125.0404      5794.753      -669.71265      2235.7788      3191.449      -1911.9196      22.111333     -430.88461     -1550.6028     -2225.6448     -245.14859      51621.573      37.234347      37.234347      37.234347      1.2069159     -1019.2805     -892.46054      1052.4725    
      9000   9000           528.4366       721.04199      5664.8072      5121.9724      5700.5371     -578.56476      2184.7853      3255.7596     -1878.7794      21.111475     -374.07679     -1556.5753     -2230.7896     -245.14859      51621.573      37.234347      37.234347      37.234347      1.2069159      374.038        1109.2345      679.85346    
     10000   10000          526.14754     -68.507133      4970.9089      5022.4843      5675.8438     -653.35945      2258.2561      3174.4174     -1919.149       22.014024     -421.27687     -1544.4037     -2223.2175     -245.14859      51621.573      37.234347      37.234347      37.234347      1.2069159     -1365.8911      1525.4234     -365.05365    
     11000   11000          530.70153     -52.212588      5067.7279      5107.0361      5724.9702     -617.9341       2318.8736      3162.7456     -1886.904       19.548519     -464.93635     -1543.8811     -2223.3803     -245.14859      51621.573      37.234347      37.234347      37.234347      1.2069159     -1084.3344      66.293705      861.40298    
     12000   12000          510.44145     -705.80398      4633.9826      5165.3455      5506.4134     -341.0679       2390.0829      3298.195      -1881.8873      22.059282     -392.97393     -1549.9185     -2226.6254     -245.14859      51621.573      37.234347      37.234347      37.234347      1.2069159      616.25046     -1693.9182     -1039.7442    
     13000   13000          520.33248     -716.36851      4464.2727      5003.5891      5613.1134     -609.52438      2265.0179      3174.943      -1897.7076      21.272124     -405.48173     -1545.5521     -2222.0161     -245.14859      51621.573      37.234347      37.234347      37.234347      1.2069159      1585.9034      280.88678     -4015.8957    
     14000   14000          529.67182      641.26137      5498.7199      5015.9477      5713.8621     -697.91435      2206.7199      3131.5077     -1864.4767      19.758473     -422.85614     -1544.9422     -2223.6253     -245.14859      51621.573      37.234347      37.234347      37.234347      1.2069159      2579.4342      1.5025387     -657.15261    
     15000   15000          529.63176     -329.8518       4932.5962      5180.9244      5713.4299     -532.50553      2227.4671      3160.9424     -1848.6718      20.284223     -341.03638     -1536.2154     -2215.2756     -245.14859      51621.573      37.234347      37.234347      37.234347      1.2069159     -2026.7988     -398.77314      1436.0166    
     16000   16000          537.15172      544.14024      5602.503       5192.8483      5794.5519     -601.70362      2258.6616      3138.8673     -1894.8303      20.186269     -379.14238     -1527.6481     -2217.798      -245.14859      51621.573      37.234347      37.234347      37.234347      1.2069159      2699.1428      749.09377     -1815.8158    
     17000   17000          541.97853     -193.08491      5157.8399      5303.2034      5846.6214     -543.41793      2187.9059      3215.0589     -1874.3821      21.315483     -327.59633     -1541.7013     -2224.0185     -245.14859      51621.573      37.234347      37.234347      37.234347      1.2069159     -1478.6468      1095.3866     -195.99452    
     18000   18000          529.7534      -409.42693      4912.2545      5220.4906      5714.7421     -494.25152      2339.1413      3183.9661     -1861.5332      21.255334     -413.23584     -1536.5689     -2227.2763     -245.14859      51621.573      37.234347      37.234347      37.234347      1.2069159     -455.72598     -1431.3826      658.82778    
     19000   19000          528.4356       137.49496      5101.6931      4998.1803      5700.5263     -702.346        2200.4077      3073.1861     -1869.6976      20.517711     -361.14313     -1545.1804     -2220.4364     -245.14859      51621.573      37.234347      37.234347      37.234347      1.2069159     -1210.3321      18.416075      1604.4009    
     20000   20000          529.43997      929.93611      5790.3411      5090.2408      5711.361      -621.12015      2250.6656      3172.4043     -1870.3528      22.054123     -444.16805     -1532.5031     -2219.2202     -245.14859      51621.573      37.234347      37.234347      37.234347      1.2069159      2265.6887     -376.82838      900.94799    
     21000   21000          537.47954     -1030.2846      4363.4074      5139.0547      5798.0883     -659.03355      2222.658       3162.8135     -1868.8488      23.015337     -435.33217     -1542.2656     -2221.0738     -245.14859      51621.573      37.234347      37.234347      37.234347      1.2069159     -946.99818     -1385.8098     -758.04571    
     22000   22000          541.08288      2045.6254      6872.2845      5332.2402      5836.9595     -504.7193       2216.7685      3269.2529     -1896.883       22.888494     -343.98745     -1549.688      -2223.0709     -245.14859      51621.573      37.234347      37.234347      37.234347      1.2069159      2143.0027      2727.8842      1265.9892    
     23000   23000          518.69026      1144.709       5922.8091      5061.0175      5595.3979     -534.38036      2242.5853      3242.0959     -1878.1492      21.960932     -391.78492     -1548.0681     -2223.0203     -245.14859      51621.573      37.234347      37.234347      37.234347      1.2069159      2549.1723     -286.51108      1171.4658    
     24000   24000          537.34327      964.07244      5873.5281      5147.7284      5796.6182     -648.88986      2172.9005      3168.6152     -1878.0692      22.245543     -351.53583     -1561.5955     -2221.4505     -245.14859      51621.573      37.234347      37.234347      37.234347      1.2069159      818.58831      855.84047      1217.7885    
     25000   25000          533.01744     -139.10041      5078.9101      5183.6315      5749.9531     -566.32156      2227.6302      3241.0235     -1885.3734      21.318983     -415.61165     -1541.0738     -2214.2355     -245.14859      51621.573      37.234347      37.234347      37.234347      1.2069159     -1366.0586     -296.09839      1244.8558    
     26000   26000          530.52956      542.26615      5474.3866      5066.1428      5723.1149     -656.97218      2217.0931      3181.147      -1898.9563      21.894533     -406.94985     -1547.3719     -2223.8287     -245.14859      51621.573      37.234347      37.234347      37.234347      1.2069159      373.88737      1582.8641     -329.95301    
     27000   27000          534.52543      188.48429      5239.3074      5097.4075      5766.2206     -668.81316      2161.6293      3233.9128     -1884.6205      23.032809     -441.83869     -1540.2063     -2220.7225     -245.14859      51621.573      37.234347      37.234347      37.234347      1.2069159      790.41021     -1195.2714      970.31409    
     28000   28000          531.20616      1485.8109      6310.9839      5192.3946      5730.4138     -538.0192       2226.4768      3324.6082     -1926.5734      21.969751     -407.96624     -1552.1052     -2224.4291     -245.14859      51621.573      37.234347      37.234347      37.234347      1.2069159      1512.0443     -314.7861       3260.1745    
     29000   29000          524.94139     -747.03903      4451.2383      5013.6449      5662.8324     -649.18748      2245.0015      3155.8076     -1901.6661      20.211147     -396.36898     -1548.8434     -2223.3292     -245.14859      51621.573      37.234347      37.234347      37.234347      1.2069159      240.09546     -1805.4042     -675.80836    
     30000   30000          533.52635     -299.89727      4812.5706      5038.3476      5755.443      -717.09546      2296.4525      3147.7944     -1927.7055      22.165868     -486.02032     -1541.3939     -2228.3885     -245.14859      51621.573      37.234347      37.234347      37.234347      1.2069159      464.75218     -1145.0373     -219.40668    
     31000   31000          530.93724      346.87531      5534.1372      5272.9929      5727.5128     -454.51993      2262.8605      3278.2614     -1875.3488      21.268545     -386.17608     -1537.227      -2218.1586     -245.14859      51621.573      37.234347      37.234347      37.234347      1.2069159      3.5965695      284.57158      752.45778    
     32000   32000          530.93345     -930.43692      4561.3601      5261.8374      5727.4719     -465.63452      2327.1889      3251.7532     -1939.5944      22.547509     -352.17982     -1551.1655     -2224.1844     -245.14859      51621.573      37.234347      37.234347      37.234347      1.2069159     -220.95358     -2967.2648      396.9076     
     33000   33000          540.59029     -449.0453       5000.1134      5338.1761      5831.6456     -493.4695       2263.5258      3303.0102     -1890.7994      22.143843     -425.60457     -1539.7792     -2225.9662     -245.14859      51621.573      37.234347      37.234347      37.234347      1.2069159     -279.32845     -209.85163     -857.95582    
     34000   34000          525.42065     -1598.7986      3867.5959      5071.2477      5668.0024     -596.75466      2230.3867      3191.3052     -1891.3153      22.289257     -383.09123     -1543.938      -2222.3913     -245.14859      51621.573      37.234347      37.234347      37.234347      1.2069159     -681.31608     -2947.2961     -1167.7837    
     35000   35000          541.56595     -38.959055      5231.9486      5261.2789      5842.1706     -580.89172      2202.8719      3207.5768     -1861.6172      21.24586      -398.06909     -1539.1263     -2213.7737     -245.14859      51621.573      37.234347      37.234347      37.234347      1.2069159     -1125.5696     -824.3796       1833.0721    
     36000   36000          532.11379      818.32513      5783.4572      5167.383       5740.205      -572.82199      2219.7106      3240.7183     -1912.7356      21.859533     -379.42013     -1541.8657     -2221.089      -245.14859      51621.573      37.234347      37.234347      37.234347      1.2069159      509.89246      1239.3703      705.71266    
     37000   37000          532.28772      344.49859      5471.05        5211.695       5742.0812     -530.38619      2256.0681      3220.2072     -1863.2078      21.150001     -399.8025      -1541.079      -2223.7222     -245.14859      51621.573      37.234347      37.234347      37.234347      1.2069159      687.47836      162.62741      183.38999    
     38000   38000          529.50818     -181.92191      4904.7605      5041.72        5712.0968     -670.37677      2248.6387      3118.8105     -1872.7888      20.672191     -412.12051     -1552.1493     -2221.4396     -245.14859      51621.573      37.234347      37.234347      37.234347      1.2069159     -498.3628       1962.4879     -2009.8908    
     39000   39000          527.94451     -12.977746      5055.881       5065.6513      5695.2287     -629.57741      2185.9089      3217.9893     -1899.6167      23.764746     -390.68619     -1548.0257     -2218.9118     -245.14859      51621.573      37.234347      37.234347      37.234347      1.2069159     -1849.466       327.76932      1482.7634    
     40000   40000          525.19871     -927.24478      4460.0399      5158.114       5665.6081     -507.49416      2228.8271      3250.6125     -1850.7002      20.838599     -395.12938     -1538.3388     -2223.6039     -245.14859      51621.573      37.234347      37.234347      37.234347      1.2069159     -196.34325     -1076.8977     -1508.4934    
     41000   41000          534.86441      41.647031      5202.0697      5170.7158      5769.8774     -599.16164      2256.3329      3137.1602     -1866.4812      19.383352     -369.22928     -1550.2466     -2226.081      -245.14859      51621.573      37.234347      37.234347      37.234347      1.2069159     -448.36255      460.54769      112.75595    
     42000   42000          532.13456      972.19835      5973.6334      5241.7162      5740.429      -498.71283      2222.4607      3259.6148     -1871.3163      20.676403     -369.36797     -1542.3202     -2218.4604     -245.14859      51621.573      37.234347      37.234347      37.234347      1.2069159      1298.9128      2487.6573     -869.97502    
     43000   43000          519.50117     -431.50164      4684.147       5009.002       5604.1457     -595.14369      2254.2068      3202.115      -1912.343       22.179218     -402.01817     -1541.6541     -2217.6295     -245.14859      51621.573      37.234347      37.234347      37.234347      1.2069159      1575.7477     -2359.6525     -510.60016    
     44000   44000          524.16685     -793.03878      4538.4866      5135.524       5654.4769     -518.95292      2280.7409      3163.5577     -1854.1073      20.500109     -370.97401     -1537.9833     -2220.687      -245.14859      51621.573      37.234347      37.234347      37.234347      1.2069159     -595.33653     -1483.7475     -300.03232    
     45000   45000          525.36446      87.598017      5027.9095      4961.9615      5667.3962     -705.43471      2158.4029      3205.8779     -1901.577       22.478001     -425.18687     -1542.653      -2222.7767     -245.14859      51621.573      37.234347      37.234347      37.234347      1.2069159      22.365019     -138.999        379.42803    
     46000   46000          523.90451     -615.04097      4620.3849      5083.4171      5651.6469     -568.22984      2219.3459      3241.8437     -1891.8056      22.230139     -387.23564     -1550.7319     -2221.8765     -245.14859      51621.573      37.234347      37.234347      37.234347      1.2069159      1053.625      -2402.113      -496.63489    
     47000   47000          531.40919      2143.9864      6816.6276      5202.5323      5732.604      -530.07171      2240.9789      3269.4263     -1883.0392      21.449556     -412.24822     -1544.3989     -2222.2402     -245.14859      51621.573      37.234347      37.234347      37.234347      1.2069159      3655.3011      561.1195       2215.5387    
     48000   48000          541.91729     -1019.0868      4510.813       5278.0301      5845.9608     -567.93063      2329.261       3127.6326     -1861.599       20.73287      -417.80489     -1541.4008     -2224.7524     -245.14859      51621.573      37.234347      37.234347      37.234347      1.2069159      968.38948     -1108.0927     -2917.5572    
     49000   49000          540.81822     -490.88473      4791.6378      5161.1993      5834.1044     -672.90517      2265.2859      3144.6483     -1870.7548      21.582859     -453.11377     -1551.7333     -2228.8205     -245.14859      51621.573      37.234347      37.234347      37.234347      1.2069159     -1210.7502     -533.59301      271.68905    
     50000   50000          527.48274      1572.9212      6207.622       5023.4519      5690.2473     -666.79534      2174.5728      3204.2135     -1908.7959      22.423053     -380.18882     -1550.2223     -2228.7977     -245.14859      51621.573      37.234347      37.234347      37.234347      1.2069159      2031.0327      686.46152      2001.2693    
     51000   51000          530.27699      49.120835      5208.0342      5171.0537      5720.3904     -549.33664      2164.8256      3239.5279     -1878.1598      21.154758     -330.1075      -1546.8369     -2219.7408     -245.14859      51621.573      37.234347      37.234347      37.234347      1.2069159      527.46677     -2082.9821      1702.8779    
     52000   52000          530.79749     -249.4862       4872.8862      5060.7113      5726.0053     -665.29399      2192.155       3182.194      -1858.025       21.579811     -437.29015     -1544.5779     -2221.3297     -245.14859      51621.573      37.234347      37.234347      37.234347      1.2069159      25.148531     -467.8758      -305.73133    
     53000   53000          534.01368      58.616227      5247.8979      5203.7688      5760.7001     -556.93126      2267.3127      3164.3155     -1857.5725      20.018221     -382.42053     -1549.0186     -2219.5661     -245.14859      51621.573      37.234347      37.234347      37.234347      1.2069159     -1746.1388      509.2727       1412.7147    
     54000   54000          538.68659     -101.07644      5275.9242      5352.0193      5811.1093     -459.08999      2285.1972      3321.112      -1902.422       23.811067     -422.46724     -1540.5495     -2223.7715     -245.14859      51621.573      37.234347      37.234347      37.234347      1.2069159      179.15669      41.818758     -524.20477    
     55000   55000          532.98871     -167.0624       5057.1999      5182.9725      5749.6432     -566.67068      2303.1903      3218.2496     -1937.0129      22.713555     -416.02946     -1544.8061     -2212.9757     -245.14859      51621.573      37.234347      37.234347      37.234347      1.2069159     -806.5841      -793.9495       1099.3464    
     56000   56000          529.13912      463.56222      5469.0248      5120.033       5708.1155     -588.08248      2237.7537      3207.1153     -1897.5748      20.999531     -399.05591     -1537.9856     -2219.3348     -245.14859      51621.573      37.234347      37.234347      37.234347      1.2069159      1195.7315     -1828.4897      2023.4449    
     57000   57000          524.67323      404.56807      5483.9956      5179.4175      5659.9395     -480.52202      2266.2892      3238.6672     -1885.6931      22.297833     -360.58681     -1540.9983     -2220.498      -245.14859      51621.573      37.234347      37.234347      37.234347      1.2069159     -1372.5411     -552.99932      3139.2447    
     58000   58000          528.66138      901.96725      5723.6435      5044.5996      5702.9619     -658.36238      2288.1441      3117.4852     -1933.4828      21.148971     -394.4596      -1540.0437     -2217.1545     -245.14859      51621.573      37.234347      37.234347      37.234347      1.2069159      3611.2726     -1984.5947      1079.2239    
     59000   59000          530.14253     -158.16232      5150.4772      5269.5493      5718.9399     -449.39063      2246.4869      3301.3957     -1917.6302      21.117082     -346.73293     -1542.0878     -2211.9395     -245.14859      51621.573      37.234347      37.234347      37.234347      1.2069159      1009.1253      1174.9634     -2658.5757    
     60000   60000          534.46903     -111.11384      5148.7834      5232.4352      5765.6122     -533.17697      2235.4933      3255.6704     -1898.9828      22.579987     -396.51429     -1538.0221     -2213.4015     -245.14859      51621.573      37.234347      37.234347      37.234347      1.2069159     -988.67298      1823.2721     -1167.9407    
     61000   61000          522.41759      514.1393       5433.4634      5046.3949      5635.6067     -589.21185      2246.6415      3243.5063     -1914.0481      21.234729     -424.70109     -1545.1444     -2216.7007     -245.14859      51621.573      37.234347      37.234347      37.234347      1.2069159     -978.08426      1567.9752      952.52692    
     62000   62000          514.32549      999.59849      5714.7908      4962.2454      5548.3127     -586.06734      2178.3691      3240.7238     -1915.2363      21.767812     -335.99397     -1553.1876     -2222.5101     -245.14859      51621.573      37.234347      37.234347      37.234347      1.2069159      2036.8467      1713.4041     -751.45534    
     63000   63000          526.51923      187.19389      5376.4775      5235.549       5679.8533     -444.30429      2230.2687      3345.8698     -1901.9301      21.647388     -368.83165     -1549.3803     -2221.9482     -245.14859      51621.573      37.234347      37.234347      37.234347      1.2069159      790.34777     -1490.4168      1261.6507    
     64000   64000          522.44855      279.18092      5280.8192      5070.6385      5635.9407     -565.30225      2346.423       3119.3127     -1887.09        19.887267     -404.06099     -1540.3709     -2219.4033     -245.14859      51621.573      37.234347      37.234347      37.234347      1.2069159      64.085961      473.10404      300.35276    
     65000   65000          533.57211      183.17035      5274.6316      5136.7323      5755.9366     -619.20438      2250.2425      3207.6511     -1915.2747      24.153016     -409.80395     -1550.9389     -2225.2335     -245.14859      51621.573      37.234347      37.234347      37.234347      1.2069159     -442.4403       1942.6845     -950.73314    
     66000   66000          529.61075      1221.0858      5901.901       4982.6094      5713.2032     -730.59387      2128.2824      3157.8835     -1898.2437      20.905153     -373.51603     -1548.8647     -2217.0406     -245.14859      51621.573      37.234347      37.234347      37.234347      1.2069159      752.24121      410.18362      2500.8325    
     67000   67000          537.99273      651.46979      5715.4419      5224.9844      5803.6244     -578.63995      2172.776       3231.4378     -1880.1872      21.638219     -364.80896     -1543.8169     -2215.6789     -245.14859      51621.573      37.234347      37.234347      37.234347      1.2069159      830.54426      1610.1542     -486.28912    
     68000   68000          537.66517     -2367.605       3511.773       5294.219       5800.0907     -505.87171      2265.6678      3250.4383     -1887.1977      20.560155     -392.99266     -1548.1864     -2214.1613     -245.14859      51621.573      37.234347      37.234347      37.234347      1.2069159     -814.66149     -2158.9168     -4129.2369    
     69000   69000          536.20992      671.02866      5815.4216      5310.2392      5784.3921     -474.15294      2311.0615      3189.5034     -1871.0337      21.081702     -366.13152     -1544.6245     -2214.0098     -245.14859      51621.573      37.234347      37.234347      37.234347      1.2069159      947.86899      259.07541      806.14159    
     70000   70000          528.72954      421.35446      5354.5071      5037.2913      5703.6971     -666.4058       2183.5022      3227.7487     -1929.3556      22.201823     -414.6071      -1541.2792     -2214.6166     -245.14859      51621.573      37.234347      37.234347      37.234347      1.2069159      484.54592      1370.9013     -591.38385    
     71000   71000          523.48755     -769.90356      4474.3844      5054.0045      5647.149      -593.14444      2255.1313      3224.9199     -1922.0664      21.789397     -428.66543     -1533.3025     -2210.9507     -245.14859      51621.573      37.234347      37.234347      37.234347      1.2069159     -3235.7905     -1358.1285      2284.2084    
     72000   72000          522.94043     -1655.6714      3910.8574      5157.3258      5641.2468     -483.921        2328.2622      3168.6501     -1864.1093      19.179233     -367.90579     -1551.6314     -2216.366      -245.14859      51621.573      37.234347      37.234347      37.234347      1.2069159     -2688.0938     -2122.1011     -156.81943    
     73000   73000          521.48318      1042.8741      5779.8246      4994.6992      5625.5267     -630.82748      2191.0138      3212.0032     -1932.3428      22.774528     -344.60049     -1560.7865     -2218.8893     -245.14859      51621.573      37.234347      37.234347      37.234347      1.2069159      532.69837      1696.6525      899.27148    
     74000   74000          525.74339      413.60222      5470.8724      5159.4929      5671.484      -511.99103      2219.6806      3278.3706     -1918.0423      21.314401     -344.32293     -1552.8016     -2216.1898     -245.14859      51621.573      37.234347      37.234347      37.234347      1.2069159      2141.8216     -2233.1888      1332.1738    
     75000   75000          522.62621     -813.15476      4484.4151      5096.5968      5637.8572     -541.26047      2270.7509      3215.8871     -1919.7046      21.698793     -363.18692     -1550.3125     -2216.3933     -245.14859      51621.573      37.234347      37.234347      37.234347      1.2069159     -1653.8646     -926.71431      141.11458    
     76000   76000          522.47187     -31.971115      5022.3754      5046.4448      5636.1923     -589.7475       2211.1435      3158.9633     -1867.9292      20.380625     -357.3023      -1538.2669     -2216.7366     -245.14859      51621.573      37.234347      37.234347      37.234347      1.2069159      1602.0183     -1672.1358     -25.795838    
     77000   77000          524.58721     -1193.0947      4241.9097      5140.1283      5659.0116     -518.88336      2286.57        3202.289      -1874.7102      20.144983     -397.48895     -1538.92       -2216.7683     -245.14859      51621.573      37.234347      37.234347      37.234347      1.2069159     -1518.4918     -454.49064     -1606.3016    
     78000   78000          532.36658     -325.59094      4776.6192      5021.7396      5742.9319     -721.19237      2181.7261      3158.9282     -1884.8755      22.097215     -435.65379     -1547.7208     -2215.6939     -245.14859      51621.573      37.234347      37.234347      37.234347      1.2069159     -2711.1813      1253.0973      481.31123    
     79000   79000          527.67407      952.42005      5904.765       5187.7378      5692.3112     -504.57345      2245.9         3224.2583     -1881.063       20.310116     -348.64803     -1547.2637     -2218.0671     -245.14859      51621.573      37.234347      37.234347      37.234347      1.2069159      2550.4117      1211.0957     -904.24721    
     80000   80000          534.94849      1218.5569      6184.868       5267.4803      5770.7845     -503.30414      2258.3347      3189.3038     -1875.0165      22.647977     -339.25584     -1541.4287     -2217.8895     -245.14859      51621.573      37.234347      37.234347      37.234347      1.2069159      736.31636      2291.7687      627.58549    
     81000   81000          529.00923     -1050.5929      4355.5043      5146.4408      5706.7143     -560.27356      2227.2022      3163.3779     -1870.4107      21.265653     -351.43991     -1538.0477     -2212.221      -245.14859      51621.573      37.234347      37.234347      37.234347      1.2069159     -2439.7832     -192.19275     -519.80276    
     82000   82000          526.56044     -2289.2817      3256.0614      4979.5418      5680.2979     -700.75611      2194.9122      3137.0025     -1897.1801      21.640821     -399.77419     -1538.1357     -2219.2217     -245.14859      51621.573      37.234347      37.234347      37.234347      1.2069159     -2304.6917     -3673.3144     -889.83911    
     83000   83000          534.50467     -581.25393      4702.7906      5140.3862      5765.9967     -625.61046      2262.2907      3173.5152     -1902.0173      22.586797     -428.36583     -1533.9677     -2219.6524     -245.14859      51621.573      37.234347      37.234347      37.234347      1.2069159     -85.705511     -2352.2082      694.15192    
     84000   84000          525.1376      -346.02094      4781.3447      5041.8457      5664.949      -623.10322      2181.7663      3226.0675     -1869.3806      20.932969     -418.24625     -1541.9132     -2222.33       -245.14859      51621.573      37.234347      37.234347      37.234347      1.2069159     -718.95653     -390.45683      71.350546    
     85000   85000          527.74986     -500.98536      4652.9521      5030.1177      5693.1289     -663.01114      2205.2116      3175.1861     -1893.1274      22.721758     -409.12231     -1544.5282     -2219.3526     -245.14859      51621.573      37.234347      37.234347      37.234347      1.2069159     -639.36337     -1346.9154      483.32266    
     86000   86000          546.21977      282.08179      5524.8993      5312.5347      5892.374      -579.83926      2259.0325      3172.6255     -1881.6583      20.226439     -375.66733     -1549.9977     -2224.4004     -245.14859      51621.573      37.234347      37.234347      37.234347      1.2069159     -980.22958      1331.5035      494.97144    
     87000   87000          544.17875     -470.08245      4847.5344      5201.4349      5870.3563     -668.9214       2174.8433      3234.5871     -1898.5547      21.637057     -426.45289     -1552.8343     -2222.147      -245.14859      51621.573      37.234347      37.234347      37.234347      1.2069159     -1322.8508     -795.94088      708.54432    
     88000   88000          537.36841     -560.01966      4829.5383      5251.1478      5796.8895     -545.74167      2234.3998      3237.3363     -1881.9079      20.769263     -389.34522     -1544.7153     -2222.2787     -245.14859      51621.573      37.234347      37.234347      37.234347      1.2069159     -794.50407     -1566.4391      680.88424    
     89000   89000          531.81811     -1368.4543      3983.8064      5014.0441      5737.0153     -722.9712       2234.9476      3159.2859     -1882.7292      20.627396     -492.96488     -1541.9192     -2220.2189     -245.14859      51621.573      37.234347      37.234347      37.234347      1.2069159      529.27117     -1974.0161     -2660.6179    
     90000   90000          538.3385      -559.37015      4771.8261      5192.9466      5807.3544     -614.40779      2212.2625      3240.8718     -1918.8959      21.00974      -399.44045     -1547.6439     -2222.5716     -245.14859      51621.573      37.234347      37.234347      37.234347      1.2069159     -604.09469     -295.84334     -778.17243    
     91000   91000          527.53772      746.07755      5669.2979      5107.6151      5690.8403     -583.22523      2176.2584      3200.6583     -1897.2455      21.557644     -321.32433     -1547.393      -2215.7368     -245.14859      51621.573      37.234347      37.234347      37.234347      1.2069159      1756.0483      448.55673      33.627625    
     92000   92000          535.26066      434.83819      5717.7644      5390.3975      5774.152      -383.75448      2293.5693      3298.1951     -1883.8093      21.632582     -361.33473     -1537.1781     -2214.8294     -245.14859      51621.573      37.234347      37.234347      37.234347      1.2069159      2127.9641     -753.38952     -70.059974    
     93000   93000          538.00359     -449.5741       4834.1889      5172.6497      5803.7415     -631.09178      2260.5724      3207.4941     -1906.1616      21.965844     -458.43697     -1539.9154     -2216.6101     -245.14859      51621.573      37.234347      37.234347      37.234347      1.2069159     -1914.0329     -2228.5322      2793.8428    
     94000   94000          528.34646     -361.01918      4726.6597      4998.4522      5699.5647     -701.11254      2150.0092      3181.5345     -1857.6679      22.010701     -431.54497     -1544.9302     -2220.5239     -245.14859      51621.573      37.234347      37.234347      37.234347      1.2069159      1651.9393     -734.93402     -2000.0628    
     95000   95000          527.54735      832.48082      5847.2325      5220.5012      5690.9443     -470.44305      2173.3295      3316.2747     -1880.6413      20.729537     -333.411       -1543.2192     -2223.5053     -245.14859      51621.573      37.234347      37.234347      37.234347      1.2069159      2142.0541      1599.3482     -1243.9599    
     96000   96000          532.51098      387.21529      5415.9173      5124.4032      5744.4897     -620.08654      2276.5077      3149.0628     -1889.1765      21.611498     -410.5753      -1549.217      -2218.2997     -245.14859      51621.573      37.234347      37.234347      37.234347      1.2069159      3227.3996     -1234.5075     -831.24616    
     97000   97000          536.35359      428.1249       5551.657       5229.3442      5785.942      -556.5978       2196.0011      3203.7162     -1861.0117      20.396888     -346.1744      -1544.9575     -2224.5684     -245.14859      51621.573      37.234347      37.234347      37.234347      1.2069159      312.90864      2417.8232     -1446.3572    
     98000   98000          530.13108      52.522765      5213.4457      5173.9041      5718.8164     -544.91229      2280.9191      3146.2833     -1912.625       19.616284     -320.91613     -1541.5248     -2216.665      -245.14859      51621.573      37.234347      37.234347      37.234347      1.2069159      83.111346      26.122725      48.334225    
     99000   99000          531.39027      464.78007      5487.4499      5137.5413      5732.3999     -594.85857      2261.4453      3121.2882     -1851.8891      19.787186     -377.45544     -1549.6126     -2218.4221     -245.14859      51621.573      37.234347      37.234347      37.234347      1.2069159      664.12909     -397.60617      1127.8173    
    100000   100000         529.75806     -461.31194      4712.258       5059.5556      5714.7924     -655.2368       2199.7428      3184.9564     -1892.7416      22.068715     -411.34733     -1541.5787     -2216.3372     -245.14859      51621.573      37.234347      37.234347      37.234347      1.2069159      364.27712     -31.722681     -1716.4903    
    101000   101000         536.73361     -1078.441       4428.0332      5239.935       5790.0415     -550.10645      2276.0369      3251.7761     -1907.4162      21.460841     -453.91366     -1524.5089     -2213.5416     -245.14859      51621.573      37.234347      37.234347      37.234347      1.2069159     -877.36629     -2312.6036     -45.352986    
    102000   102000         541.48805      46.839935      5366.0737      5330.8103      5841.3303     -510.51995      2291.6231      3232.5497     -1934.5071      20.506274     -351.8604      -1547.2831     -2221.5485     -245.14859      51621.573      37.234347      37.234347      37.234347      1.2069159     -779.078        215.086        704.51181    
    103000   103000         523.19478      1060.6528      5834.2167      5035.7066      5643.9906     -608.28398      2233.3231      3197.6958     -1915.2815      20.931701     -378.75596     -1548.2599     -2217.9372     -245.14859      51621.573      37.234347      37.234347      37.234347      1.2069159     -504.3342       1510.0238      2176.2689    
    104000   104000         540.35058     -438.3131       4947.4156      5277.3986      5829.0597     -551.66106      2287.0114      3256.1618     -1920.0814      19.430444     -412.50515     -1558.4207     -2223.2575     -245.14859      51621.573      37.234347      37.234347      37.234347      1.2069159     -248.48885     -1208.2614      141.81099    
    105000   105000         541.25386      1029.7234      5985.24        5210.0151      5838.8039     -628.78881      2282.0061      3152.2254     -1910.8908      20.806238     -401.95923     -1550.6875     -2220.289      -245.14859      51621.573      37.234347      37.234347      37.234347      1.2069159      2145.1794     -405.3141       1349.3049    
    106000   106000         522.50161     -440.7279       4778.864       5110.6649      5636.513      -525.84809      2302.9516      3191.0699     -1873.9795      20.803001     -390.9846      -1557.5078     -2218.2006     -245.14859      51621.573      37.234347      37.234347      37.234347      1.2069159     -1029.4562     -769.22532      476.49778    
    107000   107000         525.66655      1384.9755      6000.2551      4957.5794      5670.655      -713.07554      2219.487       3126.6524     -1890.5852      20.224733     -420.61945     -1549.2592     -2218.9757     -245.14859      51621.573      37.234347      37.234347      37.234347      1.2069159      2596.1911     -223.51813      1782.2537    
    108000   108000         521.20986     -814.22195      4432.7316      5045.7167      5622.5783     -576.86157      2260.3819      3127.2787     -1833.2643      18.043027     -375.94449     -1548.3692     -2224.9872     -245.14859      51621.573      37.234347      37.234347      37.234347      1.2069159     -348.35755      492.00733     -2586.3156    
    109000   109000         536.43229     -711.31882      4716.3197      5251.8344      5786.791      -534.95657      2289.9703      3220.3337     -1897.0711      20.401082     -392.95605     -1551.3021     -2224.3325     -245.14859      51621.573      37.234347      37.234347      37.234347      1.2069159     -1515.9243     -156.87324     -461.15893    
    110000   110000         532.22922      412.88411      5509.0989      5198.2601      5741.4502     -543.19013      2289.8491      3177.0687     -1888.7867      19.62717      -352.27929     -1558.5278     -2230.1414     -245.14859      51621.573      37.234347      37.234347      37.234347      1.2069159     -261.99639      1535.9556     -35.306865    
    111000   111000         527.26946     -294.79885      4808.744       5030.6827      5687.9465     -657.26381      2246.5045      3161.9996     -1883.1593      19.302153     -438.97984     -1541.5029     -2221.428      -245.14859      51621.573      37.234347      37.234347      37.234347      1.2069159     -1120.7589     -159.3022       395.66455    
    112000   112000         529.92906     -706.0676       4635.958       5167.5193      5716.6371     -549.11774      2274.1942      3293.8863     -1892.7801      21.707812     -470.40942     -1553.1388     -2222.5776     -245.14859      51621.573      37.234347      37.234347      37.234347      1.2069159     -1908.5788     -2600.2694      2390.6454    
    113000   113000         524.09937      665.38194      5524.6655      5023.7342      5653.749      -630.01476      2168.2459      3216.908      -1887.7972      20.371593     -372.57228     -1553.9574     -2221.2133     -245.14859      51621.573      37.234347      37.234347      37.234347      1.2069159      989.54102     -271.02646      1277.6313    
    114000   114000         529.63173     -1233.9448      4101.1366      5030.109       5713.4296     -683.32055      2246.5664      3187.2519     -1909.2493      21.15332      -472.19413     -1542.1886     -2214.6601     -245.14859      51621.573      37.234347      37.234347      37.234347      1.2069159     -1633.4316     -832.5172      -1235.8855    
    115000   115000         526.59446     -953.78522      4480.418       5198.473       5680.6649     -482.19193      2296.991       3315.9321     -1907.2566      20.943466     -451.78676     -1539.8114     -2217.2037     -245.14859      51621.573      37.234347      37.234347      37.234347      1.2069159     -563.29679     -649.2067      -1648.8522    
    116000   116000         535.15959      43.468322      5201.4821      5168.7571      5773.0617     -604.30457      2205.2668      3238.6418     -1926.5721      22.273769     -391.05747     -1536.3434     -2216.514      -245.14859      51621.573      37.234347      37.234347      37.234347      1.2069159     -303.1365       54.483665      379.0578     
    117000   117000         538.99082     -434.84975      4905.2288      5232.6044      5814.3912     -581.78681      2281.1889      3183.5442     -1920.4045      21.233506     -373.38251     -1551.1268     -2222.8396     -245.14859      51621.573      37.234347      37.234347      37.234347      1.2069159     -1864.7713      814.11774     -253.89568    
    118000   118000         521.95056     -26.815565      4986.764       5006.9521      5630.5686     -623.61648      2281.3902      3233.9606     -1934.8413      23.93104      -459.94928     -1547.5162     -2220.5916     -245.14859      51621.573      37.234347      37.234347      37.234347      1.2069159     -130.26622      83.681828     -33.862308    
    119000   119000         515.06177     -839.44513      4403.5861      5035.5605      5556.2555     -520.695        2320.3706      3259.7613     -1934.9013      21.266283     -428.48125     -1539.2862     -2219.4244     -245.14859      51621.573      37.234347      37.234347      37.234347      1.2069159     -818.23621     -541.57251     -1158.5267    
    120000   120000         530.44074      1301.8287      6186.956       5206.8773      5722.1569     -515.27962      2276.9157      3259.9779     -1899.3358      22.780426     -429.18398     -1532.9002     -2213.5336     -245.14859      51621.573      37.234347      37.234347      37.234347      1.2069159      1291.2611      1423.1418      1191.0834    
    121000   121000         531.28247     -1087.9219      4345.1384      5164.1778      5731.237      -567.05922      2345.2388      3162.0659     -1865.6233      21.280185     -462.96199     -1543.9054     -2223.1534     -245.14859      51621.573      37.234347      37.234347      37.234347      1.2069159      788.77284     -1453.2152     -2599.3232    
    122000   122000         528.71908     -1300.4446      4233.8457      5212.8824      5703.5843     -490.70186      2354.2774      3162.8688     -1902.0365      20.82697      -362.55675     -1543.5417     -2220.5401     -245.14859      51621.573      37.234347      37.234347      37.234347      1.2069159     -934.18913     -418.74111     -2548.4036    
    123000   123000         517.65505     -336.70779      4693.0001      4946.4898      5584.2306     -637.74077      2293.2616      3153.213      -1912.8193      19.933298     -422.67887     -1542.0275     -2226.623      -245.14859      51621.573      37.234347      37.234347      37.234347      1.2069159     -565.15979     -387.64535     -57.318249    
    124000   124000         529.67107      1031.2971      5828.7219      5052.3122      5713.854      -661.54182      2216.5015      3148.4198     -1927.011       21.018305     -376.71755     -1538.9779     -2204.7749     -245.14859      51621.573      37.234347      37.234347      37.234347      1.2069159      1958.8195     -69.422768      1204.4946    
    125000   125000         534.52783     -2172.873       3570.2617      5206.1041      5766.2465     -560.14238      2360.308       3183.4023     -1886.2692      22.740263     -474.28002     -1547.1156     -2218.9281     -245.14859      51621.573      37.234347      37.234347      37.234347      1.2069159     -1831.5704     -1302.4095     -3384.6392    
    126000   126000         518.69928     -1412.2617      3956.406       5019.6239      5595.4952     -575.87127      2292.5066      3217.3498     -1919.5936      20.95712      -445.47587     -1527.5098     -2214.1056     -245.14859      51621.573      37.234347      37.234347      37.234347      1.2069159     -3412.4185     -89.96221      -734.40438    
    127000   127000         525.70232     -548.33757      4754.3741      5167.1888      5671.0409     -503.85214      2246.9972      3255.745      -1915.9187      22.144938     -375.13718     -1529.9055     -2207.7779     -245.14859      51621.573      37.234347      37.234347      37.234347      1.2069159     -870.57516      540.23733     -1314.6749    
    128000   128000         519.33527     -1182.5486      4105.0162      4995.2951      5602.356      -607.06091      2228.7073      3178.5646     -1905.0962      21.037794     -394.08629     -1528.3551     -2207.8331     -245.14859      51621.573      37.234347      37.234347      37.234347      1.2069159     -1484.0936     -1991.291      -72.261139    
    129000   129000         530.0115      -1291.263       4100.0921      5072.2165      5717.5264     -645.30998      2251.8844      3158.7883     -1880.7736      22.344607     -452.26028     -1530.8769     -2214.4166     -245.14859      51621.573      37.234347      37.234347      37.234347      1.2069159     -1707.6841     -1086.7998     -1079.305     
    130000   130000         533.53723     -882.2259       4427.9436      5092.1253      5755.5604     -663.43513      2187.6875      3261.3545     -1911.3847      21.947126     -497.91268     -1520.5525     -2204.5743     -245.14859      51621.573      37.234347      37.234347      37.234347      1.2069159     -1452.5204     -679.65033     -514.50693    
    131000   131000         532.22302      200.15288      5206.5697      5055.8851      5741.3833     -685.49822      2165.5836      3138.2816     -1880.8283      22.013565     -367.95242     -1549.513      -2213.0833     -245.14859      51621.573      37.234347      37.234347      37.234347      1.2069159      998.00054      287.72254     -685.26443    
    132000   132000         531.19876     -2174.3452      3492.7575      5129.7082      5730.3341     -600.62584      2239.4759      3214.1931     -1926.5127      19.752988     -398.74603     -1533.2876     -2215.5015     -245.14859      51621.573      37.234347      37.234347      37.234347      1.2069159     -3554.0612     -1941.5318     -1027.4425    
    133000   133000         530.73072      48.889914      5130.9077      5094.101       5725.2851     -631.18405      2214.018       3228.7176     -1921.6685      21.938895     -418.63634     -1538.8629     -2216.6908     -245.14859      51621.573      37.234347      37.234347      37.234347      1.2069159     -450.85942      1708.7199     -1111.1908    
    134000   134000         541.63439      1408.3147      6228.8484      5168.6019      5842.909      -674.30704      2142.8715      3174.0389     -1876.598       20.106345     -375.2904      -1544.8592     -2214.5761     -245.14859      51621.573      37.234347      37.234347      37.234347      1.2069159      970.25668      1379.7783      1874.909     
    135000   135000         542.60924     -198.45874      5152.5827      5301.9919      5853.4251     -551.43323      2227.7518      3235.558      -1891.7786      21.78297      -372.89172     -1547.1425     -2224.7131     -245.14859      51621.573      37.234347      37.234347      37.234347      1.2069159      1109.5798      899.82566     -2604.7816    
    136000   136000         528.86381      133.57217      5246.0144      5145.4549      5705.1456     -559.69069      2274.5417      3231.3047     -1906.5653      23.889282     -429.82091     -1525.3007     -2227.7395     -245.14859      51621.573      37.234347      37.234347      37.234347      1.2069159      1130.0124     -197.40074     -531.89517    
    137000   137000         530.53973      1210.058       6107.691       5196.7016      5723.2247     -526.52312      2199.592       3272.1083     -1911.7878      21.274808     -330.37681     -1550.8326     -2226.501      -245.14859      51621.573      37.234347      37.234347      37.234347      1.2069159     -539.22183      3227.0533      942.34266    
    138000   138000         521.65713      632.84358      5546.5291      5070.0943      5627.4032     -557.30891      2285.9838      3202.2958     -1911.2374      22.516107     -378.11913     -1549.769      -2228.979      -245.14859      51621.573      37.234347      37.234347      37.234347      1.2069159      1220.0947     -273.0664       951.50244    
    139000   139000         537.57817     -108.73983      5072.0613      5153.9259      5799.1522     -645.22637      2222.8593      3205.5991     -1888.809       22.003026     -433.16403     -1545.3438     -2228.371      -245.14859      51621.573      37.234347      37.234347      37.234347      1.2069159      189.08394     -360.50921     -154.79423    
    140000   140000         533.36605      146.17057      5277.2286      5167.1844      5753.7138     -586.52933      2212.2407      3245.7707     -1912.1537      21.323918     -394.37851     -1534.8907     -2224.4417     -245.14859      51621.573      37.234347      37.234347      37.234347      1.2069159      707.49295      426.68075     -695.662      
    141000   141000         525.2579       659.17902      5488.799       4992.5376      5666.2467     -673.70908      2155.8024      3233.9264     -1929.0262      22.356956     -396.5507      -1539.7691     -2220.4489     -245.14859      51621.573      37.234347      37.234347      37.234347      1.2069159      888.01454     -193.88008      1283.4026    
    142000   142000         538.65153      72.652575      5266.3581      5211.6618      5810.7312     -599.06937      2295.79        3193.866      -1919.3562      21.417845     -431.82556     -1538.4246     -2220.5367     -245.14859      51621.573      37.234347      37.234347      37.234347      1.2069159      1729.5542     -358.10613     -1153.4903    
    143000   143000         536.40649     -1791.5988      3811.9685      5160.7695      5786.5126     -625.74312      2250.5108      3257.1727     -1930.4451      23.747105     -457.6451      -1542.8884     -2226.1951     -245.14859      51621.573      37.234347      37.234347      37.234347      1.2069159     -2839.1451     -691.16194     -1844.4894    
    144000   144000         530.87186      293.86768      5367.5288      5146.2912      5726.8076     -580.51636      2289.7094      3158.3646     -1909.8565      20.245253     -368.76259     -1547.7847     -2222.4318     -245.14859      51621.573      37.234347      37.234347      37.234347      1.2069159     -1137.3405      1180.0256      838.91793    
    145000   145000         523.18747      569.08878      5501.9739      5073.5367      5643.9118     -570.37509      2268.2736      3246.8788     -1912.4321      21.554595     -413.68845     -1552.8445     -2228.1171     -245.14859      51621.573      37.234347      37.234347      37.234347      1.2069159      700.62285      1852.6012     -845.95773    
    146000   146000         529.61682      1325.7991      6081.3813      5083.2565      5713.2688     -630.01225      2190.9992      3195.5382     -1918.3546      19.405107     -341.32555     -1551.2473     -2225.0273     -245.14859      51621.573      37.234347      37.234347      37.234347      1.2069159      1127.2497      1340.3448      1509.8029    
    147000   147000         529.44701      763.6215       5708.9732      5134.0825      5711.4369     -577.3544       2242.224       3175.3982     -1896.7766      19.734916     -336.91667     -1554.6049     -2226.4134     -245.14859      51621.573      37.234347      37.234347      37.234347      1.2069159      740.72255      707.9857       842.15623    
    148000   148000         527.33226      1408.1156      6180.7941      5120.6975      5688.6239     -567.92648      2198.1669      3298.5239     -1927.1575      21.654344     -390.97947     -1548.6243     -2219.5103     -245.14859      51621.573      37.234347      37.234347      37.234347      1.2069159      799.63611      2866.9106      557.80021    
    149000   149000         535.69882     -1016.9821      4253.8194      5019.452       5778.8786     -759.4266       2209.1971      3149.0169     -1886.6368      22.008956     -488.37414     -1541.1596     -2223.479      -245.14859      51621.573      37.234347      37.234347      37.234347      1.2069159     -1181.7801     -1228.3502     -640.8159     
    150000   150000         527.45011      84.472031      5159.9633      5096.3688      5689.8953     -593.52649      2167.074       3251.2368     -1888.9598      19.310745     -369.11099     -1550.9948     -2222.0825     -245.14859      51621.573      37.234347      37.234347      37.234347      1.2069159     -228.94842      844.23976     -361.87525    
    151000   151000         540.39862     -1026.7836      4387.3185      5160.3302      5829.578      -669.24783      2238.062       3101.984      -1864.1195      20.560328     -419.50328     -1533.7949     -2212.4365     -245.14859      51621.573      37.234347      37.234347      37.234347      1.2069159     -3133.3396     -1100.775       1153.7638    
    152000   152000         521.22687     -1023.9017      4300.7679      5071.6099      5622.7618     -551.15185      2216.9111      3278.7654     -1887.3726      22.853673     -426.24113     -1537.6073     -2218.461      -245.14859      51621.573      37.234347      37.234347      37.234347      1.2069159     -597.91379     -2775.4003      301.6089     
    153000   153000         529.30435      348.77843      5382.4812      5119.9042      5709.898      -589.99381      2306.2289      3150.6375     -1880.8627      20.423277     -448.13625     -1530.7924     -2207.4921     -245.14859      51621.573      37.234347      37.234347      37.234347      1.2069159      941.3736       2453.6122     -2348.6505    
    154000   154000         541.25569      152.208        5347.5023      5232.9128      5838.8236     -605.91081      2309.7768      3187.2453     -1908.3478      21.586063     -456.34027     -1545.4483     -2214.3826     -245.14859      51621.573      37.234347      37.234347      37.234347      1.2069159     -1093.143       468.65125      1081.1158    
    155000   155000         526.18391     -85.610983      5086.0925      5150.5446      5676.236      -525.69147      2244.1449      3277.0111     -1906.561       21.664583     -397.14777     -1548.439      -2216.3643     -245.14859      51621.573      37.234347      37.234347      37.234347      1.2069159     -1262.0307     -694.51094      1699.7087    
    156000   156000         540.95261     -1278.4707      4491.4907      5453.9844      5835.5541     -381.56974      2370.9657      3257.9279     -1897.2086      21.30617      -390.91762     -1533.1637     -2210.4796     -245.14859      51621.573      37.234347      37.234347      37.234347      1.2069159     -739.82268     -2038.4723     -1057.1171    
    157000   157000         533.47894      1044.4024      6012.7802      5226.5043      5754.9316     -528.42732      2249.2961      3182.869      -1877.7744      19.380729     -321.787       -1556.6419     -2223.7699     -245.14859      51621.573      37.234347      37.234347      37.234347      1.2069159      331.19706      667.65276      2134.3573    
    158000   158000         527.0452       1514.8673      6368.861       5228.3967      5685.5273     -457.1306       2257.5202      3296.119      -1894.659       20.977691     -380.46241     -1543.7145     -2212.9115     -245.14859      51621.573      37.234347      37.234347      37.234347      1.2069159      40.916346      495.67539      4008.0101    
    159000   159000         529.10001     -341.12449      4846.3678      5103.1826      5707.6937     -604.51106      2234.1777      3271.175      -1929.5869      23.131088     -437.59836     -1545.4565     -2220.3531     -245.14859      51621.573      37.234347      37.234347      37.234347      1.2069159      201.63152     -590.80426     -634.20073    
    160000   160000         527.34275     -1720.0873      3991.505       5286.4688      5688.7371     -402.26829      2319.4623      3274.4895     -1892.5196      20.73444      -363.85639     -1546.6095     -2213.969      -245.14859      51621.573      37.234347      37.234347      37.234347      1.2069159     -192.16727     -1610.2515     -3357.8432    
    161000   161000         535.65874     -617.74893      4663.5239      5128.5948      5778.4463     -649.85149      2184.1124      3110.0013     -1871.1         18.885581     -342.10479     -1539.7617     -2209.8842     -245.14859      51621.573      37.234347      37.234347      37.234347      1.2069159     -1017.11       -944.41198      108.27523    
    162000   162000         548.17483      769.20819      6053.4158      5474.3192      5913.4643     -439.14501      2315.7436      3211.1641     -1859.506       21.061762     -348.50459     -1555.7714     -2223.3326     -245.14859      51621.573      37.234347      37.234347      37.234347      1.2069159      37.905431      1536.4636      733.25552    
    163000   163000         525.29107      328.11164      5359.8162      5112.7981      5666.6045     -553.80634      2275.4723      3190.7963     -1861.0495      22.149716     -425.41384     -1537.8003     -2217.961      -245.14859      51621.573      37.234347      37.234347      37.234347      1.2069159     -587.8576      -561.11915      2133.3117    
    164000   164000         535.92041      1286.1333      6215.4203      5247.1578      5781.269      -534.11121      2170.7059      3265.2401     -1909.3263      20.932236     -312.41296     -1551.0739     -2218.1763     -245.14859      51621.573      37.234347      37.234347      37.234347      1.2069159      241.06659      1486.5363      2130.7969    
    165000   165000         521.31047      377.5053       5293.9555      5009.7515      5623.6636     -613.91205      2213.9687      3216.4598     -1905.039       21.768924     -401.33239     -1543.3408     -2216.3972     -245.14859      51621.573      37.234347      37.234347      37.234347      1.2069159     -340.46083      1898.5624     -425.58566    
    166000   166000         536.37061     -670.42837      4681.1354      5185.8659      5786.1256     -600.25973      2257.1021      3158.5587     -1900.958       20.554303     -383.65738     -1541.317      -2210.5425     -245.14859      51621.573      37.234347      37.234347      37.234347      1.2069159     -910.35873     -862.56205     -238.36433    
    167000   167000         544.15552     -225.7445       5102.2463      5272.1975      5870.1057     -597.90824      2202.0134      3252.6936     -1865.1416      21.726809     -437.01767     -1548.5843     -2223.5984     -245.14859      51621.573      37.234347      37.234347      37.234347      1.2069159      278.10669     -975.33659      19.996409    
    168000   168000         531.19388     -167.7545       4945.9139      5072.2075      5730.2814     -658.07393      2208.3991      3182.3974     -1911.3579      21.677886     -403.07161     -1539.5075     -2216.6113     -245.14859      51621.573      37.234347      37.234347      37.234347      1.2069159      840.94788      93.880975     -1438.0924    
    169000   169000         537.28106     -206.04742      5036.5426      5191.6649      5795.9471     -604.2822       2200.4091      3236.3831     -1882.5686      21.71882      -434.14849     -1534.3075     -2211.7686     -245.14859      51621.573      37.234347      37.234347      37.234347      1.2069159      339.63138     -1723.3356      765.56194    
    170000   170000         529.88852     -1904.1174      3867.6897      5301.2001      5716.1997     -414.99965      2350.5917      3280.9238     -1882.3311      21.81437      -402.2191      -1553.5651     -2230.2142     -245.14859      51621.573      37.234347      37.234347      37.234347      1.2069159     -2677.2285     -2441.014      -594.10979    
    171000   171000         522.81281     -1431.7709      4017.4589      5095.3643      5639.8702     -544.50585      2311.5804      3284.2443     -1931.0392      22.928616     -444.73497     -1560.1229     -2227.362      -245.14859      51621.573      37.234347      37.234347      37.234347      1.2069159     -3030.6714     -1366.1378      101.49656    
    172000   172000         526.0594      -667.83406      4552.7766      5055.5539      5674.8929     -619.33897      2156.5998      3283.4779     -1886.9164      23.205987     -442.54755     -1534.8153     -2218.3434     -245.14859      51621.573      37.234347      37.234347      37.234347      1.2069159     -1689.7661      536.6005      -850.33661    
[...]
    955000   955000         519.21215      709.58225      5583.9222      5049.7149      5601.0278     -551.31295      2235.105       3125.6976     -1843.2072      18.480345     -319.18563     -1548.3455     -2219.8575     -245.14859      51621.573      37.234347      37.234347      37.234347      1.2069159      2466.8816     -498.63831      160.5035     
    956000   956000         536.20809      1059.4557      5823.339       5025.7303      5784.3724     -758.64213      2139.7584      3088.0419     -1867.8388      20.048127     -376.11059     -1543.9521     -2218.589      -245.14859      51621.573      37.234347      37.234347      37.234347      1.2069159     -1033.1741      1907.4529      2304.0882    
    957000   957000         529.24621     -247.6318       4940.8756      5127.3047      5709.2708     -581.96617      2227.583       3222.1902     -1901.0729      20.322396     -400.65338     -1535.2971     -2215.0384     -245.14859      51621.573      37.234347      37.234347      37.234347      1.2069159      1668.5259     -1279.0582     -1132.363     
    958000   958000         537.16115      389.35774      5499.4765      5206.3494      5794.6536     -588.30419      2250.6357      3147.0381     -1889.8421      22.413393     -356.90736     -1546.8015     -2214.8404     -245.14859      51621.573      37.234347      37.234347      37.234347      1.2069159     -253.58712     -389.97219      1811.6325    
    959000   959000         531.69134      1030.8713      6010.7355      5234.6464      5735.6478     -501.00133      2295.7935      3221.2891     -1887.1359      22.07176      -394.3727      -1534.4069     -2224.2401     -245.14859      51621.573      37.234347      37.234347      37.234347      1.2069159      937.51587      1056.861       1098.2371    
    960000   960000         530.76192     -589.40426      4722.3239      5166.0555      5725.6216     -559.56606      2254.913       3169.5014     -1870.4416      21.481356     -374.81609     -1538.2786     -2221.9256     -245.14859      51621.573      37.234347      37.234347      37.234347      1.2069159     -937.57807      850.76017     -1681.3949    
    961000   961000         541.01757      1205.5723      6223.2589      5315.6466      5836.2549     -520.6083       2283.3341      3168.5959     -1893.2752      19.496268     -337.38308     -1543.6867     -2217.6895     -245.14859      51621.573      37.234347      37.234347      37.234347      1.2069159      914.09738     -601.39231      3304.0118    
    962000   962000         532.82482     -1743.2828      3899.7504      5212.1768      5747.8752     -535.6984       2212.8956      3237.3988     -1865.1485      21.704326     -387.60418     -1539.4396     -2215.5048     -245.14859      51621.573      37.234347      37.234347      37.234347      1.2069159     -2490.8583     -1169.3587     -1569.6315    
    963000   963000         531.24118      338.31687      5331.6529      5076.9518      5730.7916     -653.8398       2205.4136      3210.2632     -1906.7522      22.019461     -437.83428     -1531.1179     -2215.8316     -245.14859      51621.573      37.234347      37.234347      37.234347      1.2069159     -5.5846244     -1751.8257      2772.361     
    964000   964000         534.95724      1344.2907      6267.811       5255.7649      5770.8788     -515.11391      2214.3298      3261.7009     -1879.0055      21.555158     -370.84357     -1547.1848     -2215.666      -245.14859      51621.573      37.234347      37.234347      37.234347      1.2069159      602.18264      2266.0723      1164.6171    
    965000   965000         544.16794      462.67345      5533.4392      5185.1166      5870.2397     -685.12312      2253.6776      3138.4339     -1906.1969      21.121046     -422.74185     -1547.9981     -2221.4188     -245.14859      51621.573      37.234347      37.234347      37.234347      1.2069159      969.2137       553.77356     -134.96692    
    966000   966000         529.67316      59.961584      5036.6948      4991.5529      5713.8765     -722.32369      2223.9718      3088.6493     -1861.7953      21.350336     -418.09561     -1549.0278     -2227.3764     -245.14859      51621.573      37.234347      37.234347      37.234347      1.2069159     -18.772465      311.78491     -113.12769    
    967000   967000         521.25417     -308.57335      4963.4808      5195.7895      5623.0562     -427.26666      2257.0821      3278.2398     -1868.0605      21.073861     -352.87941     -1541.3353     -2221.3871     -245.14859      51621.573      37.234347      37.234347      37.234347      1.2069159     -1151.6125      1740.3287     -1514.4363    
    968000   968000         533.5734       2370.3318      7129.3188      5344.82        5755.9505     -411.13055      2292.9371      3267.6454     -1906.1208      21.935694     -325.76124     -1539.7714     -2221.9954     -245.14859      51621.573      37.234347      37.234347      37.234347      1.2069159      2642.6288      3386.2442      1082.1224    
    969000   969000         520.28409     -1320.7855      3967.9361      4962.2864      5612.5915     -650.30501      2287.0347      3181.3798     -1905.9592      21.369953     -469.23167     -1540.946      -2223.9526     -245.14859      51621.573      37.234347      37.234347      37.234347      1.2069159     -1944.6352     -101.64125     -1916.0801    
    970000   970000         525.12751      1256.582       6080.7906      5134.7758      5664.8401     -530.06425      2263.8337      3166.2776     -1868.4399      19.523362     -347.97423     -1546.3516     -2216.9332     -245.14859      51621.573      37.234347      37.234347      37.234347      1.2069159      1168.2314      815.66062      1785.8539    
    971000   971000         531.90397      425.73674      5503.9251      5183.4102      5737.9415     -554.53128      2275.7393      3170.424      -1888.0072      20.769792     -388.78728     -1530.233      -2214.4369     -245.14859      51621.573      37.234347      37.234347      37.234347      1.2069159     -908.88827      1426.0864      760.01213    
    972000   972000         523.62506      404.25296      5349.0048      5044.6639      5648.6323     -603.96835      2207.744       3267.6477     -1921.2672      22.312562     -429.02467     -1536.5239     -2214.8568     -245.14859      51621.573      37.234347      37.234347      37.234347      1.2069159      613.15045     -650.88389      1250.4923    
    973000   973000         534.30105     -1416.4236      4115.0318      5181.383       5763.8001     -582.41712      2238.0365      3245.5444     -1912.691       21.526735     -408.6306      -1546.3126     -2219.8906     -245.14859      51621.573      37.234347      37.234347      37.234347      1.2069159     -3004.6096     -35.300066     -1209.3611    
    974000   974000         522.48041      74.445707      5214.9372      5158.891       5636.2844     -477.39346      2301.8741      3210.4343     -1869.6638      20.088133     -372.4634      -1548.4739     -2219.1889     -245.14859      51621.573      37.234347      37.234347      37.234347      1.2069159      1421.5595     -810.51785     -387.70457    
    975000   975000         534.48514     -20.009353      5262.1782      5277.2422      5765.786      -488.54385      2231.8442      3252.0711     -1864.9055      20.873554     -380.53572     -1529.0596     -2218.8319     -245.14859      51621.573      37.234347      37.234347      37.234347      1.2069159      48.601302      741.513       -850.14236    
    976000   976000         523.30208      603.6457       5551.9123      5097.4591      5645.1481     -547.68908      2253.5788      3181.5347     -1885.9877      19.90545      -358.66373     -1541.5003     -2216.5563     -245.14859      51621.573      37.234347      37.234347      37.234347      1.2069159      903.79058     -968.39553      1875.542     
    977000   977000         531.49745     -139.21274      5093.1921      5197.9981      5733.5561     -535.55802      2316.0259      3219.6253     -1924.116       21.21823      -424.95098     -1527.2069     -2216.1536     -245.14859      51621.573      37.234347      37.234347      37.234347      1.2069159      29.369911     -382.9065      -64.101643    
    978000   978000         518.3099       793.20448      5512.6253      4915.4632      5591.2948     -675.83167      2199.5564      3137.9886     -1875.3476      21.350596     -423.66026     -1525.5155     -2210.2038     -245.14859      51621.573      37.234347      37.234347      37.234347      1.2069159     -1199.9375      2423.3201      1156.2309    
    979000   979000         532.63285      731.72624      5732.1706      5181.2922      5745.8043     -564.51206      2176.7758      3269.9384     -1904.9798      21.359398     -377.02976     -1537.4445     -2213.1316     -245.14859      51621.573      37.234347      37.234347      37.234347      1.2069159     -144.72791      1285.8943      1054.0123    
    980000   980000         525.88784     -1114.9949      4156.3663      4995.7876      5673.0422     -677.25458      2194.0622      3179.5765     -1902.7487      22.21932      -422.50776     -1528.6248     -2219.2313     -245.14859      51621.573      37.234347      37.234347      37.234347      1.2069159     -2459.7307      1911.9992     -2797.2531    
    981000   981000         529.97761     -1186.4936      4307.9727      5201.2217      5717.1608     -515.93916      2310.0291      3218.4071     -1904.1385      21.077902     -411.42504     -1536.3021     -2213.5876     -245.14859      51621.573      37.234347      37.234347      37.234347      1.2069159     -2209.94       -194.69322     -1154.8476    
    982000   982000         525.34344      200.4458       5048.7967      4897.8916      5667.1694     -769.27788      2186.742       3104.4775     -1892.3539      21.756727     -427.73423     -1542.8207     -2219.3452     -245.14859      51621.573      37.234347      37.234347      37.234347      1.2069159      385.4859      -712.83031      928.6818     
    983000   983000         536.00239      1753.3122      6426.3643      5106.3873      5782.1534     -675.76614      2180.5172      3161.4592     -1916.0209      21.36303      -378.3866      -1534.2087     -2210.4895     -245.14859      51621.573      37.234347      37.234347      37.234347      1.2069159      1976.8444      1005.0084      2278.0839    
    984000   984000         528.96619     -351.42819      4975.5011      5240.073       5706.2501     -466.17709      2246.1085      3251.3838     -1853.4034      20.8692       -395.78717     -1523.9174     -2211.4307     -245.14859      51621.573      37.234347      37.234347      37.234347      1.2069159     -923.97667     -551.04435      420.73645    
    985000   985000         529.27761     -361.94325      4791.8124      5064.3006      5709.6095     -645.3089       2182.3859      3158.566      -1889.6386      19.649472     -361.63031     -1542.081      -2212.5604     -245.14859      51621.573      37.234347      37.234347      37.234347      1.2069159      747.95386     -1074.4743     -759.30932    
    986000   986000         530.86644      652.37503      5455.9281      4964.7891      5726.749      -761.95996      2162.9268      3108.3518     -1895.1064      20.524379     -386.02796     -1551.1767     -2221.4518     -245.14859      51621.573      37.234347      37.234347      37.234347      1.2069159      917.14639     -254.97148      1294.9502    
    987000   987000         542.36226     -105.72944      5127.3403      5206.9384      5850.7609     -643.82246      2197.1844      3203.7381     -1911.5798      22.008724     -404.09075     -1536.9863     -2214.0968     -245.14859      51621.573      37.234347      37.234347      37.234347      1.2069159     -126.94715      1878.4508     -2068.692     
    988000   988000         533.89896      647.31514      5592.9322      5105.6025      5759.4625     -653.86003      2234.3711      3126.4531     -1889.6862      20.11202      -389.28814     -1540.5186     -2215.3032     -245.14859      51621.573      37.234347      37.234347      37.234347      1.2069159     -612.57976      2076.8116      477.71357    
    989000   989000         522.21439     -1316.6942      3874.4588      4865.7289      5633.4147     -767.68576      2239.2306      3097.3946     -1890.8828      21.642746     -485.903       -1527.707      -2221.4608     -245.14859      51621.573      37.234347      37.234347      37.234347      1.2069159     -688.62109     -3149.5681     -111.89331    
    990000   990000         530.59769     -232.67015      4986.426       5161.5912      5723.85       -562.25876      2213.5343      3168.6525     -1834.2755      19.62637      -373.50986     -1536.2119     -2220.0748     -245.14859      51621.573      37.234347      37.234347      37.234347      1.2069159     -1040.0357     -673.17374      1015.1989    
    991000   991000         525.66439     -297.99464      4797.9127      5022.2573      5670.6317     -648.3744       2195.5296      3192.349      -1935.7493      20.889262     -377.3251      -1537.8748     -2206.1931     -245.14859      51621.573      37.234347      37.234347      37.234347      1.2069159      339.57784     -1606.658       373.09621    
    992000   992000         540.97018      693.84313      5686.7361      5164.3779      5835.7437     -671.36579      2200.0786      3117.5539     -1851.5546      18.815338     -393.6421      -1540.4181     -2222.1989     -245.14859      51621.573      37.234347      37.234347      37.234347      1.2069159      921.76608      485.29767      674.46563    
    993000   993000         529.92515      812.9971       5809.1857      5197.1227      5716.5949     -519.47218      2251.8511      3220.7492     -1886.6509      20.134607     -379.45167     -1531.662      -2214.4426     -245.14859      51621.573      37.234347      37.234347      37.234347      1.2069159      828.4199       1080.2461      530.32531    
    994000   994000         524.52901      197.17817      5033.4791      4885.034       5658.3838     -773.34976      2276.4502      3045.5281     -1897.5865      20.873632     -437.51389     -1557.3359     -2223.7653     -245.14859      51621.573      37.234347      37.234347      37.234347      1.2069159     -151.31955      356.17281      386.68126    
    995000   995000         523.82024      295.4955       5328.511       5106.0479      5650.7379     -544.69001      2292.1491      3165.7352     -1876.8169      19.698704     -376.84063     -1549.4448     -2219.1707     -245.14859      51621.573      37.234347      37.234347      37.234347      1.2069159      722.63283      766.16739     -602.31371    
    996000   996000         534.73606      224.75752      5261.0256      5091.8174      5768.4928     -676.67538      2182.4579      3198.1047     -1945.8954      21.41209      -389.86319     -1531.618      -2211.2736     -245.14859      51621.573      37.234347      37.234347      37.234347      1.2069159      1015.0654      721.67182     -1062.4647    
    997000   997000         533.63736     -563.2702       4756.4034      5180.4601      5756.6406     -576.18047      2313.296       3185.0223     -1944.0881      21.885086     -416.35587     -1528.1479     -2207.792      -245.14859      51621.573      37.234347      37.234347      37.234347      1.2069159     -2175.9323      2799.5961     -2313.4744    
    998000   998000         550.04207      2482.0685      7028.7563      5160.1368      5933.6072     -773.4704       2228.668       3042.5407     -1927.8405      19.986221     -364.34886     -1552.9625     -2219.5135     -245.14859      51621.573      37.234347      37.234347      37.234347      1.2069159      5053.0252      877.12775      1516.0524    
    999000   999000         524.97425      634.1565       5480.2038      5002.7806      5663.1868     -660.40626      2153.3431      3160.6021     -1868.0303      20.154592     -382.58038     -1532.2268     -2211.6685     -245.14859      51621.573      37.234347      37.234347      37.234347      1.2069159     -707.65459      1917.7465      692.37758    
   1000000   1000000        536.49458      481.83855      5779.5248      5416.7738      5787.4629     -370.68914      2371.37        3186.5132     -1839.9024      19.738287     -355.08029     -1536.3308     -2216.997      -245.14859      51621.573      37.234347      37.234347      37.234347      1.2069159      445.32693      636.7424       363.44631    
Loop time of 1496.16 on 1 procs for 1000000 steps with 3620 atoms

Performance: 57.748 ns/day, 0.416 hours/ns, 668.377 timesteps/s, 2.420 Matom-step/s
100.0% CPU use with 1 MPI tasks x 1 OpenMP threads

MPI task timing breakdown:
Section |  min time  |  avg time  |  max time  |%varavg| %total
---------------------------------------------------------------
Pair    | 16.392     | 16.392     | 16.392     |   0.0 |  1.10
Bond    | 204.79     | 204.79     | 204.79     |   0.0 | 13.69
Kspace  | 934.15     | 934.15     | 934.15     |   0.0 | 62.44
Neigh   | 127.23     | 127.23     | 127.23     |   0.0 |  8.50
Comm    | 32.674     | 32.674     | 32.674     |   0.0 |  2.18
Output  | 5.7588     | 5.7588     | 5.7588     |   0.0 |  0.38
Modify  | 141.3      | 141.3      | 141.3      |   0.0 |  9.44
Other   |            | 33.87      |            |       |  2.26

Nlocal:           3620 ave        3620 max        3620 min
Histogram: 1 0 0 0 0 0 0 0 0 0
Nghost:          11725 ave       11725 max       11725 min
Histogram: 1 0 0 0 0 0 0 0 0 0
Neighs:              0 ave           0 max           0 min
Histogram: 1 0 0 0 0 0 0 0 0 0
FullNghs:  1.60815e+06 ave 1.60815e+06 max 1.60815e+06 min
Histogram: 1 0 0 0 0 0 0 0 0 0

Total # of neighbors = 1608154
Ave neighs/atom = 444.24144
Ave special neighs/atom = 5.9723757
Neighbor list builds = 38737
Dangerous builds = 0

# --- Cleanup ---
unfix nvt_fix

undump dump_nvt

# --- Write Output ---
write_dump all custom nvt_production_last.dump id type mol x y z xu yu zu vx vy vz modify sort id
write_data /home/alexzhao/PolyJarvis/data/PVC4/lammps/equil/nvt_production/nvt_production_out.data
System init for write_data ...
PPPM Kokkos initialization ...
  using 12-bit tables for long-range coulomb
  G vector (1/distance) = 0.29551199
  grid = 25 25 25
  stencil order = 5
  estimated absolute RMS force accuracy = 0.00035157799
  estimated relative force accuracy = 1.0587667e-06
  using double precision cuFFT
  3d grid and FFT values/proc = 32768 15625
Generated 6 of 6 mixed pair_coeff terms from sixthpower/sixthpower mixing rule

print "STAGE COMPLETE: NVT T=530.0->530.0K steps=1000000"
STAGE COMPLETE: NVT T=530.0->530.0K steps=1000000
quit
    |            |       |  2.26

Nlocal:           3620 ave        3620 max        3620 min
Histogram: 1 0 0 0 0 0 0 0 0 0
Nghost:          11725 ave       11725 max       11725 min
Histogram: 1 0 0 0 0 0 0 0 0 0
Neighs:              0 ave           0 max           0 min
Histogram: 1 0 0 0 0 0 0 0 0 0
FullNghs:  1.60815e+06 ave 1.60815e+06 max 1.60815e+06 min
Histogram: 1 0 0 0 0 0 0 0 0 0

Total # of neighbors = 1608154
Ave neighs/atom = 444.24144
Ave special neighs/atom = 5.9723757
Neighbor list builds = 38737
Dangerous builds = 0
System init for write_data ...
PPPM Kokkos initialization ...
  using 12-bit tables for long-range coulomb
  G vector (1/distance) = 0.29551199
  grid = 25 25 25
  stencil order = 5
  estimated absolute RMS force accuracy = 0.00035157799
  estimated relative force accuracy = 1.0587667e-06
  using double precision cuFFT
  3d grid and FFT values/proc = 32768 15625
Generated 6 of 6 mixed pair_coeff terms from sixthpower/sixthpower mixing rule
STAGE COMPLETE: NVT T=530.0->530.0K steps=1000000
