units real
atom_style full
boundary p p p

# --- Force Field Styles ---
pair_style lj/class2/coul/long 9.5 9.5
kspace_style pppm 1e-6
dielectric 1.000000
bond_style class2
angle_style class2
dihedral_style class2
improper_style class2
special_bonds lj/coul 0 0 1
pair_modify mix sixthpower tail yes
neighbor 2.0 bin
neigh_modify delay 0 every 1 check yes
neigh_modify one 4000
package gpu 1 neigh no

read_data /home/arz2/PolyJarvis/data/PVC1/lammps/equil/npt_production/npt_production_out.data
Reading data file ...
  orthogonal box = (5.5907684 5.5907684 5.5907684) to (42.794727 42.794727 42.794727)
  1 by 1 by 1 MPI processor grid
  reading atoms ...
  3620 atoms
  reading velocities ...
  3620 velocities
  scanning bonds ...
  4 = max bonds/atom
  scanning angles ...
  6 = max angles/atom
  scanning dihedrals ...
  12 = max dihedrals/atom
  scanning impropers ...
  4 = max impropers/atom
  orthogonal box = (5.5907684 5.5907684 5.5907684) to (42.794727 42.794727 42.794727)
  1 by 1 by 1 MPI processor grid
  reading bonds ...
  3610 bonds
  reading angles ...
  7200 angles
  reading dihedrals ...
  10710 dihedrals
  reading impropers ...
  4800 impropers
Finding 1-2 1-3 1-4 neighbors ...
  special bond factors lj:    0        0        1       
  special bond factors coul:  0        0        1       
     4 = max # of 1-2 neighbors
     6 = max # of 1-3 neighbors
    10 = max # of special neighbors
  special bonds CPU = 0.002 seconds
  read_data CPU = 0.201 seconds
include /home/arz2/PolyJarvis/data/PVC1/lammps/equil/emc_build.params
# LAMMPS parameters created by EMC v9.4.4, build Jul 31 2025 20:33:44

# Variables

variable	seed		index	-1
variable	ntotal		index	3620
variable	fshape		index	1
variable	output		index	emc_build
variable	field		index	pcff/pcff
variable	location1	index	/home/arz2/emc/field/
variable	nav		index	0.6022141179
variable	temperature	index	300
variable	radius		index	5
variable	nrelax		index	100
variable	weight_nonbond	index	0.0001
variable	weight_bond	index	0.0001
variable	weight_focus	index	1
variable	cutoff		index	9.5
variable	charge_cutoff	index	9.5
variable	kappa		index	4
variable	density1	index	0.55
variable	lprevious	index	0
variable	lphase		index	48.3854950346
variable	f_poly		index	10
variable	chem_repeat	index	*CC(Cl)*
variable	chem_cap	index	*[H]
variable	lg_repeat	index	6
variable	lg_cap		index	1
variable	norm_poly	index	100
variable	l_poly		index	362
variable	mg_repeat	index	50.48806
variable	mg_cap		index	1.00797
variable	m_poly		index	3031.29954
variable	n_poly		index	10
variable	mtotal		index	37519.6854
variable	nphase1		index	3620
variable	mphase1		index	37519.6854
variable	vphase1		index	113277.998291
variable	lbox		index	48.3854950346
variable	lphase1		index	48.3854950346
variable	lxx		index	48.3854950346
variable	lyy		index	48.3854950346
variable	lzz		index	48.3854950346
variable	lzy		index	0
variable	lzx		index	0
variable	lyx		index	0
variable	vtotal		index	113277.998291
variable	nl_poly		index	10

# Types

variable	type_c		index	1
variable	type_c1		index	2
variable	type_cl		index	3
variable	type_hc		index	4

variable	type_bond_c_c	index	1
variable	type_bond_c_c1	index	2
variable	type_bond_c_cl	index	3
variable	type_bond_c_hc	index	4
variable	type_bond_c1_cl	index	5
variable	type_bond_c1_hc	index	6

variable	type_angle_c_c_c1 index	1
variable	type_angle_c_c_cl index	2
variable	type_angle_c_c_hc index	3
variable	type_angle_c_c1_c index	4
variable	type_angle_c_c1_cl index	5
variable	type_angle_c_c1_hc index	6
variable	type_angle_c1_c_c1 index	7
variable	type_angle_c1_c_hc index	8
variable	type_angle_cl_c_hc index	9
variable	type_angle_cl_c1_hc index	10
variable	type_angle_hc_c_hc index	11

# Clusters

variable	n0_poly		index	1
variable	n1_poly		index	10
variable	nl_poly		index	10

# Flags

variable	flag_charged	index	1

# Masses

mass		1    12.01115  # c
mass		2    12.01115  # c1
mass		3    35.45300  # cl
mass		4     1.00797  # hc

# Potentials

pair_modify	mix sixthpower tail yes
special_bonds	lj/coul 0 0 1

# Pair Coeffs

pair_coeff	 1  1    0.05400    4.01000  # c,c
pair_coeff	 2  2    0.05400    4.01000  # c1,c1
pair_coeff	 3  3    0.22470    3.92000  # cl,cl
pair_coeff	 4  4    0.02000    2.99500  # hc,hc

# Bond Coeffs

bond_coeff	1    1.53000  299.67000 -501.77000  679.81000  # c,c
bond_coeff	2    1.53000  299.67000 -501.77000  679.81000  # c,c1
bond_coeff	3    1.79000  194.31900    0.00000    0.00000  # c,cl
bond_coeff	4    1.10100  345.00000 -691.89000  844.60000  # c,hc
bond_coeff	5    1.79000  194.31900    0.00000    0.00000  # c1,cl
bond_coeff	6    1.10100  345.00000 -691.89000  844.60000  # c1,hc

# Angle Coeffs

angle_coeff	 1  112.67000   39.51600   -7.44300   -9.55830  # c,c,c1
angle_coeff	 2  107.00000   61.17450    0.00000    0.00000  # c,c,cl
angle_coeff	 3  110.77000   41.45300  -10.60400    5.12900  # c,c,hc
angle_coeff	 4  112.67000   39.51600   -7.44300   -9.55830  # c,c1,c
angle_coeff	 5  107.00000   61.17450    0.00000    0.00000  # c,c1,cl
angle_coeff	 6  110.77000   41.45300  -10.60400    5.12900  # c,c1,hc
angle_coeff	 7  112.67000   39.51600   -7.44300   -9.55830  # c1,c,c1
angle_coeff	 8  110.77000   41.45300  -10.60400    5.12900  # c1,c,hc
angle_coeff	 9  107.99680   51.09870    0.00000    0.00000  # cl,c,hc
angle_coeff	10  107.99680   51.09870    0.00000    0.00000  # cl,c1,hc
angle_coeff	11  107.66000   39.64100  -12.92100   -2.43180  # hc,c,hc

# BondBond Coeffs

angle_coeff	 1 bb    0.00000    1.53000    1.53000  # c,c,c1
angle_coeff	 2 bb    0.00000    1.53000    1.79000  # c,c,cl
angle_coeff	 3 bb    3.38720    1.53000    1.10100  # c,c,hc
angle_coeff	 4 bb    0.00000    1.53000    1.53000  # c,c1,c
angle_coeff	 5 bb    0.00000    1.53000    1.79000  # c,c1,cl
angle_coeff	 6 bb    3.38720    1.53000    1.10100  # c,c1,hc
angle_coeff	 7 bb    0.00000    1.53000    1.53000  # c1,c,c1
angle_coeff	 8 bb    3.38720    1.53000    1.10100  # c1,c,hc
angle_coeff	 9 bb    0.00000    1.79000    1.10100  # cl,c,hc
angle_coeff	10 bb    0.00000    1.79000    1.10100  # cl,c1,hc
angle_coeff	11 bb    5.33160    1.10100    1.10100  # hc,c,hc

# BondAngle Coeffs

angle_coeff	 1 ba    8.01600    8.01600    1.53000    1.53000  # c,c,c1
angle_coeff	 2 ba    0.00000    0.00000    1.53000    1.79000  # c,c,cl
angle_coeff	 3 ba   20.75400   11.42100    1.53000    1.10100  # c,c,hc
angle_coeff	 4 ba    8.01600    8.01600    1.53000    1.53000  # c,c1,c
angle_coeff	 5 ba    0.00000    0.00000    1.53000    1.79000  # c,c1,cl
angle_coeff	 6 ba   20.75400   11.42100    1.53000    1.10100  # c,c1,hc
angle_coeff	 7 ba    8.01600    8.01600    1.53000    1.53000  # c1,c,c1
angle_coeff	 8 ba   20.75400   11.42100    1.53000    1.10100  # c1,c,hc
angle_coeff	 9 ba    0.00000    0.00000    1.79000    1.10100  # cl,c,hc
angle_coeff	10 ba    0.00000    0.00000    1.79000    1.10100  # cl,c1,hc
angle_coeff	11 ba   18.10300   18.10300    1.10100    1.10100  # hc,c,hc

# Dihedral Coeffs

dihedral_coeff	 1    0.00000    0.00000    0.05140    0.00000   -0.14300    0.00000  # c,c,c1,c
dihedral_coeff	 2    0.00000    0.00000    0.00000    0.00000    0.15000    0.00000  # c,c,c1,cl
dihedral_coeff	 3    0.00000    0.00000    0.03160    0.00000   -0.16810    0.00000  # c,c,c1,hc
dihedral_coeff	 4    0.00000    0.00000    0.05140    0.00000   -0.14300    0.00000  # c,c1,c,c1
dihedral_coeff	 5    0.00000    0.00000    0.03160    0.00000   -0.16810    0.00000  # c,c1,c,hc
dihedral_coeff	 6    0.00000    0.00000    0.00000    0.00000    0.15000    0.00000  # c1,c,c,cl
dihedral_coeff	 7    0.00000    0.00000    0.03160    0.00000   -0.16810    0.00000  # c1,c,c,hc
dihedral_coeff	 8    0.00000    0.00000    0.00000    0.00000    0.15000    0.00000  # c1,c,c1,cl
dihedral_coeff	 9    0.00000    0.00000    0.03160    0.00000   -0.16810    0.00000  # c1,c,c1,hc
dihedral_coeff	10    0.00000    0.00000    0.00000    0.00000   -0.10000    0.00000  # cl,c,c,hc
dihedral_coeff	11    0.00000    0.00000    0.00000    0.00000   -0.10000    0.00000  # cl,c1,c,hc
dihedral_coeff	12   -0.14320    0.00000    0.06170    0.00000   -0.10830    0.00000  # hc,c,c,hc
dihedral_coeff	13   -0.14320    0.00000    0.06170    0.00000   -0.10830    0.00000  # hc,c,c1,hc

# MiddleBondTorsion Coeffs

dihedral_coeff	 1 mbt  -17.78700   -7.18770    0.00000    1.53000  # c,c,c1,c
dihedral_coeff	 2 mbt    0.00000    0.00000    0.00000    1.53000  # c,c,c1,cl
dihedral_coeff	 3 mbt  -14.87900   -3.65810   -0.31380    1.53000  # c,c,c1,hc
dihedral_coeff	 4 mbt  -17.78700   -7.18770    0.00000    1.53000  # c,c1,c,c1
dihedral_coeff	 5 mbt  -14.87900   -3.65810   -0.31380    1.53000  # c,c1,c,hc
dihedral_coeff	 6 mbt    0.00000    0.00000    0.00000    1.53000  # c1,c,c,cl
dihedral_coeff	 7 mbt  -14.87900   -3.65810   -0.31380    1.53000  # c1,c,c,hc
dihedral_coeff	 8 mbt    0.00000    0.00000    0.00000    1.53000  # c1,c,c1,cl
dihedral_coeff	 9 mbt  -14.87900   -3.65810   -0.31380    1.53000  # c1,c,c1,hc
dihedral_coeff	10 mbt    0.00000    0.00000    0.00000    1.53000  # cl,c,c,hc
dihedral_coeff	11 mbt    0.00000    0.00000    0.00000    1.53000  # cl,c1,c,hc
dihedral_coeff	12 mbt  -14.26100   -0.53220   -0.48640    1.53000  # hc,c,c,hc
dihedral_coeff	13 mbt  -14.26100   -0.53220   -0.48640    1.53000  # hc,c,c1,hc

# EndBondTorsion Coeffs

dihedral_coeff	 1 ebt   -0.07320    0.00000    0.00000   -0.07320    0.00000    0.00000    1.53000    1.53000  # c,c,c1,c
dihedral_coeff	 2 ebt    0.00000    0.00000    0.00000    0.00000    0.00000    0.00000    1.53000    1.79000  # c,c,c1,cl
dihedral_coeff	 3 ebt    0.24860    0.24220   -0.09250    0.08140    0.05910    0.22190    1.53000    1.10100  # c,c,c1,hc
dihedral_coeff	 4 ebt   -0.07320    0.00000    0.00000   -0.07320    0.00000    0.00000    1.53000    1.53000  # c,c1,c,c1
dihedral_coeff	 5 ebt    0.24860    0.24220   -0.09250    0.08140    0.05910    0.22190    1.53000    1.10100  # c,c1,c,hc
dihedral_coeff	 6 ebt    0.00000    0.00000    0.00000    0.00000    0.00000    0.00000    1.53000    1.79000  # c1,c,c,cl
dihedral_coeff	 7 ebt    0.24860    0.24220   -0.09250    0.08140    0.05910    0.22190    1.53000    1.10100  # c1,c,c,hc
dihedral_coeff	 8 ebt    0.00000    0.00000    0.00000    0.00000    0.00000    0.00000    1.53000    1.79000  # c1,c,c1,cl
dihedral_coeff	 9 ebt    0.24860    0.24220   -0.09250    0.08140    0.05910    0.22190    1.53000    1.10100  # c1,c,c1,hc
dihedral_coeff	10 ebt    0.00000    0.00000    0.00000    0.00000    0.00000    0.00000    1.79000    1.10100  # cl,c,c,hc
dihedral_coeff	11 ebt    0.00000    0.00000    0.00000    0.00000    0.00000    0.00000    1.79000    1.10100  # cl,c1,c,hc
dihedral_coeff	12 ebt    0.21300    0.31200    0.07770    0.21300    0.31200    0.07770    1.10100    1.10100  # hc,c,c,hc
dihedral_coeff	13 ebt    0.21300    0.31200    0.07770    0.21300    0.31200    0.07770    1.10100    1.10100  # hc,c,c1,hc

# AngleTorsion Coeffs

dihedral_coeff	 1 at    0.38860   -0.31390    0.13890    0.38860   -0.31390    0.13890  112.67000  112.67000  # c,c,c1,c
dihedral_coeff	 2 at    0.00000    0.00000    0.00000    0.00000    0.00000    0.00000  112.67000  107.00000  # c,c,c1,cl
dihedral_coeff	 3 at   -0.24540    0.00000   -0.11360    0.31130    0.45160   -0.19880  112.67000  110.77000  # c,c,c1,hc
dihedral_coeff	 4 at    0.38860   -0.31390    0.13890    0.38860   -0.31390    0.13890  112.67000  112.67000  # c,c1,c,c1
dihedral_coeff	 5 at   -0.24540    0.00000   -0.11360    0.31130    0.45160   -0.19880  112.67000  110.77000  # c,c1,c,hc
dihedral_coeff	 6 at    0.00000    0.00000    0.00000    0.00000    0.00000    0.00000  112.67000  107.00000  # c1,c,c,cl
dihedral_coeff	 7 at   -0.24540    0.00000   -0.11360    0.31130    0.45160   -0.19880  112.67000  110.77000  # c1,c,c,hc
dihedral_coeff	 8 at    0.00000    0.00000    0.00000    0.00000    0.00000    0.00000  112.67000  107.00000  # c1,c,c1,cl
dihedral_coeff	 9 at   -0.24540    0.00000   -0.11360    0.31130    0.45160   -0.19880  112.67000  110.77000  # c1,c,c1,hc
dihedral_coeff	10 at    0.00000    0.00000    0.00000    0.00000    0.00000    0.00000  107.00000  110.77000  # cl,c,c,hc
dihedral_coeff	11 at    0.00000    0.00000    0.00000    0.00000    0.00000    0.00000  107.00000  110.77000  # cl,c1,c,hc
dihedral_coeff	12 at   -0.80850    0.55690   -0.24660   -0.80850    0.55690   -0.24660  110.77000  110.77000  # hc,c,c,hc
dihedral_coeff	13 at   -0.80850    0.55690   -0.24660   -0.80850    0.55690   -0.24660  110.77000  110.77000  # hc,c,c1,hc

# AngleAngleTorsion Coeffs

dihedral_coeff	 1 aat  -22.04500  112.67000  112.67000  # c,c,c1,c
dihedral_coeff	 2 aat    0.00000  112.67000  107.00000  # c,c,c1,cl
dihedral_coeff	 3 aat  -16.16400  112.67000  110.77000  # c,c,c1,hc
dihedral_coeff	 4 aat  -22.04500  112.67000  112.67000  # c,c1,c,c1
dihedral_coeff	 5 aat  -16.16400  112.67000  110.77000  # c,c1,c,hc
dihedral_coeff	 6 aat    0.00000  112.67000  107.00000  # c1,c,c,cl
dihedral_coeff	 7 aat  -16.16400  112.67000  110.77000  # c1,c,c,hc
dihedral_coeff	 8 aat    0.00000  112.67000  107.00000  # c1,c,c1,cl
dihedral_coeff	 9 aat  -16.16400  112.67000  110.77000  # c1,c,c1,hc
dihedral_coeff	10 aat    0.00000  107.00000  110.77000  # cl,c,c,hc
dihedral_coeff	11 aat    0.00000  107.00000  110.77000  # cl,c1,c,hc
dihedral_coeff	12 aat  -12.56400  110.77000  110.77000  # hc,c,c,hc
dihedral_coeff	13 aat  -12.56400  110.77000  110.77000  # hc,c,c1,hc

# BondBond13 Coeffs

dihedral_coeff	 1 bb13    0.00000    1.53000    1.53000  # c,c,c1,c
dihedral_coeff	 2 bb13    0.00000    1.53000    1.79000  # c,c,c1,cl
dihedral_coeff	 3 bb13    0.00000    1.53000    1.10100  # c,c,c1,hc
dihedral_coeff	 4 bb13    0.00000    1.53000    1.53000  # c,c1,c,c1
dihedral_coeff	 5 bb13    0.00000    1.53000    1.10100  # c,c1,c,hc
dihedral_coeff	 6 bb13    0.00000    1.53000    1.79000  # c1,c,c,cl
dihedral_coeff	 7 bb13    0.00000    1.53000    1.10100  # c1,c,c,hc
dihedral_coeff	 8 bb13    0.00000    1.53000    1.79000  # c1,c,c1,cl
dihedral_coeff	 9 bb13    0.00000    1.53000    1.10100  # c1,c,c1,hc
dihedral_coeff	10 bb13    0.00000    1.79000    1.10100  # cl,c,c,hc
dihedral_coeff	11 bb13    0.00000    1.79000    1.10100  # cl,c1,c,hc
dihedral_coeff	12 bb13    0.00000    1.10100    1.10100  # hc,c,c,hc
dihedral_coeff	13 bb13    0.00000    1.10100    1.10100  # hc,c,c1,hc

# Improper Coeffs

improper_coeff	 1    0.00000    0.00000  # c,c,cl,hc
improper_coeff	 2    0.00000    0.00000  # c,c,hc,c1
improper_coeff	 3    0.00000    0.00000  # c,c,hc,cl
improper_coeff	 4    0.00000    0.00000  # c,c,hc,hc
improper_coeff	 5    0.00000    0.00000  # c,c1,c1,hc
improper_coeff	 6    0.00000    0.00000  # c,c1,hc,hc
improper_coeff	 7    0.00000    0.00000  # c,cl,hc,hc
improper_coeff	 8    0.00000    0.00000  # c,hc,hc,hc
improper_coeff	 9    0.00000    0.00000  # c1,c,c,cl
improper_coeff	10    0.00000    0.00000  # c1,c,c,hc
improper_coeff	11    0.00000    0.00000  # c1,c,cl,hc

# AngleAngle Coeffs

improper_coeff	 1 aa    0.00000    0.00000    0.00000  107.00000  110.77000  107.99680  # c,c,cl,hc
improper_coeff	 2 aa    0.11840   -1.31990   -1.31990  110.77000  112.67000  110.77000  # c,c,hc,c1
improper_coeff	 3 aa    0.00000    0.00000    0.00000  110.77000  107.00000  107.99680  # c,c,hc,cl
improper_coeff	 4 aa    0.27380   -0.48250    0.27380  110.77000  110.77000  107.66000  # c,c,hc,hc
improper_coeff	 5 aa   -1.31990   -1.31990    0.11840  112.67000  110.77000  110.77000  # c,c1,c1,hc
improper_coeff	 6 aa    0.27380   -0.48250    0.27380  110.77000  110.77000  107.66000  # c,c1,hc,hc
improper_coeff	 7 aa    0.00000    0.00000    0.00000  107.99680  107.99680  107.66000  # c,cl,hc,hc
improper_coeff	 8 aa   -0.31570   -0.31570   -0.31570  107.66000  107.66000  107.66000  # c,hc,hc,hc
improper_coeff	 9 aa    0.00000    0.00000    0.00000  112.67000  107.00000  107.00000  # c1,c,c,cl
improper_coeff	10 aa   -1.31990   -1.31990    0.11840  112.67000  110.77000  110.77000  # c1,c,c,hc
improper_coeff	11 aa    0.00000    0.00000    0.00000  107.00000  110.77000  107.99680  # c1,c,cl,hc


# --- Thermo Output ---
thermo_style custom step time temp press enthalpy etotal ke pe ebond eangle edihed eimp evdwl ecoul elong etail vol lx ly lz density pxx pyy pzz
thermo_modify flush yes
thermo 1000

# --- Trajectory ---
dump dump_npt all custom 1000 npt_cool300.dump id type mol x y z ix iy iz vx vy vz

# --- Restart Checkpointing ---
# No restart checkpointing

# --- Initial Velocities (optional) ---
# Velocities read from data file

# --- SHAKE Constraints ---
# SHAKE disabled

# --- NPT Thermostat + Barostat (Nose-Hoover) ---
# T_damp = 100.0 fs  (heat bath coupling)
# P_damp = 1000.0 fs  (pressure bath coupling, ~10x T_damp typical)
# Ramp: T=530.0->300.0K  P=1.0->1.0atm
timestep 1.0
fix npt_fix all npt temp 530.0 300.0 100.0 iso 1.0 1.0 1000.0

run 1000000

CITE-CITE-CITE-CITE-CITE-CITE-CITE-CITE-CITE-CITE-CITE-CITE-CITE

Your simulation uses code contributions which should be cited:

- GPU package (short-range, long-range and three-body potentials): doi:10.1016/j.cpc.2010.12.021, doi:10.1016/j.cpc.2011.10.012, doi:10.1016/j.cpc.2013.08.002, doi:10.1016/j.commatsci.2014.10.068, doi:10.1016/j.cpc.2016.10.020, doi:10.3233/APC200086

@Article{Brown11,
 author = {W. M. Brown and P. Wang and S. J. Plimpton and A. N. Tharrington},
 title = {Implementing Molecular Dynamics on Hybrid High Performance Computers---Short Range Forces},
 journal = {Comput.\ Phys.\ Commun.},
 year =    2011,
 volume =  182,
 pages =   {898--911},
 doi =     {10.1016/j.cpc.2010.12.021}
}

@Article{Brown12,
 author = {W. M. Brown and A. Kohlmeyer and S. J. Plimpton and A. N. Tharrington},
 title = {Implementing Molecular Dynamics on Hybrid High Performance Computers - Particle-Particle Particle-Mesh},
 journal = {Comput.\ Phys.\ Commun.},
 year =    2012,
 volume =  183,
 doi =     {10.1016/j.cpc.2011.10.012},
 pages =   {449--459}
}

@Article{Brown13,
 author = {W. M. Brown and Y. Masako},
 title = {Implementing Molecular Dynamics on Hybrid High Performance Computers---Three-Body Potentials},
 journal = {Comput.\ Phys.\ Commun.},
 year =    2013,
 volume =  184,
 pages =   {2785--2793},
 doi =     {10.1016/j.cpc.2013.08.002},
}

@Article{Trung15,
 author = {T. D. Nguyen and S. J. Plimpton},
 title = {Accelerating Dissipative Particle Dynamics Simulations for Soft Matter Systems},
 journal = {Comput.\ Mater.\ Sci.},
 year =    2015,
 doi =     {10.1016/j.commatsci.2014.10.068},
 volume =  100,
 pages =   {173--180}
}

@Article{Trung17,
 author = {T. D. Nguyen},
 title = {{GPU}-Accelerated {T}ersoff Potentials for Massively Parallel
    Molecular Dynamics Simulations},
 journal = {Comput.\ Phys.\ Commun.},
 year =    2017,
 doi =     {10.1016/j.cpc.2016.10.020},
 volume =  212,
 pages =   {113--122}
}

@inproceedings{Nikolskiy19,
 author = {V. Nikolskiy and V. Stegailov},
 title = {{GPU} Acceleration of Four-Site Water Models in {LAMMPS}},
 booktitle = {Proceedings of the International Conference on Parallel
    Computing (ParCo 2019), Prague, Czech Republic},
 doi =     {10.3233/APC200086},
 year =    2019
}

CITE-CITE-CITE-CITE-CITE-CITE-CITE-CITE-CITE-CITE-CITE-CITE-CITE

PPPM initialization ...
  using 12-bit tables for long-range coulomb
  G vector (1/distance) = 0.29557299
  grid = 25 25 25
  stencil order = 5
  estimated absolute RMS force accuracy = 0.00035076057
  estimated relative force accuracy = 1.056305e-06
  using double precision KISS FFT
  3d grid and FFT values/proc = 32768 15625
Generated 6 of 6 mixed pair_coeff terms from sixthpower/sixthpower mixing rule
Neighbor list info ...
  update: every = 1 steps, delay = 0 steps, check = yes
  max neighbors/atom: 4000, page size: 100000
  master list distance cutoff = 11.5
  ghost atom cutoff = 11.5
  binsize = 5.75, bins = 7 7 7
  1 neighbor lists, perpetual/occasional/extra = 1 0 0
  (1) pair lj/class2/coul/long/gpu, perpetual
      attributes: full, newton on
      pair build: full/bin
      stencil: full/bin/3d
      bin: standard
Per MPI rank memory allocation (min/avg/max) = 25.28 | 25.28 | 25.28 Mbytes
   Step          Time           Temp          Press         Enthalpy        TotEng         KinEng         PotEng         E_bond        E_angle        E_dihed        E_impro         E_vdwl         E_coul         E_long         E_tail         Volume           Lx             Ly             Lz          Density          Pxx            Pyy            Pzz      
         0   0              533.67676     -12.477618      5133.6776      5143.0483      5757.0656     -614.01725      2266.5394      3239.6939     -1899.6348      24.304283     -470.32957     -1551.4009     -2223.1895     -245.74981      51495.282      37.203958      37.203958      37.203958      1.2098758      2620.3597     -1974.6928     -683.09981    
      1000   1000           542.74691     -154.62198      5257.079       5375.0765      5854.9103     -479.83371      2293.8497      3214.6947     -1884.5171      20.346569     -348.66765     -1549.4634     -2226.0766     -241.84378      52326.985      37.403184      37.403184      37.403184      1.1906457     -1392.7054      525.38146      403.45798    
      2000   2000           531.52089     -76.90203       5158.321       5216.1803      5733.809      -517.62874      2263.1866      3201.4742     -1880.5671      20.837173     -344.88417     -1552.0986     -2225.5769     -245.30212      51589.263      37.226577      37.226577      37.226577      1.2076718     -1706.042       10.620084      1464.7158    
      3000   3000           518.56604     -1055.9218      4272.5592      5071.5168      5594.0579     -522.5411       2286.4505      3230.0371     -1908.8646      21.775383     -394.75942     -1537.9603     -2219.2199     -243.91841      51881.921      37.296838      37.296838      37.296838      1.2008595     -135.63406     -1023.0143     -2009.1171    
      4000   4000           533.81503     -1565.6024      3950.1997      5122.3813      5758.5572     -636.17596      2244.4812      3204.8172     -1892.0167      19.962238     -451.34456     -1542.1109     -2219.9644     -246.50352      51337.83       37.166001      37.166001      37.166001      1.2135865     -2340.2892     -1100.8013     -1255.7166    
      5000   5000           520.41885     -203.0046       4860.9291      5011.3059      5614.0451     -602.73928      2245.3842      3275.0837     -1898.9955      22.397506     -484.28375     -1539.5531     -2222.7723     -249.15046      50792.424      37.033917      37.033917      37.033917      1.2266179     -1494.4901      299.58331      585.89303    
      6000   6000           537.70123      1539.6385      6422.2232      5251.2924      5800.4797     -549.18735      2191.5236      3201.6575     -1911.4467      22.053212     -281.73922     -1549.6035     -2221.6324     -242.67445      52147.871      37.360458      37.360458      37.360458      1.1947352      3321.0628      1129.4638      168.38883    
      7000   7000           542.48615      405.49883      5537.8952      5231.7295      5852.0973     -620.36781      2216.567       3165.4052     -1895.1934      21.024211     -351.12744     -1551.223      -2225.8203     -244.4385       51771.533      37.270367      37.270367      37.270367      1.20342       -2664.2303      673.00774      3207.719     
      8000   8000           519.40003     -540.4579       4645.2605      5046.0493      5603.0546     -557.00532      2259.5339      3211.4        -1874.8781      20.57311      -393.93097     -1550.8501     -2228.8532     -248.87587      50848.464      37.047532      37.047532      37.047532      1.2252661     -234.55729     -495.18634     -891.63009    
      9000   9000           533.4309       6.2682396      5297.4757      5292.7802      5754.4134     -461.63314      2304.6588      3222.152      -1842.241       19.736301     -406.56246     -1542.4878     -2216.8891     -246.37812      51363.959      37.172306      37.172306      37.172306      1.2129691      995.68787      1350.8944     -2327.7775    
     10000   10000          531.10374      640.0407       5458.4726      4980.6502      5729.309      -748.65873      2186.4439      3149.6529     -1901.3134      20.740791     -437.31661     -1546.7155     -2220.1509     -247.2166       51189.749      37.130232      37.130232      37.130232      1.2170972     -1378.5008      2107.6729      1190.95      
     11000   11000          521.99341      244.93413      5140.0237      4953.3873      5631.0308     -677.6436       2224.854       3090.3708     -1906.1226      20.860658     -360.05066     -1538.1923     -2209.3635     -242.20853      52248.183      37.384398      37.384398      37.384398      1.1924414      1013.7603     -285.96012      7.0021856    
     12000   12000          525.20508     -1640.3099      3817.1102      5053.3411      5665.6769     -612.33578      2257.6824      3249.8871     -1941.2264      21.107321     -447.08721     -1534.781      -2217.918      -244.88538      51677.058      37.247683      37.247683      37.247683      1.2056201      339.96631     -2040.6293     -3220.2668    
     13000   13000          533.06201     -69.885697      4972.0585      5024.0934      5750.4339     -726.34053      2232.4285      3076.1665     -1870.8388      20.221295     -414.57287     -1546.2725     -2223.4727     -247.8738       51054.027      37.097388      37.097388      37.097388      1.2203327     -828.18502     -575.79212      1194.32      
     14000   14000          528.20175     -544.98878      4660.2139      5065.711       5698.0036     -632.29261      2317.7761      3095.2036     -1875.9392      18.168764     -417.03487     -1547.6056     -2222.8613     -248.04833      51018.105      37.088685      37.088685      37.088685      1.2211919     -713.38611     -1192.3444      270.76411    
     15000   15000          512.12849     -942.80197      4153.0601      4868.4095      5524.6125     -656.20297      2190.4245      3153.9126     -1862.8511      19.774645     -393.20839     -1540.7676     -2223.4876     -243.24212      52026.17       37.331372      37.331372      37.331372      1.19753       -1090.0776     -1769.9143      31.585989    
     16000   16000          528.85317      710.34932      5628.4544      5091.0949      5705.0308     -613.93591      2246.8239      3170.2886     -1909.1802      20.916029     -390.74136     -1531.9411     -2220.1017     -243.97403      51870.094      37.294004      37.294004      37.294004      1.2011333      878.95555      1312.4899     -60.397452    
     17000   17000          520.55913     -297.26786      4700.5726      4921.6826      5615.5584     -693.87584      2143.4497      3216.0905     -1916.5497      21.174487     -410.2063      -1533.4559     -2214.3786     -248.12825      51001.672      37.084703      37.084703      37.084703      1.2215854     -897.96166      79.114799     -72.956722    
     18000   18000          534.15509     -192.53628      4729.7584      4873.7173      5762.2255     -888.5082       2140.5933      3053.732      -1888.6756      20.225736     -462.64908     -1534.3478     -2217.3868     -246.83709      51268.452      37.149252      37.149252      37.149252      1.2152288     -130.58307     -2194.214       1747.1883    
     19000   19000          525.69056      110.77776      5111.8405      5028.902       5670.914      -642.01197      2164.6345      3236.187      -1913.3098      20.666892     -401.39121     -1532.8431     -2215.9562     -246.50907      51336.674      37.165722      37.165722      37.165722      1.2136138      2109.7495     -1101.8835     -675.5327     
     20000   20000          517.72687     -1231.0454      3958.4055      4895.9118      5585.0053     -689.09355      2196.9171      3156.8808     -1875.1071      19.206        -420.52269     -1541.7811     -2224.6867     -242.34631      52218.48       37.377313      37.377313      37.377313      1.1931197     -1872.4806     -961.89718     -858.75853    
     21000   21000          524.92317      1198.7107      5972.7725      5075.1634      5662.6357     -587.47231      2172.9018      3239.015      -1880.3948      21.982506     -370.62464     -1547.5396     -2222.8125     -246.46975      51344.864      37.167698      37.167698      37.167698      1.2134203      1516.3181      2316.8714     -237.05755    
     22000   22000          532.37247     -1057.4715      4426.5441      5220.5958      5742.9954     -522.39964      2282.212       3277.8909     -1880.0829      20.049143     -482.62333     -1527.1845     -2212.661      -245.78557      51487.789      37.202154      37.202154      37.202154      1.2100519     -724.82087     -897.82402     -1549.7696    
     23000   23000          522.756       -650.53         4537.794       5029.5859      5639.2573     -609.67142      2214.5569      3222.2719     -1904.6437      20.971289     -389.14171     -1550.39       -2223.2961     -244.13077      51836.792      37.286021      37.286021      37.286021      1.201905      -1207.6348     -723.39712     -20.558121    
     24000   24000          519.52221      550.79375      5347.5533      4932.7984      5604.3727     -671.57421      2234.0304      3146.5487     -1892.7875      19.805625     -411.85234     -1546.3712     -2220.9479     -245.09476      51632.911      37.237073      37.237073      37.237073      1.2066509      1564.0054      897.77818     -809.40228    
     25000   25000          528.0125      -520.22711      4711.3569      5109.2647      5695.9621     -586.6974       2216.1717      3199.1876     -1879.4426      20.942935     -391.99049     -1540.9112     -2210.6554     -241.29428      52446.149      37.431555      37.431555      37.431555      1.1879404     -998.60159     -1086.6262      524.54645    
     26000   26000          532.52836     -1621.0621      3816.0737      5024.4653      5744.6772     -720.21187      2228.5092      3159.7159     -1880.3002      21.94442      -485.68109     -1544.3819     -2220.0182     -247.58735      51113.094      37.111689      37.111689      37.111689      1.2189225     -2246.0028     -2932.8393      315.65588    
     27000   27000          526.51609     -503.50642      4577.6831      4959.9893      5679.8195     -719.83022      2180.8914      3116.9602     -1892.615       20.613514     -371.67935     -1548.1585     -2225.8424     -243.06932      52063.155      37.340216      37.340216      37.340216      1.1966793     -733.6474      -126.64292     -650.22893    
     28000   28000          517.84554     -625.98155      4470.492       4942.3748      5586.2855     -643.91069      2288.1274      3133.3055     -1917.678       19.637485     -415.36325     -1533.2236     -2218.7163     -244.8296       51688.831      37.250511      37.250511      37.250511      1.2053455      84.102459     -1247.0112     -715.0359     
     29000   29000          529.45258     -282.31017      4827.2285      5041.7186      5711.497      -669.77839      2170.6816      3211.1151     -1888.6909      20.93645      -415.39387     -1550.5834     -2217.8433     -242.91583      52096.052      37.348079      37.348079      37.348079      1.1959236     -101.11817     -870.88329      125.07094    
     30000   30000          521.47018     -1505.4501      3821.0949      4957.626       5625.3864     -667.76041      2167.1219      3264.9869     -1904.6194      21.074856     -476.71023     -1532.3787     -2207.2357     -244.46775      51765.339      37.268881      37.268881      37.268881      1.203564      -1510.9722     -2225.8105     -779.56776    
     31000   31000          515.53804      141.81796      5069.004       4962.2255      5561.3931     -599.16763      2216.1314      3183.5023     -1904.3698      20.497049     -349.99146     -1546.3676     -2218.5695     -245.12301      51626.959      37.235642      37.235642      37.235642      1.20679        326.2529       1288.3721     -1189.1711    
     32000   32000          517.68771     -27.141649      4884.1587      4904.4439      5584.5828     -680.13893      2234.3606      3153.9686     -1903.3272      20.832286     -407.27445     -1552.7483     -2225.9505     -246.9413       51246.817      37.144025      37.144025      37.144025      1.2157418      456.69134     -484.07657     -54.039721    
     33000   33000          535.12886     -1733.8957      3813.337       5126.8311      5772.7301     -645.89902      2319.0062      3124.5013     -1926.004       21.08204      -424.04863     -1537.8104     -2222.6255     -243.63034      51943.266      37.311532      37.311532      37.311532      1.1994413     -2075.1945     -1909.0355     -1217.4572    
     34000   34000          527.27455     -569.4713       4480.4832      4908.781       5688.0015     -779.22045      2188.9122      3149.3037     -1914.386       20.930593     -452.84565     -1548.3983     -2222.737      -245.39317      51570.121      37.221973      37.221973      37.221973      1.2081201     -731.69492     -2517.1109      1540.3919    
     35000   35000          531.89233      107.47394      5119.4258      5039.3925      5737.8159     -698.42342      2193.3074      3188.3851     -1896.2307      20.795346     -423.83074     -1556.9574     -2223.8924     -247.8386       51061.278      37.099144      37.099144      37.099144      1.2201594     -605.45354      201.7667       726.10867    
     36000   36000          523.08787      786.12305      5539.1256      4954.7016      5642.8373     -688.13573      2164.888       3186.1249     -1875.9575      20.696656     -410.18204     -1548.7884     -2224.9174     -248.25559      50975.511      37.078361      37.078361      37.078361      1.2222123      1541.9437      366.10348      450.32202    
     37000   37000          518.09376      238.79155      5081.9897      4905.7621      5588.9631     -683.20097      2257.1704      3157.8627     -1904.5618      21.09394      -438.36552     -1553.5476     -2222.8531     -250.08155      50603.316      36.987899      36.987899      36.987899      1.2312019     -705.14149      1532.6956     -111.17946    
     38000   38000          529.87342      603.03376      5536.3237      5078.9911      5716.0369     -637.04581      2199.4964      3192.6743     -1878.643       20.787282     -383.22076     -1562.6496     -2225.4903     -243.35818      52001.358      37.325436      37.325436      37.325436      1.1981014      18.354478      2241.2061     -450.45928    
     39000   39000          515.28543      359.27198      5096.8092      4828.2001      5558.6682     -730.46804      2150.2109      3132.4242     -1894.5956      22.434195     -369.40276     -1550.8251     -2220.7139     -246.85341      51265.063      37.148433      37.148433      37.148433      1.2153091      1237.2327      558.62816     -718.04497    
     40000   40000          520.77219      1784.605       6275.7354      4928.8224      5617.8569     -689.03445      2210.4842      3187.5599     -1923.0143      22.698749     -408.33326     -1550.4789     -2227.9508     -244.53392      51751.331      37.265519      37.265519      37.265519      1.2038898      1918.6035      2650.8478      784.36382    
     41000   41000          522.83589     -59.276432      4852.1055      4897.1675      5640.1191     -742.95156      2089.6594      3236.9633     -1960.2348      23.808634     -374.36257     -1539.7471     -2219.0384     -242.77697      52125.85       37.355199      37.355199      37.355199      1.1952399      718.3116      -1138.6811      242.54018    
     42000   42000          524.16261     -1149.9856      4090.8754      4971.46        5654.4312     -682.97112      2230.7142      3098.3765     -1892.8354      20.112049     -381.5369      -1536.5356     -2221.266      -241.02264      52505.258      37.445612      37.445612      37.445612      1.186603      -2110.8458      909.29581     -2248.4069    
     43000   43000          516.78327     -974.83202      4065.1605      4798.4217      5574.8262     -776.40449      2209.2798      3105.0459     -1908.2101      20.251929     -445.15727     -1541.0822     -2216.5326     -245.36217      51576.639      37.22354       37.22354       37.22354       1.2079674     -282.37078     -1915.1092     -727.01606    
     44000   44000          528.48236     -633.90767      4578.5584      5063.708       5701.0307     -637.32275      2261.3178      3139.1998     -1912.3871      21.9091       -367.76922     -1560.3537     -2219.2394     -241.14975      52477.581      37.439031      37.439031      37.439031      1.1872288     -944.78004     -1333.1667      376.22377    
     45000   45000          520.36268     -1437.9974      3759.0626      4845.38        5613.4392     -768.05925      2158.059       3141.1458     -1907.9871      20.263691     -422.29666     -1540.108      -2217.136      -244.30812      51799.16       37.276996      37.276996      37.276996      1.2027781     -2879.2305     -1577.7286      142.9668     
     46000   46000          516.1193      -500.84112      4437.4731      4814.903       5567.6636     -752.76054      2240.5104      3038.2343     -1885.8336      19.781055     -408.43327     -1538.0457     -2218.9738     -244.90638      51672.627      37.246618      37.246618      37.246618      1.2057235     -2284.6359     -778.34951      1560.4621    
     47000   47000          515.80628      1271.5668      5768.6209      4812.0715      5564.2868     -752.21531      2127.7104      3144.473      -1921.946       20.180816     -374.16167     -1534.5286     -2213.9433     -245.33996      51581.307      37.224663      37.224663      37.224663      1.2078581      2133.1653      711.7994       969.7356     
     48000   48000          519.7218      -489.46194      4582.873       4951.6962      5606.5258     -654.82959      2191.6442      3158.5679     -1923.1155      20.826636     -340.91364     -1546.4545     -2215.3847     -244.92733      51668.207      37.245556      37.245556      37.245556      1.2058266     -2787.3506      16.01818       1302.9466    
     49000   49000          522.2823       1315.5112      5839.4667      4828.3614      5634.1473     -805.78587      2074.5707      3117.1748     -1917.0414      21.751821     -352.93422     -1540.474      -2208.8335     -240.12351      52701.861      37.492291      37.492291      37.492291      1.1821764      594.38613      1360.0016      1992.1459    
     50000   50000          521.62989     -525.11776      4612.7655      5017.4292      5627.1094     -609.68022      2250.1329      3112.5651     -1903.4997      20.669457     -318.63277     -1546.8645     -2224.0506     -239.49642      52839.853      37.524986      37.524986      37.524986      1.1790892     -493.04895     -82.976967     -999.32737    
     51000   51000          516.4113      -539.91828      4469.5645      4877.0882      5570.8135     -693.72531      2211.0553      3118.2271     -1869.5051      19.868281     -399.58144     -1550.8192     -2222.9702     -244.5185       51754.595      37.266302      37.266302      37.266302      1.2038139     -608.45042     -1761.2327      749.92823    
     52000   52000          510.67257     -1.6419744      4862.0038      4863.2561      5508.9066     -645.65049      2226.0335      3167.363      -1933.2166      21.365611     -364.21906     -1543.027      -2219.95       -241.9848       52296.491      37.395917      37.395917      37.395917      1.1913399      38.211344     -1531.3452      1488.2079    
     53000   53000          521.27837     -78.612098      4787.5662      4847.781       5623.3173     -775.53636      2129.8324      3187.6532     -1944.3068      23.235131     -394.49155     -1553.1011     -2224.3576     -240.94756      52521.618      37.449501      37.449501      37.449501      1.1862334     -620.31852     -1340.1803      1724.6626    
     54000   54000          533.1518       1276.9132      5997.7013      5020.7608      5751.4026     -730.64179      2187.0836      3138.9719     -1924.3943      20.885638     -377.72077     -1550.2394     -2225.2285     -241.22914      52460.311      37.434924      37.434924      37.434924      1.1876197      1793.3714      1926.5834      110.78487    
     55000   55000          527.95055     -1.3105992      4926.3036      4927.3065      5695.2938     -767.98734      2122.9276      3102.5791     -1871.6578      20.517809     -373.37063     -1548.0291     -2220.9544     -241.19141      52468.517      37.436876      37.436876      37.436876      1.1874339     -228.00966      164.8129       59.264964    
     56000   56000          516.63574     -253.19028      4505.5095      4697.694       5573.2347     -875.54069      2121.3785      3036.0347     -1909.3981      20.283725     -358.84227     -1558.3604     -2226.6368     -243.14494      52046.964      37.336345      37.336345      37.336345      1.1970515     -1900.2073      819.4403       321.19613    
     57000   57000          532.45307     -1357.0404      3908.2303      4935.956       5743.8649     -807.90894      2179.7869      3065.5147     -1888.7178      20.485506     -411.98547     -1545.3163     -2227.6764     -243.69807      51928.83       37.308075      37.308075      37.308075      1.1997747     -450.92099     -1002.8349     -2617.3654    
     58000   58000          529.48183     -1360.4566      4027.914       5069.3034      5711.8125     -642.50907      2237.9771      3148.3108     -1920.4494      19.905098     -350.65852     -1549.4628     -2228.1314     -241.10602      52487.1        37.441295      37.441295      37.441295      1.1870135     -1780.4457     -681.77668     -1619.1476    
     59000   59000          509.68278      301.30374      5085.5058      4854.7211      5498.2293     -643.50819      2260.4223      3048.5663     -1855.9595      20.230645     -348.79312     -1546.7625     -2221.2123     -240.95392      52520.233      37.449172      37.449172      37.449172      1.1862647      2917.2186     -904.63018     -1108.6772    
     60000   60000          523.2931      -1691.5731      3646.147       4943.7254      5645.0513     -701.32589      2246.7153      3142.2655     -1914.1686      21.133775     -435.22375     -1538.2187     -2223.8295     -240.59892      52597.726      37.467581      37.467581      37.467581      1.184517      -3100.1972     -792.09474     -1182.4273    
     61000   61000          522.90616     -1535.6125      3752.3688      4940.9081      5640.8772     -699.96908      2169.6474      3103.4186     -1891.9885      20.846841     -329.04279     -1549.8197     -2223.0309     -238.45401      53070.845      37.579587      37.579587      37.579587      1.1739572     -2597.393      -1740.6333     -268.81126    
     62000   62000          510.57917     -880.71199      4116.5517      4786.5768      5507.8991     -721.32228      2200.016       3076.2267     -1867.9913      19.132869     -374.52272     -1552.43       -2221.7538     -242.59359      52165.252      37.364609      37.364609      37.364609      1.1943371     -425.01883     -421.53526     -1795.5819    
     63000   63000          512.64418      812.99455      5422.6987      4804.6105      5530.1755     -725.56498      2139.8389      3172.4268     -1917.0757      22.160113     -370.28679     -1550.7261     -2221.9023     -242.75812      52129.897      37.356165      37.356165      37.356165      1.1951471      650.0417       568.63171      1220.3102    
     64000   64000          524.32983      163.33698      5129.1767      5005.3489      5656.2351     -650.8862       2198.0244      3132.5411     -1905.811       20.659038     -327.74289     -1548.9896     -2219.5673     -243.44617      51982.562      37.320939      37.320939      37.320939      1.1985346      321.47002     -1186.9596      1355.5005    
     65000   65000          510.17129     -114.44822      4649.3275      4737.7666      5503.4991     -765.73256      2179.8651      3025.5325     -1881.5558      20.459248     -324.01375     -1555.8078     -2230.212      -238.83683      52985.779      37.559498      37.559498      37.559498      1.1758419      1348.7088     -209.99865     -1482.0548    
     66000   66000          513.29152     -827.50802      4276.3423      4905.9161      5537.1587     -631.24264      2187.7174      3204.6219     -1920.0745      20.987688     -352.3656      -1545.6832     -2226.4463     -242.58398      52167.32       37.365102      37.365102      37.365102      1.1942898     -659.41722     -1860.9704      37.863548    
     67000   67000          499.71624      467.57253      4927.2964      4577.2211      5390.7147     -813.49363      2149.8477      3027.0115     -1887.3976      20.01366      -350.42824     -1550.8843     -2221.6564     -246.50405      51337.72       37.165975      37.165975      37.165975      1.2135891     -878.96061      495.82222      1785.856     
     68000   68000          506.25534      917.26004      5485.19        4795.7188      5461.2555     -665.53676      2264.7585      3138.6045     -1932.1537      20.149441     -385.62531     -1549.9656     -2221.3046     -245.53468      51540.401      37.214821      37.214821      37.214821      1.2088167     -58.913277      153.09732      2657.5961    
     69000   69000          520.26023      385.22998      5271.9503      4974.3692      5612.3341     -637.96487      2211.2433      3174.0904     -1923.0033      21.92601      -347.75054     -1552.6092     -2221.8616     -238.91936      52967.476      37.555172      37.555172      37.555172      1.1762482      912.7561      -559.54872      802.48257    
     70000   70000          518.30981     -6.4812905      4732.1852      4737.0502      5591.2938     -854.24358      2157.6515      3058.8027     -1901.2006      20.960359     -411.26172     -1559.6086     -2219.5873     -245.8777       51468.498      37.197507      37.197507      37.197507      1.2105055      1159.9283     -477.62411     -701.74805    
     71000   71000          515.65286     -675.79277      4218.795       4726.6242      5562.6318     -836.00758      2170.9613      3110.6958     -1921.9991      19.79348      -447.55708     -1549.2758     -2218.6261     -245.6023       51526.21       37.211405      37.211405      37.211405      1.2091496      124.26593     -1244.5264     -907.1178     
     72000   72000          514.68705      322.75217      4880.2564      4639.0407      5552.2131     -913.1724       2083.635       3094.7898     -1894.888       20.092528     -447.9898      -1548.0121     -2220.7998     -246.94495      51246.061      37.143843      37.143843      37.143843      1.2157597     -669.03859      1075.5617      561.73343    
     73000   73000          522.23335     -962.45939      4197.8805      4923.8512      5633.6192     -709.76797      2217.196       3100.0457     -1918.0864      20.123358     -362.39193     -1549.0391     -2217.6156     -244.68076      51720.274      37.258063      37.258063      37.258063      1.2046127     -2006.2454      883.76783     -1764.9006    
     74000   74000          519.03298      406.64487      5055.8508      4752.7897      5599.095      -846.30536      2225.1915      2996.6804     -1919.6884      18.639025     -412.69576     -1542.5484     -2211.8838     -247.64049      51102.126      37.109035      37.109035      37.109035      1.2191841      109.08435      1045.4372      65.413041    
     75000   75000          530.21776      117.55589      5041.7959      4954.1517      5719.7515     -765.59971      2205.1106      3081.317      -1881.775       18.972923     -412.89472     -1551.8374     -2224.493      -247.54731      51121.361      37.11369       37.11369       37.11369       1.2187253     -1507.57        1684.3654      175.87228    
     76000   76000          505.38979     -299.52115      4441.3793      4664.4271      5451.9184     -787.49135      2214.6671      3045.5952     -1897.9826      19.525732     -403.55807     -1548.1053     -2217.6334     -247.83697      51061.613      37.099226      37.099226      37.099226      1.2201514      1726.2593     -2944.3468      319.52408    
     77000   77000          517.32924     -743.08338      4315.5792      4876.3209      5580.7158     -704.39492      2195.5128      3174.7158     -1878.4149      21.164653     -456.64102     -1540.8409     -2219.8914     -244.57452      51742.741      37.263457      37.263457      37.263457      1.2040896     -87.182426     -611.39904     -1530.6687    
     78000   78000          512.17659     -79.369189      4743.5636      4802.7883      5525.1314     -722.34308      2212.5256      3090.2127     -1862.8421      20.371927     -412.11172     -1548.8939     -2221.6055     -247.33519      51165.205      37.124297      37.124297      37.124297      1.217681       316.24726     -1908.752       1354.3971    
     79000   79000          519.04128     -366.20102      4499.1086      4772.4462      5599.1845     -826.73835      2185.3277      3048.1932     -1902.4635      19.323426     -419.27638     -1543.2146     -2214.6283     -247.26164      51180.425      37.127978      37.127978      37.127978      1.2173189     -1097.5425     -1486.8616      1485.8011    
     80000   80000          524.66243     -760.88923      4214.5991      4792.9361      5659.823      -866.88694      2113.6074      3124.7767     -1929.3069      21.10961      -430.9375      -1545.9541     -2220.1821     -242.81585      52117.503      37.353205      37.353205      37.353205      1.1954314     -1059.6327      2875.3575     -4098.3925    
     81000   81000          502.62947      375.08268      4999.1404      4716.0651      5422.1413     -706.07614      2168.5649      3136.9189     -1903.4829      20.505773     -363.14606     -1546.9625     -2218.4742     -244.54663      51748.64       37.264873      37.264873      37.264873      1.2039524      715.87138     -397.9277       807.30437    
     82000   82000          502.74872     -2020.8161      3084.0075      4619.5826      5423.4277     -803.84512      2152.4136      3143.6037     -1935.0481      21.868748     -420.07135     -1544.8579     -2221.7538     -242.88028      52103.678      37.349902      37.349902      37.349902      1.1957486     -2136.4039     -769.8944      -3156.15      
     83000   83000          518.8562       527.29341      5269.0436      4871.7321      5597.188      -725.45586      2189.9471      3167.2364     -1920.4734      21.358086     -420.9686      -1544.706      -2217.8495     -244.93893      51665.758      37.244968      37.244968      37.244968      1.2058837      916.95351      30.063233      634.8635     
     84000   84000          512.05067     -351.83705      4414.6854      4681.286       5523.773      -842.48696      2131.5597      3112.8708     -1883.7121      21.342132     -465.48207     -1544.3746     -2214.6908     -243.56618      51956.95       37.314809      37.314809      37.314809      1.1991254     -491.83058      310.72073     -874.40129    
     85000   85000          518.9279      -169.49964      4570.6301      4698.9394      5597.9615     -899.02207      2043.2466      3070.6044     -1874.4428      20.116832     -391.79645     -1550.8569     -2215.8938     -243.80752      51905.518      37.302492      37.302492      37.302492      1.2003136      967.93992     -1942.2206      465.78178    
     86000   86000          528.51815      4.146936       4808.0042      4804.8736      5701.4168     -896.5432       2175.5312      3009.9608     -1921.2208      20.855591     -414.87653     -1547.2057     -2219.5878     -244.47116      51764.617      37.268708      37.268708      37.268708      1.2035808     -293.94777      1621.9316     -1315.543     
     87000   87000          510.65233     -30.191998      4695.6037      4717.7881      5508.6883     -790.90023      2076.8048      3250.2659     -1940.8353      20.896809     -439.61988     -1541.8072     -2216.6054     -251.17789      50382.443      36.934005      36.934005      36.934005      1.2365994     -2043.4373      1564.7051      388.15618    
     88000   88000          518.70063      1432.0678      5802.6844      4732.8229      5595.5098     -862.68688      2102.5702      3080.9006     -1875.1612      19.480935     -437.75404     -1539.8784     -2212.8451     -247.043        51225.722      37.138928      37.138928      37.138928      1.2162425      1300.4844      1371.7867      1623.9323    
     89000   89000          495.98574     -209.38314      4157.6337      4312.5377      5350.4717     -1037.9341      2174.0275      3014.0733     -1969.6745      20.100741     -510.99679     -1541.0449     -2224.4194     -249.46857      50727.655      37.018169      37.018169      37.018169      1.2281841     -346.40955     -197.17803     -84.561848    
     90000   90000          509.34077     -698.97194      4145.1721      4674.6985      5494.5398     -819.84132      2179.7833      3086.6078     -1947.9364      22.11796      -383.83154     -1554.8838     -2221.6987     -243.6176       51945.983      37.312183      37.312183      37.312183      1.1993786     -3171.2147      2229.2218     -1154.9229    
     91000   91000          514.59515     -825.89334      3973.4422      4589.0286      5551.2217     -962.1931       2096.4151      3081.2275     -1915.628       21.464004     -457.48114     -1554.1507     -2234.0399     -247.61185      51108.037      37.110465      37.110465      37.110465      1.2190431      738.04737     -1713.02       -1502.7074    
     92000   92000          507.04735     -707.67958      4008.5547      4535.2869      5469.7995     -934.51253      2139.1975      3105.6389     -1958.6002      21.77107      -465.69014     -1547.8916     -2228.9381     -247.96096      51036.081      37.093041      37.093041      37.093041      1.2207618     -3130.1549      1140.2934     -133.17723    
     93000   93000          506.12248      266.77364      4818.8033      4623.2696      5459.8224     -836.55272      2149.221       3119.9997     -1894.628       20.935493     -466.15132     -1545.8195     -2220.1101     -251.80133      50257.7        36.903498      36.903498      36.903498      1.2396687      757.8965      -250.60725      293.03167    
     94000   94000          503.80957      467.26971      4934.1863      4582.3741      5434.8717     -852.49761      2168.1844      3056.0257     -1911.0464      20.670515     -424.67634     -1542.0783     -2219.5772     -245.12822      51625.862      37.235379      37.235379      37.235379      1.2068156      1401.788       904.19841     -904.17724    
     95000   95000          505.27611      42.570465      4622.5637      4591.3588      5450.6921     -859.33324      2145.3202      3127.3372     -1914.8931      19.885575     -465.93097     -1546.7128     -2224.3394     -251.78042      50261.874      36.90452       36.90452       36.90452       1.2395658     -1217.0382      1757.4705     -412.7209     
     96000   96000          503.39706      407.94943      4802.2423      4501.9194      5430.4218     -928.50239      2123.8134      3102.9635     -1881.8114      20.662747     -519.43648     -1548.9282     -2225.766      -250.7          50478.483      36.957459      36.957459      36.957459      1.2342466     -76.627832      2406.8599     -1106.3838    
     97000   97000          510.522       -1771.9464      3300.1516      4633.3208      5507.2824     -873.96157      2174.6478      3087.7357     -1932.3911      22.149778     -454.58132     -1543.0999     -2228.4226     -245.3024       51589.204      37.226563      37.226563      37.226563      1.2076732     -2206.1286     -2244.9976     -864.71294    
     98000   98000          506.20529     -46.956155      4677.1029      4712.2443      5460.7156     -748.47129      2236.9792      3140.4561     -1922.597       21.536814     -452.28761     -1543.0797     -2229.4791     -246.60959      51315.749      37.160672      37.160672      37.160672      1.2141087     -1291.9288     -701.96076      1853.0211    
     99000   99000          494.38768     -504.77985      4080.7913      4456.9086      5333.2326     -876.32399      2174.3113      3126.7202     -1893.5394      21.186313     -523.02151     -1548.6016     -2233.3793     -247.69387      51091.114      37.106369      37.106369      37.106369      1.2194469      607.65713     -668.83907     -1453.1576    
    100000   100000         505.33521     -392.50561      4263.7731      4554.8996      5451.3296     -896.43003      2148.1106      3059.9167     -1908.0949      17.997886     -422.4102      -1564.9954     -2226.9548     -248.82881      50858.08       37.049867      37.049867      37.049867      1.2250344     -1141.517      -99.421882      63.422029    
    101000   101000         529.0464      -246.25776      4748.5721      4931.8283      5707.1154     -775.28702      2215.2931      3127.2443     -1899.9309      19.809291     -466.95777     -1547.2078     -2223.5373     -248.00917      51026.16       37.090637      37.090637      37.090637      1.2209992     -610.99488      654.62302     -782.40141    
    102000   102000         502.23738      888.9581       5209.5496      4552.8787      5417.9117     -865.03298      2177.8208      3105.4678     -1911.0645      21.354517     -475.68215     -1557.3299     -2225.5996     -249.84463      50651.302      36.999587      36.999587      36.999587      1.2300355      396.42901      1007.5714      1262.8738    
    103000   103000         500.93916     -1775.2364      3293.1711      4632.3812      5403.907      -771.52579      2267.8463      3111.9773     -1939.748       20.9853       -450.42574     -1552.5364     -2229.6246     -244.6493       51726.923      37.25966       37.25966       37.25966       1.2044578     -1405.546      -990.03885     -2930.1243    
    104000   104000         511.04734     -62.469594      4476.6561      4522.198       5512.9495     -990.75145      2137.3417      3010.2823     -1914.6053      20.008126     -469.1534      -1550.6835     -2223.9413     -253.15933      49988.108      36.837394      36.837394      36.837394      1.2463544      403.32176      486.00716     -1076.7377    
    105000   105000         512.52302     -7.2259103      4662.8346      4668.2294      5528.8685     -860.63911      2087.5971      3153.4829     -1872.3231      20.704578     -474.05915     -1550.142      -2225.8994     -247.20567      51192.013      37.13078       37.13078       37.13078       1.2170433      704.19399     -420.85702     -305.0147     
    106000   106000         507.54647      305.57434      4808.2855      4579.7381      5475.1838     -895.44571      2115.9036      3079.8746     -1897.2519      20.355166     -435.29468     -1551.4009     -2227.6316     -246.76134      51284.191      37.153053      37.153053      37.153053      1.2148558      584.49473     -161.06199      493.29028    
    107000   107000         499.47459     -1379.3994      3512.8403      4548.9772      5388.1079     -839.13069      2129.6259      3131.5534     -1913.2227      21.800292     -432.29166     -1548.5729     -2228.023      -245.70239      51505.22       37.206351      37.206351      37.206351      1.2096424      527.24583     -2584.2477     -2081.1963    
    108000   108000         495.97967      1720.0576      5748.4253      4457.3014      5350.4063     -893.10488      2053.1165      3089.5487     -1902.1866      18.910692     -376.78206     -1547.6245     -2228.0876     -245.87343      51469.392      37.197722      37.197722      37.197722      1.2104844      4534.3776      1896.3211     -1270.526     
    109000   109000         505.5041       282.37423      4825.8016      4618.6138      5453.1516     -834.5378       2164.4101      3094.842      -1872.7801      21.459675     -467.32671     -1547.5242     -2227.6187     -251.53442      50311.029      36.916547      36.916547      36.916547      1.2383547     -458.08316      148.96832      1156.2375    
    110000   110000         508.97909      44.876519      4651.0423      4617.0823      5490.6382     -873.55595      2103.1254      3099.3977     -1917.874       21.33304      -407.72118     -1546.0962     -2225.7207     -243.88645      51888.721      37.298468      37.298468      37.298468      1.2007021      774.44504     -710.06685      70.251368    
    111000   111000         494.61585     -285.79715      4312.8458      4527.5959      5335.694      -808.09806      2161.6872      3110.4382     -1907.9144      20.317002     -427.58416     -1543.4246     -2221.6173     -245.61843      51522.826      37.21059       37.21059       37.21059       1.209229      -436.95347     -1458.7525      1038.3146    
    112000   112000         501.65394      1838.5125      6017.4883      4642.0435      5411.6177     -769.57423      2136.699       3123.2285     -1877.9552      20.363228     -401.41679     -1547.7341     -2222.7589     -246.69478      51298.027      37.156394      37.156394      37.156394      1.2145282      2043.375       2000.1966      1471.9661    
    113000   113000         504.90479     -99.343941      4326.1475      4399.4251      5446.6864     -1047.2613      2025.4752      3074.6666     -1913.6522      21.405321     -486.326       -1544.5522     -2224.278      -250.21116      50577.103      36.981511      36.981511      36.981511      1.23184        2052.5196     -1740.105      -610.44641    
    114000   114000         504.55042      1075.5229      5411.1212      4604.9871      5442.8637     -837.87665      2152.3182      3100.243      -1936.52        21.558237     -430.8513      -1528.7987     -2215.8261     -246.23448      51393.922      37.179532      37.179532      37.179532      1.212262       712.56197      101.76792      2412.2388    
    115000   115000         511.4548       37.264714      4583.1672      4555.5489      5517.345      -961.79608      2097.0972      3066.9119     -1882.0054      19.75511      -502.39972     -1539.5745     -2221.5807     -249.0224       50818.543      37.040264      37.040264      37.040264      1.2259875      1486.5329     -507.41516     -867.32357    
    116000   116000         498.14955      755.38828      5177.9765      4615.2734      5373.814      -758.54061      2138.2046      3146.0069     -1899.5103      21.153712     -402.55977     -1538.6263     -2223.2094     -247.75785      51077.921      37.103175      37.103175      37.103175      1.2197618     -234.54535      1401.4951      1099.2151    
    117000   117000         491.98513     -334.54826      4080.4718      4328.3985      5307.315      -978.91653      2096.5179      3087.1364     -1935.4595      21.239211     -475.4555      -1547.9296     -2224.9655     -249.04164      50814.618      37.03931       37.03931       37.03931       1.2260822      608.48115      498.86354     -2110.9895    
    118000   118000         505.91166      200.49668      4734.9804      4586.9303      5457.5481     -870.61777      2167.5768      3044.334      -1907.9528      20.118397     -418.36724     -1550.1851     -2226.1419     -249.93963      50632.05       36.994898      36.994898      36.994898      1.2305032     -1803.6981      1618.9019      786.28624    
    119000   119000         507.44086     -899.89749      4005.9221      4686.9655      5474.0444     -787.07896      2231.591       3051.9014     -1916.0698      19.554972     -392.1341      -1552.1049     -2229.8176     -243.86796      51892.653      37.29941       37.29941       37.29941       1.2006111     -75.571636     -719.62822     -1904.4926    
    120000   120000         498.84384     -1309.6737      3565.4883      4547.5581      5381.3036     -833.74551      2296.1041      2967.6544     -1912.3329      21.076993     -444.59485     -1541.8427     -2219.8106     -246.12587      51416.601      37.185         37.185         37.185         1.2117273      206.09038     -4127.4125     -7.6990099    
    121000   121000         505.15696      1947.0927      5952.1864      4500.9572      5449.4068     -948.44963      2112.6289      3015.7172     -1932.9797      20.981376     -399.15707     -1548.9031     -2216.7373     -247.6208       51106.19       37.110018      37.110018      37.110018      1.2190871      1402.6772      2119.111       2319.4899    
    122000   122000         500.77715      449.31374      4907.8888      4574.229       5402.1593     -827.93035      2144.9318      3156.5625     -1912.7782      21.009687     -482.55488     -1537.2787     -2217.8226     -248.53198      50918.822      37.064611      37.064611      37.064611      1.223573       3136.9934     -1173.6194     -615.43276    
    123000   123000         500.087        365.09285      4712.9768      4434.8485      5394.7143     -959.86578      2081.4038      3015.9903     -1904.9649      20.776696     -408.88963     -1542.2905     -2221.8916     -242.26729      52235.51       37.381376      37.381376      37.381376      1.1927307     -1251.0767      934.86362      1411.4916    
    124000   124000         497.25644      813.04608      5066.2618      4454.0732      5364.1795     -910.10626      2132.5244      3039.609      -1894.6218      20.01269      -454.9984      -1534.7293     -2217.9028     -245.11305      51629.058      37.236147      37.236147      37.236147      1.2067409     -100.37309      785.11652      1754.3948    
    125000   125000         503.89641      244.06592      4623.8175      4442.0915      5435.8085     -993.71705      2094.2544      3027.8596     -1894.355       20.187154     -482.1593      -1532.3126     -2227.1913     -247.87154      51054.494      37.097501      37.097501      37.097501      1.2203215     -1618.3943      2334.61        15.982081    
    126000   126000         499.97186     -909.73829      3654.4506      4336.7157      5393.4722     -1056.7565      2068.249       3006.1663     -1916.7473      20.922318     -470.55523     -1542.8533     -2221.9383     -246.09333      51423.4        37.186639      37.186639      37.186639      1.2115671     -2520.3065     -433.24213      224.33375    
    127000   127000         502.06937     -475.89934      4177.2686      4533.0318      5416.0992     -883.06746      2130.9446      3084.3105     -1898.1041      21.023835     -428.26436     -1561.3108     -2231.6672     -246.8827       51258.982      37.146964      37.146964      37.146964      1.2154533     -2463.9        -195.98572      1232.1877    
    128000   128000         500.59923      452.73288      4748.9295      4410.0418      5400.24       -990.19825      2079.1645      3080.258      -1923.172       20.801556     -458.87713     -1556.7257     -2231.6475     -246.56008      51326.053      37.163159      37.163159      37.163159      1.213865       171.53169      579.84171      606.82524    
    129000   129000         499.81111      1215.2104      5355.4913      4441.5582      5391.7381     -950.17997      2074.716       3065.1357     -1897.4524      20.724297     -429.05154     -1554.6241     -2229.628      -245.39945      51568.803      37.221655      37.221655      37.221655      1.2081509     -476.02564      1354.0148      2767.6421    
    130000   130000         502.66212      301.22565      4719.6721      4491.6852      5422.4935     -930.80835      2039.7664      3095.7939     -1888.7537      20.8414       -423.26901     -1546.5764     -2228.6109     -243.84757      51896.993      37.300449      37.300449      37.300449      1.2005108      516.24386     -792.88443      1180.3175    
    131000   131000         491.72476      954.36129      4978.1897      4273.3366      5304.5062     -1031.1696      2040.8945      3011.6758     -1887.4077      19.504669     -443.5212      -1552.1699     -2220.1459     -249.89105      50641.894      36.997296      36.997296      36.997296      1.230264       767.01222      979.30646      1116.7652    
    132000   132000         496.65453     -727.26134      3889.0709      4426.9629      5357.6864     -930.72351      2170.6509      3020.2754     -1891.5537      19.585802     -472.7253      -1548.2672     -2228.6894     -249.53529      50714.092      37.014869      37.014869      37.014869      1.2285125     -914.02273      820.95445     -2088.7157    
    133000   133000         505.71534     -253.85026      4160.0792      4347.2318      5455.4304     -1108.1985      2102.5918      2903.4909     -1889.1711      18.558413     -459.41765     -1557.2548     -2226.996      -250.33304      50552.478      36.975508      36.975508      36.975508      1.23244       -1793.7088      605.44409      426.71397    
    134000   134000         503.1429       181.69281      4688.6856      4555.6196      5427.68       -872.06038      2189.1005      3059.5869     -1921.8533      20.681253     -439.29074     -1558.1029     -2222.182      -252.00384      50217.313      36.89361       36.89361       36.89361       1.2406657     -253.62563     -329.45283      1128.1569    
    135000   135000         493.7947      -253.8158       4078.7163      4264.5235      5326.8358     -1062.3122      2067.0329      3043.5877     -1907.6607      19.969106     -499.4199      -1556.973      -2228.8483     -252.11147      50195.875      36.88836       36.88836       36.88836       1.2411956     -1042.8637      1265.2796     -983.86324    
    136000   136000         491.77063      38.010052      4433.8448      4405.8093      5305.001      -899.19175      2187.8893      3047.3849     -1911.5849      21.067133     -471.51605     -1546.7945     -2225.6377     -250.22216      50574.881      36.980969      36.980969      36.980969      1.2318941      935.24269     -1201.056       379.84342    
    137000   137000         488.53708     -898.91812      3550.7837      4210.1931      5270.119      -1059.9259      2096.3057      2999.1064     -1925.8124      20.965466     -481.53434     -1551.7381     -2217.2187     -251.59473      50298.97       36.913597      36.913597      36.913597      1.2386516      884.01584     -202.07021     -3378.7       
    138000   138000         496.08021     -55.274145      4395.7338      4437.2568      5351.4908     -914.23395      2115.3778      3045.8959     -1915.9919      20.314923     -415.36443     -1543.1198     -2221.3464     -245.67984      51509.947      37.207489      37.207489      37.207489      1.2095314      318.78114      142.06794     -626.67152    
    139000   139000         500.48377      1223.8864      5135.9308      4241.2121      5398.9945     -1157.7823      2016.6351      2989.8871     -1905.485       18.485926     -489.59828     -1557.3559     -2230.3513     -252.45917      50126.742      36.871417      36.871417      36.871417      1.2429074      1367.7136      1632.5759      671.36973    
    140000   140000         497.07679     -982.36946      3697.9698      4431.3033      5362.2415     -930.93825      2130.8723      3039.5126     -1909.472       19.506733     -439.17034     -1546.8416     -2225.3459     -247.23495      51185.95       37.129314      37.129314      37.129314      1.2171875     -1016.4467     -93.818777     -1836.8429    
    141000   141000         508.87499      175.32738      4686.9158      4556.5967      5489.5152     -932.91858      2131.4353      2998.3545     -1893.412       20.159848     -408.51818     -1552.4429     -2228.4952     -248.3008       50966.23       37.076111      37.076111      37.076111      1.2224349      1409.2983     -297.78956     -585.52658    
    142000   142000         492.24432      174.06406      4331.6156      4205.2076      5310.111      -1104.9034      2096.7949      2992.8922     -1907.9896      19.914976     -538.82688     -1539.1643     -2228.5247     -254.1388       49795.45       36.790008      36.790008      36.790008      1.2511765     -983.95085      1502.3767      3.7663188    
    143000   143000         514.90443     -806.0621       3930.5337      4530.4503      5554.5581     -1024.1078      2093.9104      2998.6029     -1858.6282      20.491789     -507.46518     -1542.3315     -2228.688      -247.97857      51032.457      37.092163      37.092163      37.092163      1.2208485     -308.33385     -680.71125     -1429.1412    
    144000   144000         491.33799     -710.91658      3852.3816      4376.4353      5300.3339     -923.89854      2168.3843      3029.8609     -1902.6416      20.112424     -463.90184     -1550.6369     -2225.0758     -250.36828      50545.363      36.973773      36.973773      36.973773      1.2326135     -1127.7053     -665.90323     -339.14118    
    145000   145000         496.88944      764.09554      4890.4398      4324.848       5360.2205     -1035.3725      2075.5439      2959.4263     -1882.9163      19.72965      -409.00176     -1567.6199     -2230.5343     -249.33374      50755.087      37.02484       37.02484       37.02484       1.2275203      566.46305      460.50863      1265.315     
    146000   146000         502.4522       1475.1747      5612.1095      4533.7161      5420.2291     -886.51297      2095.427       3162.5386     -1914.0972      20.516374     -466.42334     -1561.2336     -2223.2407     -252.46592      50125.401      36.871088      36.871088      36.871088      1.2429406      2949.5637      510.59968      965.36081    
    147000   147000         497.12811      2156.252       5911.1249      4339.0826      5362.7952     -1023.7125      2053.6902      3001.1216     -1881.5343      19.257516     -430.50324     -1559.875      -2225.8693     -253.14643      49990.655      36.83802       36.83802       36.83802       1.2462909      640.41482      3041.4234      2786.9178    
    148000   148000         499.30393      284.81039      4513.6458      4302.6837      5386.2669     -1083.5831      2166.9689      2893.7839     -1905.8496      19.919785     -492.4139      -1545.4237     -2220.5684     -249.16548      50789.361      37.033172      37.033172      37.033172      1.2266919      1217.0589     -1725.6504      1363.0227    
    149000   149000         491.00303      679.35214      4668.9531      4172.6758      5296.7205     -1124.0447      2114.1188      2998.43       -1928.5739      21.387439     -546.49184     -1556.0262     -2226.889      -252.64291      50090.287      36.862476      36.862476      36.862476      1.243812       2710.7941      1253.2044     -1925.9421    
    150000   150000         502.47393      169.54972      4586.7284      4463.7519      5420.4635     -956.71159      2126.2716      3117.1019     -1892.1757      21.310645     -569.09739     -1539.5953     -2220.5273     -254.45516      49733.539      36.774755      36.774755      36.774755      1.2527341      613.90343      192.16264     -297.41691    
    151000   151000         490.74282     -696.01456      3695.3309      4207.9181      5293.9135     -1085.9954      2142.5912      2985.4953     -1927.3842      19.048743     -547.7454      -1536.7227     -2221.2784     -250.60346      50497.929      36.962204      36.962204      36.962204      1.2337714     -728.67957     -951.03305     -408.33107    
    152000   152000         495.93447     -195.16583      4300.2337      4444.0271      5349.9187     -905.89157      2135.5658      3077.94       -1881.3281      19.939452     -472.46635     -1559.2382     -2226.3042     -250.49629      50519.534      36.967474      36.967474      36.967474      1.2332437     -444.85643      147.54179     -288.18284    
    153000   153000         489.97429      755.46168      4827.2583      4276.8434      5285.6229     -1008.7795      2099.5206      3061.4509     -1906.7421      20.608594     -500.68756     -1554.323      -2228.6069     -253.31378      49957.628      36.829905      36.829905      36.829905      1.2471148      1014.6085     -567.38906      1819.1656    
    154000   154000         491.14298     -550.71367      3794.4803      4196.9648      5298.2302     -1101.2655      2045.0689      3050.1519     -1884.2405      21.472296     -549.86438     -1549.138      -2234.7158     -252.53012      50112.659      36.867963      36.867963      36.867963      1.2432567     -795.20552      440.86916     -1297.8046    
    155000   155000         489.37033      667.88015      4775.7527      4282.3187      5279.1077     -996.78898      2042.731       3116.1241     -1909.2069      24.189985     -489.34497     -1550.121      -2231.1612     -249.8078       50658.769      37.001405      37.001405      37.001405      1.2298542      426.43727      1235.7689      341.43426    
    156000   156000         499.02115      1265.0612      5295.8285      4370.674       5383.2163     -1012.5423      2086.3275      3023.1541     -1926.6636      20.67781      -428.43517     -1557.5745     -2230.0284     -252.36772      50144.906      36.87587       36.87587       36.87587       1.2424572     -190.56011      1927.2756      2058.4682    
    157000   157000         489.40371     -1018.0735      3438.7022      4196.0376      5279.4677     -1083.4301      2062.3279      2979.8694     -1912.4308      20.188078     -471.08063     -1544.1984     -2218.1056     -248.10036      51007.406      37.086093      37.086093      37.086093      1.2214481     -1846.6071     -2274.9262      1067.3128    
    158000   158000         489.97643      1241.9451      5040.975       4128.8955      5285.646      -1156.7505      2046.9021      3030.0981     -1915.0594      21.326325     -567.90079     -1547.5539     -2224.5629     -251.30795      50356.368      36.927633      36.927633      36.927633      1.2372397      610.66482      1381.5038      1733.6666    
    159000   159000         512.56388     -707.3196       4000.1135      4522.4232      5529.3093     -1006.8861      2102.4515      3021.4477     -1881.3539      21.001564     -494.31502     -1542.5957     -2233.5223     -249.93327      50633.338      36.995212      36.995212      36.995212      1.2304719     -802.64311     -1389.8114      70.495739    
    160000   160000         497.00032      287.37058      4497.2881      4288.5128      5361.4166     -1072.9037      2127.7039      2985.4397     -1882.7511      19.55089      -526.8008      -1564.11       -2231.9364     -254.0386       49815.09       36.794845      36.794845      36.794845      1.2506832      558.19545     -958.70431      1262.6206    
    161000   161000         492.7936      -1744.0881      2996.2749      4277.2267      5316.0364     -1038.8097      2150.1174      2991.5839     -1878.5086      20.484663     -535.17274     -1550.782      -2236.5322     -251.28824      50360.319      36.928598      36.928598      36.928598      1.2371426     -973.85554     -2095.9247     -2162.4841    
    162000   162000         493.15002     -172.30987      3890.1504      4016.8535      5319.8812     -1303.0277      2032.4474      2864.7438     -1899.4842      19.446861     -523.55203     -1560.1389     -2236.4906     -250.9916       50419.838      36.943141      36.943141      36.943141      1.2356822     -56.22292       264.49129     -725.19798    
    163000   163000         499.28818      81.124151      4380.0347      4320.7867      5386.097      -1065.3103      2157.1735      2990.5982     -1907.8052      19.772935     -528.39214     -1558.7638     -2237.8937     -252.70464      50078.051      36.859474      36.859474      36.859474      1.2441159     -847.71934     -251.78744      1342.8792    
    164000   164000         494.79927     -783.54278      3619.3827      4194.7289      5337.6726     -1142.9437      2066.4356      2966.5207     -1873.0297      20.242608     -538.73471     -1550.382      -2233.9962     -251.34484      50348.977      36.925826      36.925826      36.925826      1.2374213      728.92626     -1187.5871     -1891.9675    
    165000   165000         501.82644      687.4994       5010.6739      4501.1937      5413.4786     -912.28495      2126.3423      3110.0126     -1871.2287      20.833923     -506.95777     -1556.9063     -2234.3811     -249.04714      50813.496      37.039037      37.039037      37.039037      1.2261093      1861.6971      271.4764      -70.675293    
[...]
    964000   964000         313.22417     -314.83003     -298.05718     -83.714583      3378.9219     -3462.6365      1347.9175      2018.4072     -2066.5399      14.969324     -915.86098     -1609.4416     -2252.0881     -271.08418      46682.752      36.006879      36.006879      36.006879      1.3346021     -1500.7763     -437.47973      993.76598    
    965000   965000         309.67719     -1293.1091     -1072.796      -190.6208       3340.6586     -3531.2794      1325.4405      2010.6124     -2033.1999      15.882115     -990.67966     -1606.7155     -2252.6194     -270.53088      46778.23       36.03141       36.03141       36.03141       1.331878      -484.09259     -1092.446      -2302.7885    
    966000   966000         306.97891      318.52095      43.818001     -175.13654      3311.5508     -3486.6873      1354.2732      1986.291      -2051.9575      16.22481      -931.73462     -1604.5756     -2255.2086     -268.48534      47134.626      36.122685      36.122685      36.122685      1.3218074      163.41651      530.92885      261.21748    
    967000   967000         307.79268      521.65268      45.015494     -309.2469       3320.3294     -3629.5763      1288.9215      1916.2502     -2062.1297      14.482297     -923.1335      -1610.3568     -2253.6103     -271.76461      46565.87       35.976804      35.976804      35.976804      1.337952      -74.175297      588.81797      1050.3153    
    968000   968000         309.13496      1344.4325      733.9602      -181.6342       3334.8094     -3516.4436      1255.0304      2049.273      -2049.249       16.136456     -926.34733     -1608.3931     -2252.8941     -271.00193      46696.921      36.010522      36.010522      36.010522      1.3341971      1633.2014      2502.8695     -102.77342    
    969000   969000         311.66699      343.55229      0.30496417    -231.97165      3362.1238     -3594.0954      1276.4642      1974.7183     -2046.8788      15.791312     -943.59184     -1615.8349     -2254.7636     -272.97563      46359.287      35.923523      35.923523      35.923523      1.3439141      1022.5013     -1320.2251      1328.3807    
    970000   970000         305.16769      440.12664      77.164941     -221.70402      3292.0122     -3513.7162      1323.1088      1997.1219     -2042.3681      15.665467     -952.24991     -1603.7548     -2251.2395     -271.78993      46561.533      35.975687      35.975687      35.975687      1.3380766      964.13301      363.19817     -6.9512551    
    971000   971000         313.42841      1823.1943      1105.5676     -128.68972      3381.1251     -3509.8149      1329.3554      2011.5582     -2064.1807      16.089845     -946.32564     -1607.1404     -2249.1716     -272.62379      46419.117      35.93897       35.93897       35.93897       1.3421819      1968.9386      1823.1522      1677.4921    
    972000   972000         303.14238      419.57743      18.400806     -266.22572      3270.1641     -3536.3898      1280.6962      2002.4239     -2039.5701      15.644113     -925.84374     -1614.772      -2254.9681     -272.06537      46514.393      35.963542      35.963542      35.963542      1.3394327      1354.9725     -672.68639      576.44616    
    973000   973000         302.54582      812.5143       320.86252     -235.07787      3263.7287     -3498.8066      1287.1891      2021.0199     -2042.9377      16.449424     -932.55299     -1598.8825     -2249.0917     -269.73624      46916.038      36.066758      36.066758      36.066758      1.3279659      2130.543      -301.55459      608.55447    
    974000   974000         300.88109     -2055.0645     -1739.7784     -338.97928      3245.7702     -3584.7495      1318.6309      1952.7928     -2047.1686      15.372706     -965.8106      -1606.5875     -2251.9793     -270.761        46738.474      36.0212        36.0212        36.0212        1.333011      -2162.4186     -1795.7898     -2206.9851    
    975000   975000         307.1294       262.44841     -169.74577     -346.9362       3313.1743     -3660.1105      1249.3033      2014.874      -2064.0941      16.274465     -1028.8939     -1597.8138     -2249.7604     -273.36329      46293.546      35.906534      35.906534      35.906534      1.3458226     -1466.0378      1099.412       1153.971     
    976000   976000         297.71703     -758.81949     -785.57072     -269.21856      3211.6378     -3480.8563      1321.2417      2059.2031     -2070.0978      15.160314     -942.61011     -1610.9515     -2252.802      -271.22455      46658.592      36.000667      36.000667      36.000667      1.3352931     -1673.7473     -649.83537      47.124167    
    977000   977000         309.74494      325.48572      38.583222     -183.003        3341.3895     -3524.3925      1279.6447      2010.7973     -2062.3533      15.639462     -906.97239     -1610.4094     -2250.7389     -271.09762      46680.438      36.006284      36.006284      36.006284      1.3346682      1343.0354     -444.28432      77.706048    
    978000   978000         304.68833     -98.89941      -408.66375     -341.42042      3286.8411     -3628.2615      1254.3682      1972.7172     -2059.687       15.392117     -958.33834     -1604.6083     -2248.1054     -271.44447      46620.791      35.990942      35.990942      35.990942      1.3363758     -656.7912       1035.4078     -675.31484    
    979000   979000         312.10048     -928.13691     -796.07842     -162.92142      3366.8        -3529.7215      1293.6007      2038.7646     -2051.9832      16.291715     -973.41379     -1604.5641     -2248.4174     -270.54353      46776.043      36.030849      36.030849      36.030849      1.3319403     -2306.9121     -1311.7224      834.22385    
    980000   980000         309.33227      1036.857       470.954       -232.69525      3336.9378     -3569.6331      1277.5737      1964.697      -2043.0749      15.846596     -931.34996     -1605.3012     -2248.0243     -271.95632      46533.045      35.968348      35.968348      35.968348      1.3388958      893.13788      1531.5249      685.90821    
    981000   981000         305.50022     -87.808698     -303.80051     -244.63392      3295.5993     -3540.2333      1283.9555      1974.5401     -2013.4472      15.075676     -947.84914     -1600.5238     -2251.9843     -273.90347      46202.248      35.882914      35.882914      35.882914      1.348482      -414.189       -805.46689      956.22979    
    982000   982000         303.05075      187.83279     -181.55379     -309.51674      3269.1756     -3578.6923      1263.5896      2012.1714     -2068.2394      16.035531     -950.43098     -1603.311      -2248.5075     -270.90917      46712.911      36.014632      36.014632      36.014632      1.3337404     -1259.5217      456.51213      1366.5079    
    983000   983000         311.58905      1444.1453      745.47588     -225.35469      3361.2829     -3586.6376      1246.0052      2006.0261     -2064.1746      15.897713     -945.16456     -1596.9348     -2248.2927     -274.53895      46095.302      35.855206      35.855206      35.855206      1.3516106      1663.2724     -89.684408      2758.848     
    984000   984000         300.87863     -173.29179     -462.45129     -345.22481      3245.7437     -3590.9685      1290.6348      1996.1524     -2070.6927      16.621255     -970.39102     -1603.9041     -2249.3893     -272.82792      46384.387      35.930005      35.930005      35.930005      1.3431868     -1789.2128      1936.76       -667.42255    
    985000   985000         306.87683     -45.401241     -314.74865     -283.96776      3310.4496     -3594.4174      1277.4814      1987.7808     -2062.6903      16.659142     -958.46574     -1603.3487     -2251.834      -272.22192      46487.644      35.956646      35.956646      35.956646      1.3402034     -872.1841       1309.2071     -573.22678    
    986000   986000         299.82399     -132.72818     -462.38871     -372.03811      3234.3667     -3606.4049      1232.1841      2060.2305     -2083.3492      15.45336      -972.51029     -1609.8536     -2248.5597     -271.12441      46675.826      36.005098      36.005098      36.005098      1.3348001      1128.964       479.8599      -2007.0084    
    987000   987000         306.5247       181.54497     -81.300886     -204.61908      3306.6511     -3511.2701      1309.3437      2031.3973     -2064.4478      15.514735     -958.09842     -1596.7204     -2248.2593     -271.70247      46576.52       35.979546      35.979546      35.979546      1.337646       231.22305     -401.10422      714.51609    
    988000   988000         299.23378      682.62906      124.82252     -335.4088       3227.9998     -3563.4086      1269.6781      2044.936      -2056.2414      16.489806     -990.38255     -1599.3446     -2248.5439     -273.74432      46229.108      35.889866      35.889866      35.889866      1.3476985      830.63504     -628.47266      1845.7248    
    989000   989000         299.72105      519.12441     -9.1389986     -358.85922      3233.2563     -3592.1155      1271.425       1973.2337     -2059.2581      14.593579     -934.88263     -1608.0588     -2249.1684     -273.96004      46192.706      35.880443      35.880443      35.880443      1.3487605     -483.74796     -144.13268      2185.2539    
    990000   990000         296.28392     -701.52637     -884.02942     -405.85212      3196.178      -3602.0302      1270.2665      1961.5306     -2042.4086      15.479681     -952.20266     -1607.02       -2247.6757     -270.7644       46737.886      36.021049      36.021049      36.021049      1.3330277      474.16266     -427.66958     -2151.0722    
    991000   991000         301.37071     -714.02872     -861.45054     -376.31601      3251.052      -3627.368       1257.9686      1977.975      -2059.7165      15.041127     -972.19609     -1600.661      -2245.7792     -271.63768      46587.63       35.982407      35.982407      35.982407      1.337327      -1508.2797     -111.38414     -522.4223     
    992000   992000         308.83983     -70.409211     -267.38302     -219.31071      3331.6256     -3550.9363      1301.1328      1972.2946     -2075.9728      15.74537      -908.74053     -1607.7781     -2247.6176     -270.31551      46815.5        36.040977      36.040977      36.040977      1.3308178      726.79836     -2024.2492      1086.2232    
    993000   993000         301.06953     -1162.0689     -1139.3116     -354.66559      3247.8031     -3602.4687      1310.1501      1969.5412     -2075.5755      15.316164     -969.3084      -1606.4761     -2246.1162     -273.3346       46298.403      35.90779       35.90779       35.90779       1.3456814     -1568.1782     -1223.6812     -694.34744    
    994000   994000         294.10387      507.43065      12.043176     -334.96816      3172.6607     -3507.6288      1316.8522      2013.0947     -2051.5026      16.247861     -950.01235     -1602.6724     -2249.6361     -269.87928      46891.172      36.060385      36.060385      36.060385      1.3286701     -989.04381      2451.4123      59.923459    
    995000   995000         299.56506     -882.71724     -1054.2248     -454.27763      3231.5736     -3685.8512      1255.9258      1936.6142     -2070.6363      15.695794     -984.89775     -1593.425      -2245.1279     -271.54707      46603.175      35.986408      35.986408      35.986408      1.336881      -445.05615     -2094.6145     -108.4811     
    996000   996000         301.94533      52.015331     -357.0959      -392.65582      3257.2508     -3649.9066      1231.1664      1944.8102     -2045.4982      14.953192     -947.34313     -1601.2251     -2246.7699     -269.96483      46876.313      36.056576      36.056576      36.056576      1.3290913      632.85633     -691.32654      214.5162     
    997000   997000         303.90473      95.649685     -246.54689     -310.96773      3278.388      -3589.3557      1274.0888      1954.692      -2047.2507      15.337911     -928.50248     -1607.3162     -2250.405      -274.0272       46181.385      35.877512      35.877512      35.877512      1.3490911     -363.60934     -842.58651      1493.1449    
    998000   998000         304.2418      -200.19731     -487.00943     -350.2917       3282.0241     -3632.3158      1258.38        1961.6245     -2061.4961      15.476488     -955.74973     -1602.7033     -2247.8477     -270.25263      46826.392      36.043772      36.043772      36.043772      1.3305082     -1059.6663     -442.42511      901.49947    
    999000   999000         302.34329      1021.8158      282.24495     -410.99849      3261.5439     -3672.5424      1222.3224      1962.3238     -2069.8312      16.031636     -935.3457      -1615.0415     -2253.0018     -272.0341       46519.74       35.96492       35.96492       35.96492       1.3392787      1439.4241      1573.6883      52.334923    
   1000000   1000000        294.20913      287.12226     -294.07172     -488.92259      3173.7962     -3662.7188      1266.048       1937.6105     -2063.5203      15.518509     -952.91524     -1615.0114     -2250.4488     -271.9575       46532.844      35.968296      35.968296      35.968296      1.3389016     -1570.1433      184.81458      2246.6955    
Loop time of 14557 on 1 procs for 1000000 steps with 3620 atoms

Performance: 5.935 ns/day, 4.044 hours/ns, 68.696 timesteps/s, 248.678 katom-step/s
99.9% CPU use with 1 MPI tasks x 1 OpenMP threads

MPI task timing breakdown:
Section |  min time  |  avg time  |  max time  |%varavg| %total
---------------------------------------------------------------
Pair    | 525.9      | 525.9      | 525.9      |   0.0 |  3.61
Bond    | 6628.4     | 6628.4     | 6628.4     |   0.0 | 45.53
Kspace  | 3094.8     | 3094.8     | 3094.8     |   0.0 | 21.26
Neigh   | 1840.8     | 1840.8     | 1840.8     |   0.0 | 12.65
Comm    | 125.35     | 125.35     | 125.35     |   0.0 |  0.86
Output  | 9.9745     | 9.9745     | 9.9745     |   0.0 |  0.07
Modify  | 2282.3     | 2282.3     | 2282.3     |   0.0 | 15.68
Other   |            | 49.47      |            |       |  0.34

Nlocal:           3620 ave        3620 max        3620 min
Histogram: 1 0 0 0 0 0 0 0 0 0
Nghost:          12409 ave       12409 max       12409 min
Histogram: 1 0 0 0 0 0 0 0 0 0
Neighs:              0 ave           0 max           0 min
Histogram: 1 0 0 0 0 0 0 0 0 0
FullNghs:   1.7855e+06 ave  1.7855e+06 max  1.7855e+06 min
Histogram: 1 0 0 0 0 0 0 0 0 0

Total # of neighbors = 1785504
Ave neighs/atom = 493.23315
Ave special neighs/atom = 5.9723757
Neighbor list builds = 31658
Dangerous builds = 0

# --- Cleanup ---
unfix npt_fix

undump dump_npt

# --- Write Output ---
write_dump all custom npt_cool300_last.dump id type mol x y z xu yu zu vx vy vz modify sort id
write_data /home/arz2/PolyJarvis/data/PVC1/lammps/equil/npt_cool300/npt_cool300_out.data
System init for write_data ...
PPPM initialization ...
  using 12-bit tables for long-range coulomb
  G vector (1/distance) = 0.29520588
  grid = 24 24 24
  stencil order = 5
  estimated absolute RMS force accuracy = 0.00037952742
  estimated relative force accuracy = 1.1429355e-06
  using double precision KISS FFT
  3d grid and FFT values/proc = 29791 13824
Generated 6 of 6 mixed pair_coeff terms from sixthpower/sixthpower mixing rule

print "STAGE COMPLETE: NPT T=530.0->300.0K P=1.0->1.0atm steps=1000000"
STAGE COMPLETE: NPT T=530.0->300.0K P=1.0->1.0atm steps=1000000
quit
.1429355e-06
  using double precision KISS FFT
  3d grid and FFT values/proc = 29791 13824


---------------------------------------------------------------------
    Device Time Info (average) for kspace: 
---------------------------------------------------------------------
Data Out:        42.4380 s.
Data In:         233.2859 s.
Kernel (map):    12.7583 s.
Kernel (rho):    238.1803 s.
Force interp:    35.4631 s.
Total rho:       293.3766 s.
Total interp:    268.7490 s.
Force copy:      16.0365 s.
Total:           578.1622 s.
CPU Poisson:     3034.3410 s.
CPU Data Cast:   11.7516 s.
CPU Idle Time:   8.1654 s.
Max Mem / Proc:  8.69 MB.
---------------------------------------------------------------------


--------------------------------------------------------------------------
- Using acceleration for pppm:
-  with 1 proc(s) per device.
-  with 1 thread(s) per proc.
-  Horizontal vector operations: ENABLED
-  Shared memory system: No
--------------------------------------------------------------------------
Device 0: Quadro RTX 6000, 72 CUs, 23/24 GB, 1.8 GHZ (Mixed Precision)
--------------------------------------------------------------------------

Initializing Device and compiling on process 0...Done.
Initializing Device 0 on core 0...Done.



---------------------------------------------------------------------
      Device Time Info (average): 
---------------------------------------------------------------------
Data Transfer:   21.1993 s.
Neighbor copy:   126.9443 s.
Neighbor unpack: 0.0000 s.
Force calc:      241.7741 s.
Device Overhead: 19.0592 s.
CPU Cast/Pack:   26.2459 s.
CPU Driver_Time: 14.1183 s.
CPU Idle_Time:   5.4548 s.
Average split:   1.0000.
Max Mem / Proc:  10.04 MB.
Prefetch mode:   None.
Vector width:    32.
Lanes / atom:    8.
Pair block:      256.
Neigh block:     128.
Neigh mode:      Host.
---------------------------------------------------------------------


--------------------------------------------------------------------------
- Using acceleration for lj/class2/coul/long:
-  with 1 proc(s) per device.
-  with 1 thread(s) per proc.
-  Horizontal vector operations: ENABLED
-  Shared memory system: No
--------------------------------------------------------------------------
Device 0: Quadro RTX 6000, 72 CUs, 23/24 GB, 1.8 GHZ (Mixed Precision)
--------------------------------------------------------------------------

Initializing Device and compiling on process 0...Done.
Initializing Device 0 on core 0...Done.

Generated 6 of 6 mixed pair_coeff terms from sixthpower/sixthpower mixing rule
STAGE COMPLETE: NPT T=530.0->300.0K P=1.0->1.0atm steps=1000000
Cuda driver error 4 in call at file '/home/arz2/lammps/lib/gpu/geryon/nvd_timer.h' in line 98.
Cuda driver error 4 in call at file '/home/arz2/lammps/lib/gpu/geryon/nvd_timer.h' in line 99.
Cuda driver error 4 in call at file '/home/arz2/lammps/lib/gpu/geryon/nvd_timer.h' in line 98.
Cuda driver error 4 in call at file '/home/arz2/lammps/lib/gpu/geryon/nvd_timer.h' in line 99.
Cuda driver error 4 in call at file '/home/arz2/lammps/lib/gpu/geryon/nvd_timer.h' in line 98.
Cuda driver error 4 in call at file '/home/arz2/lammps/lib/gpu/geryon/nvd_timer.h' in line 99.
Cuda driver error 4 in call at file '/home/arz2/lammps/lib/gpu/geryon/nvd_timer.h' in line 98.
Cuda driver error 4 in call at file '/home/arz2/lammps/lib/gpu/geryon/nvd_timer.h' in line 99.
Cuda driver error 4 in call at file '/home/arz2/lammps/lib/gpu/geryon/nvd_timer.h' in line 98.
Cuda driver error 4 in call at file '/home/arz2/lammps/lib/gpu/geryon/nvd_timer.h' in line 99.
Cuda driver error 4 in call at file '/home/arz2/lammps/lib/gpu/geryon/nvd_timer.h' in line 98.
Cuda driver error 4 in call at file '/home/arz2/lammps/lib/gpu/geryon/nvd_timer.h' in line 99.
Cuda driver error 4 in call at file '/home/arz2/lammps/lib/gpu/geryon/nvd_timer.h' in line 98.
Cuda driver error 4 in call at file '/home/arz2/lammps/lib/gpu/geryon/nvd_timer.h' in line 99.
Cuda driver error 4 in call at file '/home/arz2/lammps/lib/gpu/geryon/nvd_timer.h' in line 98.
Cuda driver error 4 in call at file '/home/arz2/lammps/lib/gpu/geryon/nvd_timer.h' in line 99.
Cuda driver error 4 in call at file '/home/arz2/lammps/lib/gpu/geryon/nvd_timer.h' in line 98.
Cuda driver error 4 in call at file '/home/arz2/lammps/lib/gpu/geryon/nvd_timer.h' in line 99.
Cuda driver error 4 in call at file '/home/arz2/lammps/lib/gpu/geryon/nvd_timer.h' in line 98.
Cuda driver error 4 in call at file '/home/arz2/lammps/lib/gpu/geryon/nvd_timer.h' in line 99.
