units real
atom_style full
boundary p p p

# --- Force Field Styles ---
pair_style lj/cut 14.0
dielectric 1.000000
bond_style harmonic
angle_style harmonic
dihedral_style multi/harmonic
improper_style none
special_bonds lj 0 0 0
pair_modify mix arithmetic tail yes
neighbor 2.0 bin
neigh_modify delay 0 every 1 check yes
neigh_modify one 4000
package gpu 1 neigh yes

read_data /home/alexzhao/PolyJarvis/data/PE4/lammps/equil/npt_pppm/npt_pppm_out.data
Reading data file ...
  orthogonal box = (0.61033077 0.61033077 0.61033077) to (55.168041 55.168041 55.168041)
  1 by 1 by 1 MPI processor grid
  reading atoms ...
  4840 atoms
  reading velocities ...
  4840 velocities
  scanning bonds ...
  2 = max bonds/atom
  scanning angles ...
  1 = max angles/atom
  scanning dihedrals ...
  2 = max dihedrals/atom
  orthogonal box = (0.61033077 0.61033077 0.61033077) to (55.168041 55.168041 55.168041)
  1 by 1 by 1 MPI processor grid
  reading bonds ...
  4820 bonds
  reading angles ...
  4800 angles
  reading dihedrals ...
  4780 dihedrals
Finding 1-2 1-3 1-4 neighbors ...
  special bond factors lj:    0        0        0       
  special bond factors coul:  0        0        0       
     2 = max # of 1-2 neighbors
     2 = max # of 1-3 neighbors
     4 = max # of 1-4 neighbors
     6 = max # of special neighbors
  special bonds CPU = 0.002 seconds
  read_data CPU = 0.085 seconds
include /home/alexzhao/PolyJarvis/data/PE4/lammps/equil/emc_build.params
# LAMMPS parameters created by EMC v9.4.4, build Jul 31 2025 20:33:44

# Variables

variable	seed		index	942725
variable	ntotal		index	4840
variable	fshape		index	1
variable	output		index	emc_build
variable	field		index	trappe/2014/trappe-ua
variable	location1	index	~/emc/field/
variable	nav		index	0.6022141179
variable	temperature	index	300
variable	radius		index	5
variable	nrelax		index	100
variable	weight_nonbond	index	0.0001
variable	weight_bond	index	0.0001
variable	weight_focus	index	1
variable	cutoff		index	14
variable	charge_cutoff	index	14
variable	kappa		index	4
variable	density1	index	0.65
variable	lprevious	index	0
variable	lphase		index	55.7783720511
variable	f_poly		index	20
variable	chem_repeat	index	*CC*
variable	chem_cap	index	*C
variable	lg_repeat	index	2
variable	lg_cap		index	1
variable	norm_poly	index	100
variable	l_poly		index	242
variable	mg_repeat	index	28.0536
variable	mg_cap		index	15.0347
variable	m_poly		index	3396.5014
variable	n_poly		index	20
variable	mtotal		index	67930.028
variable	nphase1		index	4840
variable	mphase1		index	67930.028
variable	vphase1		index	173539.165354
variable	lbox		index	55.7783720511
variable	lphase1		index	55.7783720511
variable	lxx		index	55.7783720511
variable	lyy		index	55.7783720511
variable	lzz		index	55.7783720511
variable	lzy		index	0
variable	lzx		index	0
variable	lyx		index	0
variable	vtotal		index	173539.165354
variable	nl_poly		index	20

# Types

variable	type_c4h2	index	1
variable	type_c4h3	index	2

variable	type_bond_c4h2_c4h2 index	1
variable	type_bond_c4h2_c4h3 index	2

variable	type_angle_c4h2_c4h2_c4h2 index	1
variable	type_angle_c4h2_c4h2_c4h3 index	2

# Clusters

variable	n0_poly		index	1
variable	n1_poly		index	20
variable	nl_poly		index	20

# Flags

variable	flag_charged	index	0

# Masses

mass		1    14.02680  # c4h2
mass		2    15.03470  # c4h3

# Potentials

pair_modify	mix arithmetic tail yes
special_bonds	lj 0 0 0 coul 0 0 0.5
Finding 1-2 1-3 1-4 neighbors ...
  special bond factors lj:    0        0        0       
  special bond factors coul:  0        0        0.5     
     2 = max # of 1-2 neighbors
     2 = max # of 1-3 neighbors
     4 = max # of 1-4 neighbors
     6 = max # of special neighbors
  special bonds CPU = 0.002 seconds

# Pair Coeffs

pair_coeff	1 1    0.09141    3.95000  # c4h2,c4h2
pair_coeff	2 2    0.19475    3.75000  # c4h3,c4h3

# Bond Coeffs

bond_coeff	1  260.00013    1.54000  # c4h2,c4h2
bond_coeff	2  260.00013    1.54000  # c4h2,c4h3

# Angle Coeffs

angle_coeff	1   62.10020  114.00000  # c4h2,c4h2,c4h2
angle_coeff	2   62.10020  114.00000  # c4h2,c4h2,c4h3

# Dihedral Coeffs

dihedral_coeff	1    2.00702   -4.01203    0.27102    6.29006    0.00000  # c4h2,c4h2,c4h2,c4h2
dihedral_coeff	2    2.00702   -4.01203    0.27102    6.29006    0.00000  # c4h2,c4h2,c4h2,c4h3


# --- Thermo Output ---
thermo_style custom step time temp press enthalpy etotal ke pe ebond eangle edihed eimp evdwl ecoul elong etail vol lx ly lz density pxx pyy pzz
thermo_modify flush yes
thermo 1000

# --- Trajectory ---
dump dump_npt all custom 1000 npt_cool_melt.dump id type mol x y z ix iy iz vx vy vz

# --- Restart Checkpointing ---
restart 10000 npt_1.rst npt_2.rst

# --- Initial Velocities (optional) ---
# Velocities read from data file

# --- SHAKE Constraints ---
# SHAKE disabled (TraPPE-UA united-atom)

# --- NPT Thermostat + Barostat (Nose-Hoover) ---
# T_damp = 100.0 fs  (heat bath coupling)
# P_damp = 1000.0 fs  (pressure bath coupling, ~10x T_damp typical)
# Ramp: T=620.0->550.0K  P=1.0->1.0atm
timestep 2.0
fix npt_fix all npt temp 620.0 550.0 100.0 iso 1.0 1.0 1000.0

run 500000

CITE-CITE-CITE-CITE-CITE-CITE-CITE-CITE-CITE-CITE-CITE-CITE-CITE

Your simulation uses code contributions which should be cited:

- GPU package (short-range, long-range and three-body potentials): doi:10.1016/j.cpc.2010.12.021, doi:10.1016/j.cpc.2011.10.012, doi:10.1016/j.cpc.2013.08.002, doi:10.1016/j.commatsci.2014.10.068, doi:10.1016/j.cpc.2016.10.020, doi:10.3233/APC200086

@Article{Brown11,
 author = {W. M. Brown and P. Wang and S. J. Plimpton and A. N. Tharrington},
 title = {Implementing Molecular Dynamics on Hybrid High Performance Computers---Short Range Forces},
 journal = {Comput.\ Phys.\ Commun.},
 year =    2011,
 volume =  182,
 pages =   {898--911},
 doi =     {10.1016/j.cpc.2010.12.021}
}

@Article{Brown12,
 author = {W. M. Brown and A. Kohlmeyer and S. J. Plimpton and A. N. Tharrington},
 title = {Implementing Molecular Dynamics on Hybrid High Performance Computers - Particle-Particle Particle-Mesh},
 journal = {Comput.\ Phys.\ Commun.},
 year =    2012,
 volume =  183,
 doi =     {10.1016/j.cpc.2011.10.012},
 pages =   {449--459}
}

@Article{Brown13,
 author = {W. M. Brown and Y. Masako},
 title = {Implementing Molecular Dynamics on Hybrid High Performance Computers---Three-Body Potentials},
 journal = {Comput.\ Phys.\ Commun.},
 year =    2013,
 volume =  184,
 pages =   {2785--2793},
 doi =     {10.1016/j.cpc.2013.08.002},
}

@Article{Trung15,
 author = {T. D. Nguyen and S. J. Plimpton},
 title = {Accelerating Dissipative Particle Dynamics Simulations for Soft Matter Systems},
 journal = {Comput.\ Mater.\ Sci.},
 year =    2015,
 doi =     {10.1016/j.commatsci.2014.10.068},
 volume =  100,
 pages =   {173--180}
}

@Article{Trung17,
 author = {T. D. Nguyen},
 title = {{GPU}-Accelerated {T}ersoff Potentials for Massively Parallel
    Molecular Dynamics Simulations},
 journal = {Comput.\ Phys.\ Commun.},
 year =    2017,
 doi =     {10.1016/j.cpc.2016.10.020},
 volume =  212,
 pages =   {113--122}
}

@inproceedings{Nikolskiy19,
 author = {V. Nikolskiy and V. Stegailov},
 title = {{GPU} Acceleration of Four-Site Water Models in {LAMMPS}},
 booktitle = {Proceedings of the International Conference on Parallel
    Computing (ParCo 2019), Prague, Czech Republic},
 doi =     {10.3233/APC200086},
 year =    2019
}

CITE-CITE-CITE-CITE-CITE-CITE-CITE-CITE-CITE-CITE-CITE-CITE-CITE

Generated 1 of 1 mixed pair_coeff terms from arithmetic mixing rule
Per MPI rank memory allocation (min/avg/max) = 14.9 | 14.9 | 14.9 Mbytes
   Step          Time           Temp          Press         Enthalpy        TotEng         KinEng         PotEng         E_bond        E_angle        E_dihed        E_impro         E_vdwl         E_coul         E_long         E_tail         Volume           Lx             Ly             Lz          Density          Pxx            Pyy            Pzz      
         0   0              627.0851       211.08733      16357.945      15858.018      9045.1631      6812.8548      3016.5493      2971.2731      4981.2691      0             -4156.2368      0              0             -153.51946      162393.41      54.557711      54.557711      54.557711      0.69461226     118.11269     -511.66101      1026.8103    
      1000   2000           624.81127      30.956576      16097.612      16024.018      9012.3651      7011.6524      3103.9319      2963.5618      4974.8854      0             -4030.7268      0              0             -152.93741      163011.45      54.626835      54.626835      54.626835      0.69197873     586.17993     -587.69019      94.379986    
      2000   4000           619.39017     -128.23346      15548.736      15854.243      8934.1704      6920.0727      3075.518       2908.7624      5023.7863      0             -4087.9939      0              0             -152.61146      163359.62      54.665699      54.665699      54.665699      0.6905039     -381.95054     -450.63108      447.88125    
      3000   6000           617.02594      540.18448      17217.694      15929.861      8900.0684      7029.7921      3091.8558      2987.292       5000.4783      0             -4049.8339      0              0             -152.50709      163471.42      54.678166      54.678166      54.678166      0.69003168     194.61644      947.39689      478.54011    
      4000   8000           625.18769     -153.42364      15640.154      16015.259      9017.7946      6997.464       3055.4923      2923.113       4992.9893      0             -3974.1306      0              0             -148.71269      167642.38      55.139303      55.139303      55.139303      0.67286359     238.18172     -447.53922     -250.91343    
      5000   10000          608.20224      591.48123      17372.986      15905.56       8772.7941      7132.7655      3048.4175      2917.497       5033.1056      0             -3866.2546      0              0             -146.55226      170113.72      55.408932      55.408932      55.408932      0.66308852     31.939733      895.80839      846.69557    
      6000   12000          613.06483      315.76766      16574.206      15797.895      8842.9328      6954.9622      2896.9071      2923.0987      5056.1865      0             -3921.2302      0              0             -147.8902       168574.73      55.241334      55.241334      55.241334      0.66914215     658.47599     -92.752901      381.57989    
      7000   14000          626.75308     -574.42916      14603.437      16008.82       9040.3741      6968.4455      2977.0177      2979.0819      4935.9859      0             -3923.64        0              0             -148.61058      167757.57      55.151929      55.151929      55.151929      0.6724016     -571.55363     -176.32971     -975.40415    
      8000   16000          622.21247     -91.739486      15825.312      16050.031      8974.8797      7075.1514      3069.4266      2997.633       4934.9232      0             -3926.8313      0              0             -148.43112      167960.4       55.174147      55.174147      55.174147      0.6715896     -278.4682       78.386035     -75.136297    
      9000   18000          609.34935     -56.744792      15670.663      15809.592      8789.3402      7020.2514      3003.9149      2965.0352      4988.2104      0             -3936.9092      0              0             -148.50508      167876.75      55.164986      55.164986      55.164986      0.67192424     539.56725      705.83791     -1415.6395    
     10000   20000          616.83575     -521.27472      14586.011      15838.571      8897.3251      6941.2464      3007.0956      2909.4288      5035.7567      0             -4011.0347      0              0             -151.31277      164761.7       54.821648      54.821648      54.821648      0.6846279     -258.80301     -908.12553     -396.89563    
     11000   22000          616.38529      150.38241      16498.947      16126.307      8890.8276      7235.4794      2984.1778      2961.3716      5182.5772      0             -3892.6472      0              0             -146.72891      169908.92      55.386687      55.386687      55.386687      0.66388779    -172.34727      923.07862     -299.58413    
     12000   24000          626.47583      309.43531      16798.416      16044.193      9036.3749      7007.8181      2985.0587      2945.0369      5027.974       0             -3950.2515      0              0             -149.16876      167129.83      55.083052      55.083052      55.083052      0.67492711     406.82697     -1.956406       523.43535    
     13000   26000          618.56652      443.30509      16935.766      15875.58       8922.29        6953.2902      2935.4681      3030.3679      5034.1516      0             -4046.6974      0              0             -152.02973      163984.69      54.735334      54.735334      54.735334      0.68787185     310.07085      443.28995      576.55445    
     14000   28000          631.93889      512.49921      17537.801      16285.429      9115.175       7170.2543      3035.9366      2909.1371      5124.7522      0             -3899.5716      0              0             -148.7879       167557.64      55.130011      55.130011      55.130011      0.67320389     91.881352      137.18629      1308.43      
     15000   30000          621.01162      80.217915      15895.794      15703.583      8957.5584      6746.0244      2911.3345      2887.2639      4961.5446      0             -4014.1186      0              0             -151.74007      164297.74      54.770141      54.770141      54.770141      0.68656122     327.57805      177.66761     -264.59192    
     16000   32000          619.17439     -251.26106      15234.291      15842.357      8931.058       6911.2993      3027.1321      2867.6521      5047.3435      0             -4030.8284      0              0             -150.23882      165939.47      54.951965      54.951965      54.951965      0.6797687     -1353.6096      409.90335      189.92303    
     17000   34000          625.71589      181.93141      16317.312      15880.006      9025.4135      6854.5924      3020.709       3030.4284      4852.294       0             -4048.839       0              0             -151.26196      164817.05      54.827787      54.827787      54.827787      0.68439797     306.25684      32.125053      207.41235    
     18000   36000          626.77304      315.66787      16571.763      15827.837      9040.6619      6787.1746      3008.4684      2893.9775      4980.7955      0             -4096.0668      0              0             -154.27953      161593.37      54.467968      54.467968      54.467968      0.69805127     462.49892      305.58916      178.91555    
     19000   38000          629.78025     -112.05162      15784.009      16051.787      9084.0384      6967.7488      3075.9217      2863.8776      5055.2027      0             -4027.2533      0              0             -152.14227      163863.4       54.721835      54.721835      54.721835      0.68838102     90.492025     -67.902533     -358.74434    
     20000   40000          608.61413     -131.76784      15526.723      15846.158      8778.7353      7067.4229      3102.5433      2994.739       4926.1823      0             -3956.0418      0              0             -149.98063      166225.13      54.983481      54.983481      54.983481      0.67860049     497.32039     -684.6968      -207.92711    
     21000   42000          614.50391     -56.275958      15807.618      15944.182      8863.6903      7080.4913      3038.6101      2921.1353      5102.267       0             -3981.5211      0              0             -149.82864      166393.75      55.002066      55.002066      55.002066      0.67791283    -317.32524     -521.30859      669.80596    
     22000   44000          616.79679      436.49714      16945.47       15889.559      8896.7632      6992.7963      3029.0553      2871.6553      4994.9568      0             -3902.8712      0              0             -150.30106      165870.75      54.944379      54.944379      54.944379      0.68005033     562.07439      456.3153       291.10173    
     23000   46000          616.84739      638.13876      17374.936      15844.467      8897.493       6946.9736      2992.2733      2978.271       5008.4222      0             -4031.9929      0              0             -151.59961      164449.96      54.787051      54.787051      54.787051      0.68592572     959.73085      874.74245      79.942987    
     24000   48000          614.73497      131.28138      16160.854      15839.844      8867.0232      6972.8211      2938.1261      2999.9938      5014.447       0             -3979.7458      0              0             -148.69374      167663.74      55.141645      55.141645      55.141645      0.67277787     273.58404     -64.522956      184.78307    
     25000   50000          612.1924      -135.74558      15384.975      15704.427      8830.3488      6874.0782      2895.0953      3013.1223      5078.2669      0             -4112.4063      0              0             -154.49998      161362.81      54.442051      54.442051      54.442051      0.69904868     222.89877     -389.1401      -240.99543    
     26000   52000          624.53514     -56.546836      15781.594      15917.063      9008.3822      6908.681       2880.7916      2888.662       5184.0112      0             -4044.7837      0              0             -151.76642      164269.2       54.76697       54.76697       54.76697       0.68668048     317.02587     -793.65634      306.98996    
     27000   54000          626.236        269.4056       16741.869      16087.958      9032.9156      7055.0427      3000.8726      2978.8471      5036.7357      0             -3961.4128      0              0             -149.79454      166431.63      55.00624       55.00624       55.00624       0.67775851     484.44685      510.4034      -186.63345    
     28000   56000          623.17623      109.61652      16414.157      16148.46       8988.7811      7159.6786      3049.9469      2950.1088      5144.9167      0             -3985.2938      0              0             -150.002        166201.45      54.98087       54.98087       54.98087       0.67869717     464.61297      308.45874     -444.22216    
     29000   58000          613.63194      359.91705      16572.704      15705.189      8851.1129      6854.0758      3009.994       2859.7969      4995.1293      0             -4010.8445      0              0             -150.84565      165271.92      54.878179      54.878179      54.878179      0.68251434     472.70891      59.294789      547.74746    
     30000   60000          615.00376      405.06135      16758.262      15775.424      8870.9003      6904.5242      2817.4977      3036.0753      5012.6372      0             -3961.686       0              0             -149.84659      166373.82      54.99987       54.99987       54.99987       0.67799402     444.46461      240.80635      529.9131     
     31000   62000          603.31334     -515.2097       14390.483      15626.788      8702.276       6924.5124      3037.4698      2890.8382      4971.5135      0             -3975.3091      0              0             -151.5186       164537.88      54.796813      54.796813      54.796813      0.68555919     195.62533     -706.37376     -1034.8807    
     32000   64000          624.73601      114.68403      16248.165      15971.496      9011.2796      6960.2167      2930.1743      2926.2         5087.0737      0             -3983.2313      0              0             -150.71289      165417.5       54.894287      54.894287      54.894287      0.68191369    -253.92954      172.99185      424.98979    
     33000   66000          621.61328     -15.753638      15921.035      15959.685      8966.2369      6993.4484      3013.0882      2909.7715      4951.1952      0             -3880.6065      0              0             -148.19699      168225.75      55.203187      55.203187      55.203187      0.67053027    -210.35707     -364.71407      527.81023    
     34000   68000          616.26639      77.903084      16103.955      15914.807      8889.1126      7025.6944      3009.9294      2956.3556      5005.0003      0             -3945.5908      0              0             -149.74758      166483.82      55.011988      55.011988      55.011988      0.67754606     492.32881     -256.71806     -1.9014941    
     35000   70000          611.77926     -594.44206      14351.265      15798.81       8824.3896      6974.4202      2939.28        2859.6645      5137.3239      0             -3961.8482      0              0             -149.30878      166973.1       55.065827      55.065827      55.065827      0.67556067    -425.30258     -1026.7944     -331.22919    
     36000   72000          599.25043      178.1566       15986.205      15555.478      8643.672       6911.806       2975.5302      2863.1339      5056.9999      0             -3983.8579      0              0             -150.38617      165776.87      54.934012      54.934012      54.934012      0.68043541     443.97988     -525.54388      616.03381    
     37000   74000          618.3781       161.61873      16165.524      15771.805      8919.5721      6852.2332      2915.163       2911.5601      4973.3069      0             -3947.7968      0              0             -149.24982      167039.05      55.073077      55.073077      55.073077      0.67529391    -133.41285      776.69328     -158.42426    
     38000   76000          621.78859      200.40929      16239.733      15755.166      8968.7656      6786.4001      2900.0832      2931.9625      4984.0628      0             -4029.7084      0              0             -150.37357      165790.77      54.935546      54.935546      54.935546      0.6803784     -536.33443      334.38327      803.17903    
     39000   78000          622.60884      287.55063      16588.311      15895.735      8980.597       6915.1379      2968.3997      2974.8358      4970.5076      0             -3998.6052      0              0             -150.95753      165149.43      54.864618      54.864618      54.864618      0.68302057     263.26972      343.59499      255.78717    
     40000   80000          615.74722     -273.84636      15184.629      15845.981      8881.624       6964.3567      3023.0036      2960.8395      4962.1091      0             -3981.5955      0              0             -150.55056      165595.85      54.914009      54.914009      54.914009      0.68117922     266.77614     -305.9591      -782.35613    
     41000   82000          614.06703     -196.15631      15248.064      15724.396      8857.3887      6867.0077      2994.1906      2846.6081      4988.7821      0             -3962.5731      0              0             -149.72676      166506.97      55.014538      55.014538      55.014538      0.67745185    -109.4685      -205.33379     -273.66663    
     42000   84000          613.79033     -110.79746      15492.815      15761.43       8853.3976      6908.0325      2953.101       2979.2542      4958.6141      0             -3982.9368      0              0             -149.97097      166235.83      54.984661      54.984661      54.984661      0.6785568     -37.965777     -436.9547       142.5281     
     43000   86000          611.33027      521.91858      17024.591      15784.438      8817.9134      6966.5251      3047.8172      2940.0959      5036.6474      0             -4058.0353      0              0             -153.01552      162928.24      54.617539      54.617539      54.617539      0.69233211     176.39876      836.44083      552.91615    
     44000   88000          608.25877      373.0168       16606.685      15717.892      8773.6095      6944.2822      3043.6057      3011.1953      4992.6049      0             -4103.1236      0              0             -152.59328      163379.08      54.66787       54.66787       54.66787       0.69042164    -648.3735       890.87522      876.54868    
     45000   90000          608.95394      128.29046      15936.792      15631.08       8783.6368      6847.4432      2905.535       2987.4354      4981.9813      0             -4027.5085      0              0             -152.57699      163396.52      54.669814      54.669814      54.669814      0.69034798     180.86889      324.75214     -120.74966    
     46000   92000          626.67671      94.01849       16356.143      16129.596      9039.2725      7090.3232      3068.9947      2902.8124      5116.3394      0             -3997.8233      0              0             -150.89025      165223.07      54.872771      54.872771      54.872771      0.68271614     540.50198      273.98145     -532.42796    
     47000   94000          602.0622      -33.987004      15353.627      15434.885      8684.2294      6750.6556      2907.2128      2869.9654      5004.8018      0             -4031.3245      0              0             -152.07333      163937.68      54.730103      54.730103      54.730103      0.6880691     -318.44871      78.479598      138.00809    
     48000   96000          606.19525     -585.70325      14385.129      15804.339      8743.8451      7060.4938      3052.7088      2901.0084      5068.3308      0             -3961.5541      0              0             -150.05094      166147.24      54.974891      54.974891      54.974891      0.67891863    -457.80176     -522.87049     -776.43751    
     49000   98000          607.7911       335.3255       16731.596      15899.633      8766.8639      7132.7687      3093.301       2974.8793      4954.5182      0             -3889.9299      0              0             -146.5446       170122.6       55.409897      55.409897      55.409897      0.6630539      427.61001      302.24465      276.12183    
     50000   100000         607.21404     -270.73403      14878.189      15528.882      8758.5402      6770.3422      2923.8727      2844.037       5010.1697      0             -4007.7372      0              0             -151.2775       164800.12      54.825909      54.825909      54.825909      0.6844683      158.53081     -657.81658     -312.91631    
     51000   102000         606.51328     -644.72311      13947.81       15508.909      8748.4324      6760.4764      2959.1639      2843.0161      4985.7867      0             -4027.4903      0              0             -150.15872      166027.98      54.961735      54.961735      54.961735      0.67940629    -298.7655      -473.4454      -1161.9584    
     52000   104000         611.96282     -25.319172      16025.872      16088.266      8827.0373      7261.2286      3111.8894      3044.3972      4991.6651      0             -3886.7232      0              0             -147.54107      168973.62      55.284871      55.284871      55.284871      0.66756252    -3.2059377      6.6280957     -79.379675    
     53000   106000         612.91126      374.52181      16425.808      15531.276      8840.7177      6690.558       2932.775       2821.3168      4995.4364      0             -4058.9702      0              0             -152.22591      163773.37      54.711811      54.711811      54.711811      0.68875945     755.68721      260.43         107.44823    
     54000   108000         616.1117       746.97553      17577.389      15786.444      8886.8813      6899.5627      2985.0996      2879.2028      5039.4924      0             -4004.2321      0              0             -151.64631      164399.31      54.781426      54.781426      54.781426      0.68613703     517.58454      776.92737      946.41469    
     55000   110000         607.07388      17.14239       15593.869      15552.511      8756.5185      6795.9923      2967.1982      2998.8827      4860.1157      0             -4030.2043      0              0             -150.70292      165428.44      54.895497      54.895497      54.895497      0.68186858     684.87098     -500.89349     -132.55031    
     56000   112000         617.13645     -303.39435      15172.308      15899.059      8901.6625      6997.3961      3013.1095      2973.4915      5054.6454      0             -4043.8504      0              0             -151.78535      164248.72      54.764694      54.764694      54.764694      0.68676612     170.07002     -479.10678     -601.14628    
     57000   114000         620.2992      -97.268898      15561.066      15796.293      8947.2824      6849.0111      3076.0291      2846.4168      4923.7218      0             -3997.1566      0              0             -150.34667      165820.43      54.938823      54.938823      54.938823      0.68025667     468.67265     -633.34117     -127.13817    
     58000   116000         615.05376      732.73495      17572.919      15804.825      8871.6214      6933.2036      3089.1239      2959.7965      4884.0475      0             -3999.7643      0              0             -150.67778      165456.05      54.898551      54.898551      54.898551      0.6817548      456.13178      1401.6395      340.43359    
     59000   118000         612.58305      44.488549      15922.451      15815.512      8835.9835      6979.5281      3071.5888      2884.226       5047.5222      0             -4023.8089      0              0             -151.25758      164821.82      54.828316      54.828316      54.828316      0.68437816     110.42181     -342.60507      365.6489     
     60000   120000         613.70532      828.57907      17613.169      15609.543      8852.1713      6757.3719      2916.8265      2871.2665      4946.1858      0             -3976.9069      0              0             -150.35751      165808.48      54.937502      54.937502      54.937502      0.68030572     968.42967      773.91857      743.38896    
     61000   122000         614.85835      224.40127      16424.401      15880.862      8868.8028      7012.0595      2973.9661      2975.8185      5015.4813      0             -3953.2064      0              0             -150.10767      166084.45      54.967965      54.967965      54.967965      0.6791753      908.67684     -196.00575     -39.46727     
     62000   124000         608.19789     -113.73562      15476.56       15752.819      8772.7314      6980.0879      2928.7379      2970.5574      5019.0702      0             -3938.2776      0              0             -149.68821      166549.86      55.019261      55.019261      55.019261      0.6772774      15.053868     -216.66578     -139.59495    
     63000   126000         605.78675      165.57891      15923.793      15529.795      8737.9528      6791.8421      2977.5433      2838.0642      5025.5371      0             -4049.3024      0              0             -152.79838      163159.77      54.643398      54.643398      54.643398      0.69134967    -66.120386      575.49445     -12.637334    
     64000   128000         603.59774      25.831742      15508.611      15446.165      8706.3782      6739.7864      3023.3932      2857.0859      4906.7528      0             -4047.4455      0              0             -150.40283      165758.52      54.931984      54.931984      54.931984      0.68051077    -262.16099      607.80652     -268.1503     
     65000   130000         605.98815     -762.65851      13845.844      15682.862      8740.8578      6942.0045      3045.3885      2872.488       5006.1031      0             -3981.975       0              0             -150.94694      165161.02      54.865901      54.865901      54.865901      0.68297265    -482.62612     -1061.3643     -743.98512    
     66000   132000         611.384       -20.622278      15707.802      15757.254      8818.6882      6938.5654      3116.709       2929.6071      4928.4875      0             -4036.2382      0              0             -151.62106      164426.7       54.784467      54.784467      54.784467      0.68602276    -675.42291      408.74879      204.80728    
     67000   134000         620.20646      382.57446      16540.512      15625.287      8945.9447      6679.3423      2864.728       2952.9572      4923.0717      0             -4061.4146      0              0             -151.98336      164034.73      54.740901      54.740901      54.740901      0.68766202    -44.411645      1954.5291     -762.39406    
     68000   136000         610.25313      488.22112      16813.293      15649.578      8802.3765      6847.2011      3008.6239      2890.7866      5004.5625      0             -4056.7719      0              0             -152.53783      163438.47      54.674492      54.674492      54.674492      0.69017079    -14.243196      1047.0265      431.88006    
     69000   138000         610.85369      204.45719      16166.105      15672.727      8811.039       6861.6885      2945.82        2949.9921      5007.207       0             -4041.3306      0              0             -150.67152      165462.92      54.899311      54.899311      54.899311      0.68172648     594.1054       381.34703     -362.08086    
     70000   140000         594.44972     -169.59822      14936.667      15341.928      8574.4259      6767.5018      3005.8679      2871.1217      4975.9936      0             -4085.4814      0              0             -152.15772      163846.76      54.719983      54.719983      54.719983      0.68845095     23.298332     -718.95153      186.85853    
     71000   142000         613.94691      396.52517      16738.919      15793.963      8855.6561      6938.3068      2916.1329      2995.737       5042.6126      0             -4016.1756      0              0             -152.56921      163404.85      54.670744      54.670744      54.670744      0.69031275     249.14516      801.53994      138.89042    
     72000   144000         614.94464     -50.133835      15680.688      15802.016      8870.0474      6931.969       3092.0575      2911.0668      4993.5599      0             -4064.7152      0              0             -150.23655      165941.98      54.952243      54.952243      54.952243      0.67975841    -90.371472      198.3674      -258.39744    
     73000   146000         599.05146     -386.31095      14449.163      15374.198      8640.802       6733.3964      2972.911       2986.7692      4839.4331      0             -4065.7167      0              0             -151.84005      164189.55      54.758117      54.758117      54.758117      0.68701361    -127.29892     -439.05805     -592.57587    
     74000   148000         601.79409     -177.859        14964.291      15386.885      8680.3621      6706.5228      2993.2127      2789.7895      5000.0157      0             -4076.4951      0              0             -153.02412      162919.09      54.616516      54.616516      54.616516      0.69237103     228.08047      101.92022     -863.5777     
     75000   150000         596.35584     -734.74108      13801.366      15569.226      8601.9201      6967.306       3016.7734      2955.4956      4995.7956      0             -4000.7586      0              0             -151.11031      164982.45      54.846121      54.846121      54.846121      0.68371183    -1558.3681     -53.994297     -591.8608     
     76000   152000         613.82519     -1.6060501      15555.777      15559.64       8853.9004      6705.7397      2874.9028      2934.3262      4955.5497      0             -4059.039       0              0             -151.16938      164917.99      54.838977      54.838977      54.838977      0.68397908     432.2808       5.9734444     -443.0724     
     77000   154000         598.85114     -49.349699      15259.556      15378.406      8637.9126      6740.4935      2978.3378      2834.8897      4970.2709      0             -4043.0049      0              0             -150.97007      165135.71      54.863098      54.863098      54.863098      0.68307732     370.78996     -678.98828      160.14922    
     78000   156000         612.79848      246.66646      16279.03       15687.397      8839.091       6848.306       2955.1901      2936.2433      4986.9633      0             -4030.0907      0              0             -151.58815      164462.39      54.788431      54.788431      54.788431      0.68587388     679.87083      141.26709     -81.138549    
     79000   158000         606.2143      -458.80293      14426.764      15529.292      8744.1199      6785.1717      2932.3226      2871.6129      5019.9443      0             -4038.7081      0              0             -151.30187      164773.57      54.822965      54.822965      54.822965      0.68457856    -348.42043     -455.12116     -572.86718    
     80000   160000         596.54869     -231.27171      14686.117      15240.868      8604.7017      6636.1664      2875.6697      2802.3693      4967.9812      0             -4009.8538      0              0             -151.57664      164474.88      54.789818      54.789818      54.789818      0.68582178    -1306.356       428.50525      184.0356     
     81000   162000         616.54295      268.5717       16414.282      15763.384      8893.1017      6870.2826      2910.1829      2894.995       5055.1079      0             -3990.0031      0              0             -150.02208      166179.21      54.978417      54.978417      54.978417      0.67878802     139.28625      34.927504      631.50134    
     82000   164000         608.50062     -112.36445      15535.321      15810.113      8777.0981      7033.0152      3007.0823      2955.9906      5049.7474      0             -3979.8051      0              0             -148.67326      167686.85      55.144178      55.144178      55.144178      0.67268517    -265.64054     -0.28737211    -71.165447    
     83000   166000         615.27017      920.29339      17881.427      15660.738      8874.743       6785.995       2935.2973      2981.3964      4923.5424      0             -4054.2411      0              0             -150.6768       165457.12      54.89867       54.89867       54.89867       0.68175039     1015.0662      1339.8929      405.92104    
     84000   168000         606.70672      606.46662      17043.786      15577.342      8751.2226      6826.1197      2990.3988      2942.7666      4894.4707      0             -4001.5164      0              0             -150.36587      165799.26      54.936484      54.936484      54.936484      0.68034355     725.64083      236.13747      857.62157    
     85000   170000         610.89478      439.24461      16449.098      15395.378      8811.6317      6583.7464      2936.1365      2786.9819      4897.5982      0             -4036.9703      0              0             -151.56146      164491.35      54.791647      54.791647      54.791647      0.68575313     304.4813       820.45277      192.79977    
     86000   172000         602.71878     -307.04498      14619.782      15357.478      8693.7         6663.7782      2952.5285      2820.3079      4908.0746      0             -4017.1327      0              0             -151.33259      164740.12      54.819255      54.819255      54.819255      0.68471757     714.03201     -833.16283     -802.00413    
     87000   174000         601.30394     -247.2539       14891.792      15496.98       8673.2921      6823.6884      3017.1367      2924.8063      4845.7733      0             -3964.0279      0              0             -148.54583      167830.69      55.159941      55.159941      55.159941      0.67210864    -505.53599     -684.05162      447.82592    
     88000   176000         613.1375       279.87375      16266.342      15602.979      8843.981       6758.9984      2989.8905      2876.3948      4967.561       0             -4074.8479      0              0             -153.39772      162522.3       54.57214       54.57214       54.57214       0.69406141     429.66084      40.684454      369.27596    
     89000   178000         607.67962     -232.76548      14949.447      15505.679      8765.2559      6740.4233      2954.1619      2880.9312      4986.3041      0             -4080.974       0              0             -152.14944      163855.68      54.720976      54.720976      54.720976      0.68841345    -314.57373     -612.01201      228.2893     
     90000   180000         607.33978     -405.88167      14553.228      15517.675      8760.3539      6757.3214      3004.8497      2866.4194      4943.0703      0             -4057.0181      0              0             -153.01319      162930.72      54.617815      54.617815      54.617815      0.6923216     -484.31056     -429.49578     -303.83866    
     91000   182000         608.61814      59.284369      15724.371      15583.17       8778.7932      6804.3766      2928.7062      2921.7805      5031.0282      0             -4077.1383      0              0             -152.65432      163313.75      54.660582      54.660582      54.660582      0.69069785    -93.966003     -257.045        528.86411    
     92000   184000         610.78947     -240.83231      14983.475      15557.279      8810.1127      6747.1661      2909.6171      2935.1702      4936.3038      0             -4033.925       0              0             -152.60149      163370.29      54.666889      54.666889      54.666889      0.6904588     -303.73649      131.88211     -550.64255    
     93000   186000         599.46074     -192.49585      15079.171      15533.958      8646.7056      6887.2526      2976.7477      2881.4817      5128.9064      0             -4099.8832      0              0             -153.89377      161998.43      54.513442      54.513442      54.513442      0.69630585    -316.88242      345.77236     -606.3775     
     94000   188000         600.30598      260.45962      15958.803      15336.981      8658.8973      6678.0841      2989.4731      2736.4527      5024.5424      0             -4072.3842      0              0             -152.29389      163700.26      54.70367       54.70367       54.70367       0.68906703     814.20616      151.25888     -184.08617    
     95000   190000         609.31133     -341.98333      14770.11       15588.274      8788.7918      6799.4822      2988.4985      2932.3186      4948.9404      0             -4070.2754      0              0             -151.97501      164043.75      54.741903      54.741903      54.741903      0.68762424     39.173259     -118.18844     -946.93482    
     96000   192000         601.11295      306.5506       16191.565      15461.832      8670.5373      6791.2947      2971.5494      2858.6615      5031.1056      0             -4070.0218      0              0             -152.73766      163224.64      54.650638      54.650638      54.650638      0.69107493     116.7587       905.85253     -102.95943    
     97000   194000         604.16618     -104.95784      15173.624      15427.435      8714.5775      6712.8577      2992.9869      2844.0601      4917.4826      0             -4041.672       0              0             -150.35291      165813.55      54.938062      54.938062      54.938062      0.68028492    -397.15134     -247.10245      329.38028    
     98000   196000         600.79366      42.132689      15658.186      15557.697      8665.9318      6891.7655      2984.015       3013.8394      4970.4835      0             -4076.5723      0              0             -152.44452      163538.5       54.685645      54.685645      54.685645      0.68974861     178.19563      227.99979     -279.79735    
     99000   198000         603.19852      855.05833      17612.819      15571.934      8700.6198      6871.3143      2886.9727      2933.8316      5084.5466      0             -4034.0366      0              0             -152.32981      163661.66      54.69937       54.69937       54.69937       0.68922955     991.6538       1237.2901      336.23104    
    100000   200000         596.76335      126.55448      15636.206      15330.318      8607.798       6722.5202      2888.7562      2840.9557      4988.9329      0             -3996.1247      0              0             -150.42601      165732.97      54.929162      54.929162      54.929162      0.68061566    -122.45883      146.06187      356.06039    
    101000   202000         597.59987     -2.322697       15486.403      15491.904      8619.864       6872.0402      3012.0951      2941.9542      4965.3788      0             -4047.3878      0              0             -153.51587      162397.21      54.558136      54.558136      54.558136      0.69459601    -649.42934      530.72661      111.73464    
    102000   204000         615.40416     -590.78865      14369.004      15780.107      8876.6756      6903.4313      3000.5844      2917.4949      5028.53        0             -4043.178       0              0             -152.22334      163776.13      54.712119      54.712119      54.712119      0.68874783     188.93014     -820.66253     -1140.6336    
    103000   206000         605.16192     -357.66987      14665.28       15537.931      8728.9402      6808.9911      2996.1948      2923.6861      4851.4543      0             -3962.3441      0              0             -149.0216       167294.87      55.101177      55.101177      55.101177      0.67426131    -983.01037      704.98119     -794.98042    
    104000   208000         601.06027     -459.49189      14218.914      15346.116      8669.7774      6676.3382      2959.797       2814.7533      4906.2779      0             -4004.4899      0              0             -148.21227      168208.41      55.201291      55.201291      55.201291      0.6705994     -273.15486     -234.8863      -870.4345     
    105000   210000         595.03521     -285.57336      14546.834      15222.399      8582.8711      6639.5281      2931.3011      2957.7198      4904.014       0             -4153.5068      0              0             -153.69441      162208.57      54.537002      54.537002      54.537002      0.6954038      378.86197     -282.82075     -952.7613     
    106000   212000         596.55806     -330.45269      14476.336      15272.841      8604.8368      6668.0038      2977.6848      2852.8707      4879.8912      0             -4042.4429      0              0             -150.84427      165273.42      54.878345      54.878345      54.878345      0.68250813    -1251.1361      254.8444       4.9336233    
    107000   214000         619.57798      359.47665      16571.727      15698.142      8936.8794      6761.2622      2985.1672      2848.2891      4894.0189      0             -3966.2131      0              0             -149.61429      166632.14      55.02832       55.02832       55.02832       0.67694297    -14.658983      815.56802      277.52091    
    108000   216000         602.51287     -14.829017      15445.231      15480.952      8690.7299      6790.2217      3058.681       2846.8172      4868.6433      0             -3983.9199      0              0             -150.93786      165170.94      54.867         54.867         54.867         0.68293159    -44.291922      276.96834     -277.16347    
    109000   218000         617.46244     -308.80925      15246.192      15995.717      8906.3645      7089.3526      3021.7865      2948.9698      5106.1761      0             -3987.5798      0              0             -149.80002      166425.54      55.005569      55.005569      55.005569      0.67778332    -282.84887     -490.03936     -153.53951    
    110000   220000         588.9874      -749.97589      13416.942      15208.829      8495.6367      6713.192       2947.6877      2830.1135      4980.7606      0             -4045.3698      0              0             -152.17541      163827.72      54.717863      54.717863      54.717863      0.68853096    -414.82573     -1395.8413     -439.26063    
    111000   222000         593.75995     -519.50109      13989.853      15229.266      8564.4765      6664.7895      2820.1946      2935.7641      4970.6976      0             -4061.8668      0              0             -152.39765      163588.8       54.691251      54.691251      54.691251      0.68953654    -1617.7097      8.1884157      51.018044    
    112000   224000         603.08171      365.77591      16244.367      15380.556      8698.9349      6681.6213      2944.4656      2768.9079      5012.6943      0             -4044.4465      0              0             -153.95878      161930.02      54.505767      54.505767      54.505767      0.69660001     702.14307      66.817602      328.36706    
    113000   226000         597.42323      251.43826      15915.768      15318.427      8617.3163      6701.1106      3006.2799      2839.4423      4970.5075      0             -4115.1191      0              0             -153.04402      162897.9       54.614148      54.614148      54.614148      0.69246107     411.61676      419.16964     -76.471614    
    114000   228000         593.60245     -287.78265      14617.525      15281.661      8562.2048      6719.4566      2999.4335      2940.6756      4978.1291      0             -4198.7815      0              0             -157.54885      158240.12      54.088574      54.088574      54.088574      0.7128436     -117.29942     -323.50705     -422.54148    
    115000   230000         606.98641      662.40183      16925.225      15395.001      8755.2568      6639.7447      3024.6356      2919.9878      4889.4245      0             -4194.3033      0              0             -157.38906      158400.78      54.106873      54.106873      54.106873      0.71212058     571.4205       906.75404      509.03097    
    116000   232000         619.16825     -260.94         14865.587      15475.823      8930.9695      6544.854       2982.1501      2865.0135      4835.5102      0             -4137.8198      0              0             -155.47119      160354.78      54.328449      54.328449      54.328449      0.70344303    -73.880007     -443.70849     -265.2315     
    117000   234000         606.69169      720.58185      17120.278      15422.767      8751.0058      6671.7608      2950.5659      2834.5816      4972.0522      0             -4085.439       0              0             -154.33992      161530.14      54.460864      54.460864      54.460864      0.6983245      516.36712      858.23621      787.14223    
    118000   236000         600.2897       146.9777       15759.744      15409.625      8658.6626      6750.9627      2985.2946      2966.372       4842.6701      0             -4043.3739      0              0             -152.63155      163338.11      54.6633        54.6633        54.6633        0.69059482    -421.54727      923.45018     -60.96983     
    119000   238000         603.86139      882.52769      17496.879      15405.858      8710.1811      6695.6772      2958.3292      2903.2999      4886.0753      0             -4052.0272      0              0             -153.45386      162462.83      54.565484      54.565484      54.565484      0.69431545     1355.3998      577.60346      714.57986    
    120000   240000         599.45153     -243.64294      14887.969      15468.104      8646.5728      6821.5315      2969.4789      3000.1561      4912.0594      0             -4060.163       0              0             -152.69753      163267.54      54.655426      54.655426      54.655426      0.69089335    -426.67301     -395.84413      91.58834     
    121000   242000         597.09993     -274.57904      14581.268      15236.36       8612.6529      6623.707       2881.4011      2844.5677      4980.3598      0             -4082.6217      0              0             -152.39567      163590.94      54.691489      54.691489      54.691489      0.68952754    -858.32038     -211.33382      245.91709    
    122000   244000         616.61838      29.243535      15798.105      15728.397      8894.1898      6834.2069      3039.6953      2881.274       4948.3234      0             -4035.0857      0              0             -152.53035      163446.49      54.675387      54.675387      54.675387      0.69013691    -69.435723      586.41983     -429.2535     
    123000   246000         613.89791     -170.56801      15290.632      15705.121      8854.9493      6850.172       3010.7765      2865.8652      4999.6732      0             -4026.1429      0              0             -149.62083      166624.85      55.027518      55.027518      55.027518      0.67697257     299.56207     -723.68925     -87.576864    
    124000   248000         595.56627      37.423758      15372.795      15283.917      8590.5312      6693.3862      2977.832       2831.9447      4922.8968      0             -4039.2873      0              0             -153.09598      162842.62      54.607969      54.607969      54.607969      0.69269616     24.160221     -20.32708       108.43813    
    125000   250000         609.2439      -425.38082      14203.49       15228.166      8787.8192      6440.3472      2853.2258      2781.9703      4834.9504      0             -4029.7993      0              0             -150.93815      165170.63      54.866965      54.866965      54.866965      0.6829329     -103.81287     -560.13641     -612.1932     
    126000   252000         617.41181      550.83917      16976.56       15649.677      8905.6343      6744.0423      2911.1348      2888.5944      4945.6002      0             -4001.287       0              0             -150.93838      165170.38      54.866938      54.866938      54.866938      0.68293393     715.76355      770.54345      166.21053    
    127000   254000         610.87665      555.2465       16886.725      15558.103      8811.3702      6746.7332      2972.1169      2843.501       4937.5224      0             -4006.4072      0              0             -151.94705      164073.93      54.745261      54.745261      54.745261      0.68749772     428.38423      1248.7105     -11.355216    
    128000   256000         611.77701      112.04484      15885.051      15617.435      8824.3572      6793.0781      2956.3595      2858.674       5030.5612      0             -4052.5166      0              0             -152.22568      163773.61      54.711838      54.711838      54.711838      0.68875843     450.71161      226.92753     -341.50463    
    129000   258000         600.65488      3.8940695      15507.155      15497.826      8663.93        6833.8965      2969.3096      2942.8033      4928.6861      0             -4006.9025      0              0             -151.7818       164252.56      54.765121      54.765121      54.765121      0.68675006     85.408951     -348.72115      274.99441    
    130000   260000         601.55034      593.03815      16890.307      15477.318      8676.8463      6800.4717      2968.4398      2883.6375      4997.043       0             -4048.6486      0              0             -152.59895      163373.01      54.667192      54.667192      54.667192      0.69044732     875.31874      803.45103      100.34467    
    131000   262000         601.40541     -155.62111      15008.836      15375.89       8674.7557      6701.1344      2948.787       2870.7445      5028.0421      0             -4146.4392      0              0             -154.15078      161728.34      54.483129      54.483129      54.483129      0.69746871    -638.80325     -542.00592      713.94586    
    132000   264000         591.34055      27.122201      15198.704      15135.416      8529.5788      6605.8377      2876.9304      2889.411       5023.5834      0             -4184.0871      0              0             -155.81658      159999.33      54.288277      54.288277      54.288277      0.70500578     286.04381     -319.194        114.51679    
    133000   266000         605.56007     -73.916125      15279.012      15456.497      8734.6832      6721.814       2823.9831      2976.1299      4957.0406      0             -4035.3397      0              0             -151.42042      164644.57      54.808654      54.808654      54.808654      0.68511495    -107.43015      384.8053      -499.12353    
    134000   268000         611.66316      132.09684      15772.228      15460.764      8822.7149      6638.0493      2854.3387      2874.0414      4999.7649      0             -4090.0957      0              0             -154.20292      161673.65      54.476988      54.476988      54.476988      0.69770462     309.54851     -255.33569      342.0777     
    135000   270000         593.34218     -195.7063       14996.464      15460.717      8558.4506      6902.2661      2954.7302      2959.9783      5018.9663      0             -4031.4087      0              0             -153.27023      162657.48      54.587266      54.587266      54.587266      0.69348459    -120.21514      94.51779      -561.42154    
    136000   272000         600.91985     -204.25498      14752.959      15237.673      8667.752       6569.9207      2979.5499      2796.0373      4898.8824      0             -4104.5489      0              0             -153.21274      162718.52      54.594093      54.594093      54.594093      0.69322446    -367.63755     -365.34406      120.21668    
    137000   274000         595.74106     -301.78895      14350.591      15073.183      8593.0524      6480.1301      2883.4782      2785.3231      4848.0777      0             -4036.7489      0              0             -151.85116      164177.54      54.756781      54.756781      54.756781      0.68706388     276.62347      104.85241     -1286.8427    
    138000   276000         606.42314      604.58071      16763.179      15300.797      8747.1322      6553.6644      2797.0638      2852.1986      4934.2161      0             -4029.8142      0              0             -150.3146       165855.8       54.942729      54.942729      54.942729      0.68011159     397.49377      255.22859      1161.0198    
    139000   278000         600.7863       215.40593      15756.293      15245.011      8665.8256      6579.1858      2937.0215      2866.2007      4887.0745      0             -4111.1109      0              0             -153.18127      162751.95      54.597832      54.597832      54.597832      0.69308207    -523.53555      975.29323      194.4601     
    140000   280000         599.05339     -274.24597      14655.918      15316.05       8640.8298      6675.2199      2920.1588      2848.3051      5006.0317      0             -4099.2757      0              0             -151.04889      165049.54      54.853554      54.853554      54.853554      0.68343392    -50.37912      -619.15983     -153.19897    
    141000   282000         607.63725     -260.44372      14933.454      15550.242      8764.6447      6785.5978      2941.6129      2864.72        5075.5872      0             -4096.3223      0              0             -153.52724      162385.18      54.556789      54.556789      54.556789      0.69464746    -154.98413     -107.37631     -518.97072    
    142000   284000         595.49775      449.56788      16087.878      15015.167      8589.5428      6425.6243      2817.6694      2737.7705      4959.3564      0             -4089.172       0              0             -152.37732      163610.63      54.693683      54.693683      54.693683      0.68944455     265.91778      946.72262      136.06324    
    143000   286000         598.63881      454.478        16299.177      15206.463      8634.8498      6571.6135      2839.0139      2883.2365      4909.6122      0             -4060.249       0              0             -151.22174      164860.88      54.832646      54.832646      54.832646      0.68421603     799.31603      25.730634      538.38735    
    144000   288000         610.15318      166.63631      15934.847      15539.036      8800.9347      6738.1018      2929.5248      2978.7986      4977.2897      0             -4147.5114      0              0             -153.06988      162870.38      54.611072      54.611072      54.611072      0.69257809     50.468047      275.34722      174.09367    
    145000   290000         601.75269      210.91872      15922.156      15421.417      8679.7649      6741.6519      2982.385       2865.7524      4966.5613      0             -4073.0468      0              0             -153.14796      162787.35      54.60179       54.60179       54.60179       0.69293134     600.81759      312.25047     -280.3119     
    146000   292000         611.20134     -191.67945      15254.443      15712.366      8816.0536      6896.3125      2929.0988      2929.4737      5053.7385      0             -4015.9984      0              0             -152.19171      163810.17      54.715909      54.715909      54.715909      0.68860472    -766.23584      354.91102     -163.71353    
    147000   294000         598.14561     -29.139253      15252.754      15322.721      8627.7359      6694.9854      2879.3045      2831.4036      5052.2748      0             -4067.9974      0              0             -151.42217      164642.66      54.808442      54.808442      54.808442      0.68512289     617.6887      -986.93137      281.82492    
    148000   296000         596.21334     -916.13804      13135.758      15349.687      8599.8646      6749.8228      2998.1252      2790.6419      4962.3686      0             -4001.3129      0              0             -150.45441      165701.69      54.925705      54.925705      54.925705      0.68074416    -1503.0433     -591.15299     -654.21788    
    149000   298000         599.09754     -242.54579      14622.357      15205.501      8641.4667      6564.0343      2801.9688      2789.7128      5002.7579      0             -4030.4052      0              0             -151.22581      164856.45      54.832155      54.832155      54.832155      0.68423442    -103.24923     -399.18988     -225.19825    
    150000   300000         603.94482     -148.23555      14993.891      15350.428      8711.3845      6639.0435      2893.8415      2861.8161      4902.0074      0             -4018.6215      0              0             -151.16648      164921.15      54.839327      54.839327      54.839327      0.68396599    -273.1912      -328.38079      156.86535    
    151000   302000         599.49858      20.795588      15416.092      15366.387      8647.2513      6719.1359      2901.6006      2886.8634      5018.7408      0             -4088.0688      0              0             -152.11789      163889.66      54.724758      54.724758      54.724758      0.68827072    -261.96289      705.56664     -381.21698    
    152000   304000         607.49697     -229.37738      14866.285      15419.189      8762.6213      6656.5673      2934.8069      2847.6728      4871.1311      0             -3997.0434      0              0             -150.83727      165281.1       54.879195      54.879195      54.879195      0.68247644    -34.423998     -376.62224     -277.0859     
    153000   306000         588.92187      499.86686      16328.73       15147.526      8494.6914      6652.8344      2979.5422      2814.9185      4933.1516      0             -4074.7778      0              0             -153.86405      162029.73      54.516952      54.516952      54.516952      0.69617137     1473.4234     -233.93146      260.10863    
    154000   308000         610.12153      302.22964      16044.792      15329.68       8800.4783      6529.2015      2875.9275      2892.2583      4886.4469      0             -4125.4312      0              0             -153.66344      162241.26      54.540666      54.540666      54.540666      0.69526368     846.43709      181.18119     -120.92937    
    155000   310000         597.2841      -410.54962      14232.389      15210.149      8615.3094      6594.8398      2884.5781      2929.9901      4845.0623      0             -4064.7907      0              0             -152.66557      163301.72      54.65924       54.65924       54.65924       0.69074873    -142.53574     -1039.2985     -49.814594    
    156000   312000         606.01135      149.50301      15593.094      15237.331      8741.1925      6496.1382      2871.2857      2822.0128      4874.1273      0             -4071.2876      0              0             -152.79047      163168.22      54.644341      54.644341      54.644341      0.69131386     456.46622     -145.7684       137.81122    
    157000   314000         594.00944      665.75217      16893.557      15303.781      8568.0753      6735.7053      3012.1575      2844.9897      4954.8719      0             -4076.3138      0              0             -152.25949      163737.25      54.707789      54.707789      54.707789      0.68891139     754.36505      742.17371      500.71775    
    158000   316000         588.35533      321.53971      15957.906      15185.211      8486.5195      6698.6911      2938.2888      2767.0488      4975.4288      0             -3982.0753      0              0             -151.29826      164777.51      54.823401      54.823401      54.823401      0.68456221     410.29327      234.90742      319.41844    
    159000   318000         594.25406      132.72277      15638.312      15317.132      8571.6037      6745.528       3009.6703      2804.2396      4980.0601      0             -4048.4421      0              0             -150.24661      165930.87      54.951016      54.951016      54.951016      0.67980393    -32.395453      32.681494      397.88226    
    160000   320000         613.55294     -95.222018      15181.633      15408.2        8849.9734      6558.2265      2852.4313      2815.2473      4997.4594      0             -4106.9115      0              0             -152.80908      163148.35      54.642123      54.642123      54.642123      0.69139807    -339.50134     -388.44097      442.27625    
    161000   322000         595.43505      485.97187      16423.279      15272.9        8588.6384      6684.262       2955.0619      2823.8871      4992.6937      0             -4087.3806      0              0             -153.59535      162313.18      54.548724      54.548724      54.548724      0.6949556      418.4659      -103.72518      1143.1749    
    162000   324000         606.29556      236.98559      16080.308      15513.233      8745.2919      6767.9415      2937.8205      2874.0822      5036.1102      0             -4080.0714      0              0             -151.9462       164074.85      54.745363      54.745363      54.745363      0.68749389     150.54323      533.90626      26.507279    
    163000   326000         592.91449      965.81241      17522.15       15195.081      8552.2815      6642.7995      2937.7297      2815.2099      4915.7453      0             -4025.8854      0              0             -150.90071      165211.61      54.871503      54.871503      54.871503      0.6827635      1713.7956      333.7265       849.91508    
    164000   328000         605.36337      287.00031      16052.984      15362.994      8731.846       6631.1482      2863.3292      2850.4527      4924.5546      0             -4007.1882      0              0             -151.2332       164848.39      54.831261      54.831261      54.831261      0.68426787     548.30743      105.44977      207.24374    
    165000   330000         604.70787     -267.65235      14727.938      15354.806      8722.3909      6632.415       2964.5462      2823.9895      4969.4928      0             -4125.6135      0              0             -155.23979      160593.81      54.355429      54.355429      54.355429      0.70239605    -106.55432     -53.596031     -642.8067     
    166000   332000         600.2569       772.20309      17348.476      15495.309      8658.1895      6837.1194      3018.6867      2858.2653      5037.6472      0             -4077.4798      0              0             -151.50418      164553.54      54.798551      54.798551      54.798551      0.68549394     461.94251      1407.2784      447.38835    
    167000   334000         587.5133       635.53507      16576.752      15050.038      8474.374       6575.6644      2909.253       2818.1058      4908.2884      0             -4059.9828      0              0             -151.35249      164718.46      54.816852      54.816852      54.816852      0.68480759     840.01332      224.45865      842.13324    
    168000   336000         589.1055      -178.63684      14660.052      15089.527      8497.3402      6592.1869      2956.7606      2855.7969      4878.5338      0             -4098.9044      0              0             -151.23107      164850.71      54.831518      54.831518      54.831518      0.68425824     142.96462     -458.65206     -220.2231     
    169000   338000         597.36309      310.66975      16126.838      15392.719      8616.4488      6776.2699      2983.5497      2906.0532      5012.2731      0             -4125.606       0              0             -153.86506      162028.66      54.516833      54.516833      54.516833      0.69617593    -51.965624      503.34134      480.63354    
    170000   340000         598.58177      155.41813      15442.455      15068.577      8634.0271      6434.5501      2817.1616      2793.4696      4850.0843      0             -4026.1653      0              0             -151.13997      164950.08      54.842534      54.842534      54.842534      0.68384601     327.50104      9.4376189      129.31572    
    171000   342000         591.03124     -93.150572      14939.053      15160.149      8525.1173      6635.0317      2941.8549      2871.2685      4894.7327      0             -4072.8244      0              0             -153.1834       162749.68      54.597579      54.597579      54.597579      0.6930917     -92.265963      15.476245     -202.662      
    172000   344000         591.14557     -317.18928      14418.328      15163.359      8526.7664      6636.5929      2866.7008      2853.3325      5031.4627      0             -4114.9031      0              0             -154.79308      161057.26      54.407667      54.407667      54.407667      0.70037485     114.5006      -801.22535     -264.84309    
    173000   346000         592.60492     -156.16725      14798.392      15171.371      8547.8163      6623.5546      2946.105       2823.639       4930.0859      0             -4076.2753      0              0             -152.23452      163764.1       54.710779      54.710779      54.710779      0.68879845    -331.42536     -506.23206      369.15568    
    174000   348000         590.46865     -53.455568      14877.426      15005.337      8517.0023      6488.3348      2865.8506      2892.3125      4838.7627      0             -4108.591       0              0             -151.94693      164074.06      54.745275      54.745275      54.745275      0.6874972      57.554535      422.77458     -640.69582    
    175000   350000         600.35335      689.28371      16945.696      15304.677      8659.5807      6645.0961      2951.8667      2839.7138      4932.3246      0             -4078.809       0              0             -152.71869      163244.91      54.652901      54.652901      54.652901      0.69098911     1169.8348      448.40304      449.6133     
    176000   352000         600.86465     -63.3883        15070.193      15222.46       8666.9558      6555.504       2930.8288      2775.7371      4884.7815      0             -4035.8434      0              0             -151.36053      164709.71      54.815882      54.815882      54.815882      0.68484397    -473.73402     -182.46958      466.03869    
    177000   354000         594.80351      399.91374      15975.428      15042.302      8579.529       6462.7726      2911.126       2759.8373      4926.4198      0             -4134.6104      0              0             -155.82369      159992.04      54.287452      54.287452      54.287452      0.70503792     205.54895      756.42101      237.77128    
    178000   356000         585.15138     -717.39822      13191.884      14889.322      8440.3054      6449.0168      2897.5633      2873.9715      4835.2528      0             -4157.7708      0              0             -153.66465      162239.98      54.540522      54.540522      54.540522      0.69526918    -547.23418     -1789.2115      184.25097    
    179000   358000         598.21491     -252.21183      14429.411      15027.626      8628.7355      6398.8905      2902.7713      2760.2949      4883.7144      0             -4147.8901      0              0             -153.29064      162635.82      54.584844      54.584844      54.584844      0.69357694    -1051.7046     -45.581656      340.65078    
    180000   360000         588.91753      239.54383      15597.569      15033.696      8494.6288      6539.0672      2902.4986      2849.2991      4883.3628      0             -4096.0933      0              0             -154.45835      161406.29      54.446941      54.446941      54.446941      0.69886034     276.56305     -413.33072      855.39916    
    181000   362000         602.65917      411.09588      16168.028      15198.001      8692.8402      6505.1608      2994.3099      2746.1233      4889.9667      0             -4125.2392      0              0             -154.08734      161794.92      54.490605      54.490605      54.490605      0.69718167     935.40902      424.50805     -126.62942    
    182000   364000         572.17127     -284.73731      14098.326      14782.784      8253.0784      6529.706       2917.7563      2850.1823      4794.4264      0             -4032.659       0              0             -151.25341      164826.36      54.828819      54.828819      54.828819      0.68435932    -411.68776      870.94213     -1313.4663    
    183000   366000         592.88287     -277.51408      14375.664      15031.269      8551.8255      6479.4432      2896.869       2847.8006      4866.171       0             -4131.3974      0              0             -153.90422      161987.43      54.512208      54.512208      54.512208      0.69635314    -483.22609     -866.78369      517.46754    
    184000   368000         599.01199     -31.578132      15236.541      15310.306      8640.2327      6670.0735      2878.7841      2877.1248      5038.1296      0             -4123.965       0              0             -155.64765      160172.99      54.307911      54.307911      54.307911      0.70424143     96.34899      -214.78566      23.70227     
    185000   370000         582.72911      69.283026      14968.397      14806.376      8405.3661      6401.0099      2861.5519      2838.3293      4857.1662      0             -4156.0375      0              0             -155.47574      160350.09      54.327919      54.327919      54.327919      0.70346361     150.4496       187.95014     -130.55066    
    186000   372000         606.0454       175.74091      15785.677      15372.128      8741.6835      6630.4447      2947.1         2974.1701      4851.1394      0             -4141.9647      0              0             -154.50894      161353.45      54.440998      54.440998      54.440998      0.69908923     361.6186       470.70638     -305.10227    
    187000   374000         597.8766       411.72453      16068.495      15093.182      8623.8557      6469.3262      2875.2272      2777.0099      4885.3271      0             -4068.238       0              0             -153.4866       162428.18      54.561604      54.561604      54.561604      0.69446358     513.18214      601.15295      120.8385     
    188000   376000         596.52163      51.457818      15307.297      15185.331      8604.3114      6581.0192      2901.3927      2823.4589      4947.0063      0             -4090.8387      0              0             -153.39787      162522.14      54.572122      54.572122      54.572122      0.69406209    -168.93977     -501.89143      825.20465    
    189000   378000         595.42879     -103.52738      14931.328      15178.578      8588.5482      6590.0303      2896.9899      2892.5552      4872.8046      0             -4072.3195      0              0             -152.23919      163759.08      54.71022       54.71022       54.71022       0.68881955     978.9578      -306.46322     -983.07671    
    190000   380000         598.14286      149.43263      15673.503      15315.739      8627.6962      6688.043       2943.1227      2897.3388      4913.2835      0             -4065.7021      0              0             -151.86474      164162.85      54.755149      54.755149      54.755149      0.68712534     502.15452      729.54022     -783.39684    
    191000   382000         602.42687     -163.41177      14953.954      15346.776      8689.4893      6657.287       2876.3684      2808.6922      5002.8004      0             -4030.5738      0              0             -151.2499       164830.18      54.829243      54.829243      54.829243      0.68434344    -400.14898      105.07595     -195.16227    
    192000   384000         608.42053      95.589394      15692.023      15462.412      8775.9428      6686.4693      2899.6455      2888.2944      4957.0836      0             -4058.5542      0              0             -151.36507      164704.77      54.815334      54.815334      54.815334      0.68486451     647.728       -987.32183      626.36201    
    193000   386000         586.15366      573.78382      16532.924      15164.309      8454.7624      6709.5465      3031.1362      2819.9438      4894.2557      0             -4035.7891      0              0             -152.43155      163552.43      54.687197      54.687197      54.687197      0.68968989     594.7882       936.88717      189.67609    
    194000   388000         584.02692      474.8513       15980.642      14851.97       8424.0859      6427.8836      2828.5114      2789.9131      4874.3191      0             -4064.86        0              0             -152.96686      162980.07      54.623329      54.623329      54.623329      0.69211197     49.091005      743.78578      631.67712    
    195000   390000         600.25382      617.74757      16455.736      14998.031      8658.145       6339.886       2795.2405      2829.8306      4827.2108      0             -4112.396       0              0             -154.08102      161801.56      54.49135       54.49135       54.49135       0.69715307     482.8063       247.24749      1123.1889    
    196000   392000         591.71292     -65.695765      15065.239      15223.107      8534.9499      6688.1573      2886.2915      2860.6466      4952.3756      0             -4011.1564      0              0             -151.30357      164771.72      54.822759      54.822759      54.822759      0.68458628    -606.18845      207.4266       201.67455    
    197000   394000         598.08891      174.74126      15560.448      15141.331      8626.918       6514.4132      2842.2416      2914.0879      4820.9334      0             -4062.8497      0              0             -151.5893       164461.14      54.788292      54.788292      54.788292      0.68587909     592.55176     -76.648523      8.3205545    
    198000   396000         587.28721     -153.10023      14680.228      15048.93       8471.1128      6577.8172      2886.889       2779.7083      4894.0391      0             -3982.8192      0              0             -150.97589      165129.34      54.862393      54.862393      54.862393      0.68310365    -318.51725      337.17016     -477.95359    
    199000   398000         601.81844     -424.97676      14217.196      15229.902      8680.7133      6549.1885      2888.4853      2894.284       4886.6139      0             -4120.1947      0              0             -152.57716      163396.33      54.669794      54.669794      54.669794      0.69034875    -215.01724     -800.15042     -259.76262    
    200000   400000         578.02787     -461.37139      13735.985      14812.202      8337.5548      6474.647       2837.8831      2923.5009      4880.5714      0             -4167.3084      0              0             -155.86856      159945.98      54.282242      54.282242      54.282242      0.70524097    -539.13592     -809.24616     -35.732095    
[...]
    458000   916000         561.278       -619.77722      12509.768      13951.438      8095.9524      5855.4858      2676.5867      2721.8668      4666.9597      0             -4209.9274      0              0             -156.30661      159497.73      54.231486      54.231486      54.231486      0.70722294    -646.29665     -653.50792     -559.52708    
    459000   918000         559.46335     -747.74679      12241.582      13963.502      8069.7776      5893.7247      2722.5441      2694.7022      4756.8569      0             -4280.3785      0              0             -157.88804      157900.18      54.049814      54.049814      54.049814      0.71437826    -408.29825     -798.39137     -1036.5508    
    460000   920000         547.72583      98.679165      13844.766      13615.232      7900.4739      5714.7581      2660.5784      2622.9578      4676.3701      0             -4245.1482      0              0             -156.30995      159494.32      54.231099      54.231099      54.231099      0.70723808     34.120225      32.050265      229.86701    
    461000   922000         560.42766     -44.122825      13976.511      14078.378      8083.687       5994.6912      2786.5344      2762.3042      4767.3163      0             -4321.4636      0              0             -157.48431      158304.97      54.095962      54.095962      54.095962      0.71255157     274.31931     -104.48808     -302.1997     
    462000   924000         543.58773      525.33615      14660.709      13466.172      7840.7854      5625.3866      2742.5863      2668.9068      4594.0661      0             -4380.1727      0              0             -159.89887      155914.49      53.822288      53.822288      53.822288      0.72347643     219.03564      1093.1314      263.84136    
    463000   926000         552.91964      525.68507      14900.522      13668.463      7975.3903      5693.0727      2665.2687      2607.9343      4669.8499      0             -4249.9802      0              0             -155.13214      160705.25      54.368         54.368         54.368         0.70190897     370.92733      475.03332      731.09456    
    464000   928000         546.52371     -245.30759      13131.239      13696.679      7883.1345      5813.5443      2722.9317      2657.8908      4729.9434      0             -4297.2216      0              0             -157.73651      158051.86      54.067116      54.067116      54.067116      0.71369266    -437.57887     -379.95273      81.608833    
    465000   930000         564.71985     -340.25614      13034.505      13816.489      8145.5981      5670.8908      2677.5564      2601.3149      4721.5339      0             -4329.5145      0              0             -158.20346      157585.36      54.013869      54.013869      54.013869      0.71580543     230.18582     -1100.4612     -150.49309    
    466000   932000         545.03256     -136.56308      13335.31       13650.326      7861.6258      5788.7002      2670.3189      2756.1092      4609.598       0             -4247.3258      0              0             -157.61914      158169.56      54.080533      54.080533      54.080533      0.71316161     219.15763     -415.24745     -213.59941    
    467000   934000         561.28274     -64.10467       13736.62       13884.066      8096.0208      5788.0452      2730.4391      2634.1048      4739.9617      0             -4316.4604      0              0             -158.07514      157713.28      54.028481      54.028481      54.028481      0.71522483    -666.37332     -198.62296      672.68227    
    468000   936000         547.94696      527.71866      15016.169      13796.005      7903.6636      5892.3411      2877.0025      2583.8783      4684.9133      0             -4253.453       0              0             -157.25049      158540.36      54.122762      54.122762      54.122762      0.71149362     989.87092     -211.27577      804.56083    
    469000   938000         553.53644      256.22025      14272.536      13678.41       7984.287       5694.1225      2664.3624      2657.3789      4632.6788      0             -4260.2976      0              0             -156.79853      158997.34      54.174713      54.174713      54.174713      0.70944869     353.7324       432.62444     -17.696093    
    470000   940000         548.1132       818.04472      15351.529      13463.564      7906.0614      5557.5022      2589.9519      2614.0036      4605.6615      0             -4252.1148      0              0             -157.53998      158249.04      54.08959       54.08959       54.08959       0.71280343     724.99741      609.82842      1119.3083    
    471000   942000         556.31413      218.81074      14151.037      13654.589      8024.3528      5630.2361      2664.9421      2665.0465      4643.4013      0             -4343.1538      0              0             -160.25157      155571.33      53.782773      53.782773      53.782773      0.72507225     143.22754      4.3595373      508.84514    
    472000   944000         552.11285      56.763454      13862.043      13732.405      7963.7529      5768.6524      2695.7088      2743.8244      4663.1325      0             -4334.0133      0              0             -159.20085      156598.1       53.900835      53.900835      53.900835      0.72031818    -75.21691      -267.15179      512.65906    
    473000   946000         545.3597       7.327346       13493.448      13476.614      7866.3445      5610.2694      2598.4162      2622.4709      4654.15        0             -4264.7677      0              0             -158.25393      157535.11      54.008127      54.008127      54.008127      0.71603376    -580.49465      199.82072      402.65597    
    474000   948000         556.31517      199.51587      14076.303      13615.248      8024.3678      5590.8799      2652.994       2648.547       4625.3682      0             -4336.0294      0              0             -157.33735      158452.83      54.1128        54.1128        54.1128        0.71188664     139.60275      22.597308      436.34754    
    475000   950000         565.11819      330.21294      14550.83       13785.654      8151.3438      5634.31        2656.6048      2642.3623      4569.2925      0             -4233.9496      0              0             -156.90627      158888.16      54.16231       54.16231       54.16231       0.70993618     911.8418       376.63896     -297.84192    
    476000   952000         546.1916      -553.17764      12403.726      13688.197      7878.3441      5809.8534      2701.1371      2688.8508      4655.8406      0             -4235.975       0              0             -156.58421      159214.96      54.199419      54.199419      54.199419      0.70847898    -843.02401     -185.90816     -630.60074    
    477000   954000         556.60658     -71.296337      13662.246      13824.524      8028.5712      5795.9529      2751.0669      2742.7719      4612.453       0             -4310.3389      0              0             -159.74065      156068.91      53.840052      53.840052      53.840052      0.72276057    -376.32661      481.6203      -319.1827     
    478000   956000         559.03228      45.217639      14037.895      13932.577      8063.5597      5869.0174      2720.9817      2680.2196      4679.9065      0             -4212.0904      0              0             -156.10311      159705.66      54.255042      54.255042      54.255042      0.70630218    -85.0413        557.34355     -336.64934    
    479000   958000         562.23897     -445.78153      12806.051      13865.47       8109.8136      5755.656       2597.8135      2650.1194      4659.7014      0             -4151.9783      0              0             -152.98967      162955.77      54.620614      54.620614      54.620614      0.69221517    -442.79921     -546.35162     -348.19377    
    480000   960000         558.81895     -341.30919      13040.6        13828.027      8060.4826      5767.5439      2659.6419      2673.8063      4705.8242      0             -4271.7284      0              0             -157.59612      158192.66      54.083166      54.083166      54.083166      0.71305745    -387.41166      2.9602952     -639.4762     
    481000   962000         541.03712      468.18981      14570.55       13505.639      7803.9951      5701.6434      2672.575       2632.3424      4713.2187      0             -4316.4927      0              0             -159.85126      155960.92      53.82763       53.82763       53.82763       0.72326104     942.65003      239.41165      222.50774    
    482000   964000         551.26556     -143.10771      13533.301      13870.946      7951.5315      5919.4149      2739.1699      2718.4391      4628.6656      0             -4166.8597      0              0             -154.10268      161778.82      54.488797      54.488797      54.488797      0.69725108    -205.78396      322.57244     -546.11162    
    483000   966000         546.50414      148.73876      13944.949      13601.713      7882.8521      5718.8606      2646.4453      2713.1433      4638.838       0             -4279.566       0              0             -157.5573       158231.64      54.087608      54.087608      54.087608      0.71288179    -64.680916     -423.48943      934.38662    
    484000   968000         561.44071      703.51154      15267.421      13660.534      8098.2993      5562.2348      2563.056       2712.3091      4635.1386      0             -4348.2689      0              0             -159.18187      156616.76      53.902977      53.902977      53.902977      0.72023232     905.63349      687.18654      517.7146     
    485000   970000         553.36792      276.63676      14243.47       13606.412      7981.8563      5624.556       2583.0008      2632.6226      4682.6885      0             -4273.756       0              0             -157.88422      157903.99      54.05025       54.05025       54.05025       0.71436101     405.52658     -560.12742      984.51111    
    486000   972000         559.32658      709.6385       15363.643      13737.485      8067.8048      5669.6798      2649.1926      2608.8296      4669.1961      0             -4257.5385      0              0             -158.66532      157126.65      53.961409      53.961409      53.961409      0.71789514     1185.6878      1043.5888     -100.36109    
    487000   974000         558.62337      223.56844      14063.887      13550.276      8057.6616      5492.6146      2591.128       2628.7026      4593.091       0             -4320.307       0              0             -158.26474      157524.34      54.006897      54.006897      54.006897      0.7160827      544.47544      437.15082     -310.92095    
    488000   976000         554.13783     -627.8075       12101.031      13535.001      7992.9616      5542.0398      2591.1544      2637.3856      4680.5363      0             -4367.0364      0              0             -159.182        156616.64      53.902962      53.902962      53.902962      0.72023291    -445.59419     -1309.7331     -128.09516    
    489000   978000         548.14404     -337.25831      12901.914      13694.251      7906.5063      5787.7444      2713.7406      2638.78        4641.0135      0             -4205.7897      0              0             -154.76064      161091.02      54.411468      54.411468      54.411468      0.70022806    -1005.555       524.97641     -531.19633    
    490000   980000         551.8281      -267.85919      13113.213      13738.307      7959.6456      5778.6616      2690.1894      2698.2152      4654.3313      0             -4264.0742      0              0             -155.80038      160015.97      54.290159      54.290159      54.290159      0.70493247     131.01402     -935.76395      1.1723665    
    491000   982000         555.25066     -389.96569      12810.451      13708.032      8009.0131      5699.0193      2600.8297      2687.2158      4688.1415      0             -4277.1675      0              0             -157.96482      157823.43      54.041056      54.041056      54.041056      0.71472565    -660.22414      0.010567764   -509.68349    
    492000   984000         542.68158      727.91031      15194.822      13487.898      7827.715       5660.1832      2591.0912      2612.174       4610.7395      0             -4153.8215      0              0             -155.04986      160790.53      54.377615      54.377615      54.377615      0.70153669     457.81999      1205.6489      520.26202    
    493000   986000         555.47707      315.04337      14616.64       13888.749      8012.2789      5876.4705      2700.0768      2656.0101      4762.6481      0             -4242.2645      0              0             -157.36627      158423.71      54.109484      54.109484      54.109484      0.7120175      45.050888      447.44629      452.63293    
    494000   988000         564.86421      371.0488       14648.168      13793.374      8147.6804      5645.6936      2716.7674      2506.829       4695.2198      0             -4273.1226      0              0             -157.8255       157962.75      54.056953      54.056953      54.056953      0.7140953      674.20607     -18.416912      457.35723    
    495000   990000         542.79905      240.32628      14081.709      13528.02       7829.4094      5698.6104      2621.7101      2670.5834      4710.6177      0             -4304.3009      0              0             -157.81297      157975.29      54.058383      54.058383      54.058383      0.71403861    -350.36309      529.06239      542.27956    
    496000   992000         550.0448       12.760695      13727.788      13698.332      7933.923       5764.4093      2721.5968      2666.8038      4637.3069      0             -4261.2981      0              0             -157.51209      158277.06      54.092782      54.092782      54.092782      0.71267724    -103.1036       142.68087     -1.2951797    
    497000   994000         546.37557     -694.73133      11959.244      13574.257      7880.9977      5693.2593      2645.0338      2588.8998      4734.054       0             -4274.7283      0              0             -156.40432      159398.09      54.22019       54.22019       54.22019       0.70766506    -976.4969      -269.47713     -838.21997    
    498000   996000         549.51893     -236.48251      13209.831      13759.213      7926.3379      5832.8753      2712.4856      2640.2426      4703.9504      0             -4223.8032      0              0             -156.50644      159294.08      54.208394      54.208394      54.208394      0.70812712    -273.06228      129.68545     -566.0707     
    499000   998000         553.2328      -381.3187       12886.257      13754.27       7979.9072      5774.3632      2709.626       2684.4136      4724.3792      0             -4344.0556      0              0             -159.72379      156085.39      53.841946      53.841946      53.841946      0.72268428    -360.88418     -300.40093     -482.67098    
    500000   1000000        546.43044      363.31636      14547.829      13712.754      7881.7891      5830.9651      2725.8238      2624.0775      4755.8048      0             -4274.741       0              0             -158.18582      157602.94      54.015878      54.015878      54.015878      0.71572559     322.00903      205.8967       562.04335    
Loop time of 430.354 on 1 procs for 500000 steps with 4840 atoms

Performance: 200.765 ns/day, 0.120 hours/ns, 1161.834 timesteps/s, 5.623 Matom-step/s
99.5% CPU use with 1 MPI tasks x 1 OpenMP threads

MPI task timing breakdown:
Section |  min time  |  avg time  |  max time  |%varavg| %total
---------------------------------------------------------------
Pair    | 46.178     | 46.178     | 46.178     |   0.0 | 10.73
Bond    | 303.5      | 303.5      | 303.5      |   0.0 | 70.52
Neigh   | 0.12405    | 0.12405    | 0.12405    |   0.0 |  0.03
Comm    | 27.069     | 27.069     | 27.069     |   0.0 |  6.29
Output  | 4.2139     | 4.2139     | 4.2139     |   0.0 |  0.98
Modify  | 41.522     | 41.522     | 41.522     |   0.0 |  9.65
Other   |            | 7.751      |            |       |  1.80

Nlocal:           4840 ave        4840 max        4840 min
Histogram: 1 0 0 0 0 0 0 0 0 0
Nghost:          14635 ave       14635 max       14635 min
Histogram: 1 0 0 0 0 0 0 0 0 0
Neighs:              0 ave           0 max           0 min
Histogram: 1 0 0 0 0 0 0 0 0 0

Total # of neighbors = 0
Ave neighs/atom = 0
Ave special neighs/atom = 5.9504132
Neighbor list builds = 20702
Dangerous builds = 0

# --- Cleanup ---
unfix npt_fix

undump dump_npt

# --- Write Output ---
write_dump all custom npt_cool_melt_last.dump id type mol x y z xu yu zu vx vy vz modify sort id
write_data /home/alexzhao/PolyJarvis/data/PE4/lammps/equil/npt_cool_melt/npt_cool_melt_out.data
System init for write_data ...
Generated 1 of 1 mixed pair_coeff terms from arithmetic mixing rule

print "STAGE COMPLETE: NPT T=620.0->550.0K P=1.0->1.0atm steps=500000"
STAGE COMPLETE: NPT T=620.0->550.0K P=1.0->1.0atm steps=500000
quit
 0.12405    | 0.12405    |   0.0 |  0.03
Comm    | 27.069     | 27.069     | 27.069     |   0.0 |  6.29
Output  | 4.2139     | 4.2139     | 4.2139     |   0.0 |  0.98
Modify  | 41.522     | 41.522     | 41.522     |   0.0 |  9.65
Other   |            | 7.751      |            |       |  1.80

Nlocal:           4840 ave        4840 max        4840 min
Histogram: 1 0 0 0 0 0 0 0 0 0
Nghost:          14635 ave       14635 max       14635 min
Histogram: 1 0 0 0 0 0 0 0 0 0
Neighs:              0 ave           0 max           0 min
Histogram: 1 0 0 0 0 0 0 0 0 0

Total # of neighbors = 0
Ave neighs/atom = 0
Ave special neighs/atom = 5.9504132
Neighbor list builds = 20702
Dangerous builds = 0
System init for write_data ...


---------------------------------------------------------------------
      Device Time Info (average): 
---------------------------------------------------------------------
Data Transfer:   17.4998 s.
Neighbor copy:   1.5980 s.
Neighbor build:  11.6454 s.
Force calc:      42.0629 s.
Device Overhead: 20.4592 s.
CPU Neighbor:    2.9971 s.
CPU Cast/Pack:   13.7971 s.
CPU Driver_Time: 10.6476 s.
CPU Idle_Time:   1.1188 s.
Average split:   1.0000.
Max Mem / Proc:  32.99 MB.
Prefetch mode:   None.
Vector width:    32.
Lanes / atom:    4.
Pair block:      256.
Neigh block:     128.
Neigh mode:      Hybrid (binning on host) with subgroup support.
Neigh sorting:   Unavailable or disabled.
---------------------------------------------------------------------


--------------------------------------------------------------------------
- Using acceleration for lj/cut:
-  with 1 proc(s) per device.
-  with 1 thread(s) per proc.
-  Horizontal vector operations: ENABLED
-  Shared memory system: No
--------------------------------------------------------------------------
Device 0: NVIDIA A800 40GB Active, 108 CUs, 39/39 GB, 1.4 GHZ (Mixed Precision)
--------------------------------------------------------------------------

Initializing Device and compiling on process 0...Done.
Initializing Device 0 on core 0...Done.

Generated 1 of 1 mixed pair_coeff terms from arithmetic mixing rule
STAGE COMPLETE: NPT T=620.0->550.0K P=1.0->1.0atm steps=500000
Cuda driver error 4 in call at file '/home/alexzhao/lammps/lib/gpu/geryon/nvd_timer.h' in line 98.
Cuda driver error 4 in call at file '/home/alexzhao/lammps/lib/gpu/geryon/nvd_timer.h' in line 99.
Cuda driver error 4 in call at file '/home/alexzhao/lammps/lib/gpu/geryon/nvd_timer.h' in line 98.
Cuda driver error 4 in call at file '/home/alexzhao/lammps/lib/gpu/geryon/nvd_timer.h' in line 99.
Cuda driver error 4 in call at file '/home/alexzhao/lammps/lib/gpu/geryon/nvd_timer.h' in line 98.
Cuda driver error 4 in call at file '/home/alexzhao/lammps/lib/gpu/geryon/nvd_timer.h' in line 99.
