units real
atom_style full
boundary p p p

# --- Force Field Styles ---
pair_style lj/cut 14.0
dielectric 1.000000
bond_style harmonic
angle_style harmonic
dihedral_style multi/harmonic
improper_style none
special_bonds lj 0 0 0
pair_modify mix arithmetic tail yes
neighbor 2.0 bin
neigh_modify delay 0 every 1 check yes
neigh_modify one 4000
package gpu 1 neigh yes

read_data /home/arz2/PolyJarvis/data/cis-PBD3/lammps/npt_compress/npt_compress_out.data
Reading data file ...
  orthogonal box = (8.2772447 8.2772447 8.2772447) to (59.901133 59.901133 59.901133)
  1 by 1 by 1 MPI processor grid
  reading atoms ...
  8040 atoms
  reading velocities ...
  8040 velocities
  scanning bonds ...
  2 = max bonds/atom
  scanning angles ...
  1 = max angles/atom
  scanning dihedrals ...
  2 = max dihedrals/atom
  orthogonal box = (8.2772447 8.2772447 8.2772447) to (59.901133 59.901133 59.901133)
  1 by 1 by 1 MPI processor grid
  reading bonds ...
  8020 bonds
  reading angles ...
  8000 angles
  reading dihedrals ...
  7980 dihedrals
Finding 1-2 1-3 1-4 neighbors ...
  special bond factors lj:    0        0        0       
  special bond factors coul:  0        0        0       
     2 = max # of 1-2 neighbors
     2 = max # of 1-3 neighbors
     4 = max # of 1-4 neighbors
     6 = max # of special neighbors
  special bonds CPU = 0.002 seconds
  read_data CPU = 0.105 seconds
include /home/arz2/PolyJarvis/data/cis-PBD3/lammps/cell/emc_build.params
# LAMMPS parameters created by EMC v9.4.4, build Jul 31 2025 20:33:44

# Variables

variable	seed		index	986450
variable	ntotal		index	8040
variable	fshape		index	1
variable	output		index	emc_build
variable	field		index	trappe/2014/trappe-ua
variable	location1	index	/home/arz2/emc/field/
variable	nav		index	0.6022141179
variable	temperature	index	300
variable	radius		index	5
variable	nrelax		index	100
variable	weight_nonbond	index	0.0001
variable	weight_bond	index	0.0001
variable	weight_focus	index	1
variable	cutoff		index	14
variable	charge_cutoff	index	14
variable	kappa		index	4
variable	density1	index	0.57
variable	lprevious	index	0
variable	lphase		index	68.1783775471
variable	f_poly		index	20
variable	chem_repeat	index	*C/C=C\C*
variable	chem_cap	index	*C
variable	lg_repeat	index	4
variable	lg_cap		index	1
variable	norm_poly	index	100
variable	l_poly		index	402
variable	mg_repeat	index	54.0914
variable	mg_cap		index	15.0347
variable	m_poly		index	5439.2094
variable	n_poly		index	20
variable	mtotal		index	108784.188
variable	nphase1		index	8040
variable	mphase1		index	108784.188
variable	vphase1		index	316912.949994
variable	lbox		index	68.1783775471
variable	lphase1		index	68.1783775471
variable	lxx		index	68.1783775471
variable	lyy		index	68.1783775471
variable	lzz		index	68.1783775471
variable	lzy		index	0
variable	lzx		index	0
variable	lyx		index	0
variable	vtotal		index	316912.949994
variable	nl_poly		index	20

# Types

variable	type_c3h	index	1
variable	type_c4h2	index	2
variable	type_c4h3	index	3

variable	type_bond_c3h_c3h index	1
variable	type_bond_c3h_c4h2 index	2
variable	type_bond_c4h2_c4h2 index	3
variable	type_bond_c4h2_c4h3 index	4

variable	type_angle_c3h_c3h_c4h2 index	1
variable	type_angle_c3h_c4h2_c4h2 index	2
variable	type_angle_c3h_c4h2_c4h3 index	3

# Clusters

variable	n0_poly		index	1
variable	n1_poly		index	20
variable	nl_poly		index	20

# Flags

variable	flag_charged	index	0

# Masses

mass		1    13.01890  # c3h
mass		2    14.02680  # c4h2
mass		3    15.03470  # c4h3

# Potentials

pair_modify	mix arithmetic tail yes
special_bonds	lj 0 0 0 coul 0 0 0.5
Finding 1-2 1-3 1-4 neighbors ...
  special bond factors lj:    0        0        0       
  special bond factors coul:  0        0        0.5     
     2 = max # of 1-2 neighbors
     2 = max # of 1-3 neighbors
     4 = max # of 1-4 neighbors
     6 = max # of special neighbors
  special bonds CPU = 0.002 seconds

# Pair Coeffs

pair_coeff	1 1    0.09340    3.71000  # c3h,c3h
pair_coeff	2 2    0.09141    3.95000  # c4h2,c4h2
pair_coeff	3 3    0.19475    3.75000  # c4h3,c4h3

# Bond Coeffs

bond_coeff	1  529.99987    1.33000  # c3h,c3h
bond_coeff	2  260.00013    1.54000  # c3h,c4h2
bond_coeff	3  260.00013    1.54000  # c4h2,c4h2
bond_coeff	4  260.00013    1.54000  # c4h2,c4h3

# Angle Coeffs

angle_coeff	1   69.96954  119.70000  # c3h,c3h,c4h2
angle_coeff	2   62.10020  114.00000  # c3h,c4h2,c4h2
angle_coeff	3   62.10020  114.00000  # c3h,c4h2,c4h3

# Dihedral Coeffs

dihedral_coeff	1    1.91086    1.85422    0.43627   -2.24348    0.00000  # c3h,c3h,c4h2,c4h2
dihedral_coeff	2    1.91086    1.85422    0.43627   -2.24348    0.00000  # c3h,c3h,c4h2,c4h3
dihedral_coeff	3    2.00702   -4.01203    0.27102    6.29006    0.00000  # c3h,c4h2,c4h2,c3h
dihedral_coeff	4   25.63496    0.99360  -25.63496   -0.99360    0.00000  # c4h2,c3h,c3h,c4h2


# --- Thermo Output ---
thermo_style custom step time temp press enthalpy etotal ke pe ebond eangle edihed eimp evdwl ecoul elong etail vol lx ly lz density pxx pyy pzz
thermo_modify flush yes
thermo 1000

# --- Trajectory ---
dump dump_npt all custom 1000 npt_pppm.dump id type mol x y z ix iy iz vx vy vz

# --- Restart Checkpointing ---
restart 10000 npt_1.rst npt_2.rst

# --- Initial Velocities (optional) ---
# Velocities read from data file

# --- SHAKE Constraints ---
# SHAKE disabled (TraPPE-UA united-atom)

# --- NPT Thermostat + Barostat (Nose-Hoover) ---
# T_damp = 100.0 fs  (heat bath coupling)
# P_damp = 1000.0 fs  (pressure bath coupling, ~10x T_damp typical)
# Ramp: T=480.0->480.0K  P=50000.0->1.0atm
timestep 2.0
fix npt_fix all npt temp 480.0 480.0 100.0 iso 50000.0 1.0 1000.0

run 500000

CITE-CITE-CITE-CITE-CITE-CITE-CITE-CITE-CITE-CITE-CITE-CITE-CITE

Your simulation uses code contributions which should be cited:

- GPU package (short-range, long-range and three-body potentials): doi:10.1016/j.cpc.2010.12.021, doi:10.1016/j.cpc.2011.10.012, doi:10.1016/j.cpc.2013.08.002, doi:10.1016/j.commatsci.2014.10.068, doi:10.1016/j.cpc.2016.10.020, doi:10.3233/APC200086

@Article{Brown11,
 author = {W. M. Brown and P. Wang and S. J. Plimpton and A. N. Tharrington},
 title = {Implementing Molecular Dynamics on Hybrid High Performance Computers---Short Range Forces},
 journal = {Comput.\ Phys.\ Commun.},
 year =    2011,
 volume =  182,
 pages =   {898--911},
 doi =     {10.1016/j.cpc.2010.12.021}
}

@Article{Brown12,
 author = {W. M. Brown and A. Kohlmeyer and S. J. Plimpton and A. N. Tharrington},
 title = {Implementing Molecular Dynamics on Hybrid High Performance Computers - Particle-Particle Particle-Mesh},
 journal = {Comput.\ Phys.\ Commun.},
 year =    2012,
 volume =  183,
 doi =     {10.1016/j.cpc.2011.10.012},
 pages =   {449--459}
}

@Article{Brown13,
 author = {W. M. Brown and Y. Masako},
 title = {Implementing Molecular Dynamics on Hybrid High Performance Computers---Three-Body Potentials},
 journal = {Comput.\ Phys.\ Commun.},
 year =    2013,
 volume =  184,
 pages =   {2785--2793},
 doi =     {10.1016/j.cpc.2013.08.002},
}

@Article{Trung15,
 author = {T. D. Nguyen and S. J. Plimpton},
 title = {Accelerating Dissipative Particle Dynamics Simulations for Soft Matter Systems},
 journal = {Comput.\ Mater.\ Sci.},
 year =    2015,
 doi =     {10.1016/j.commatsci.2014.10.068},
 volume =  100,
 pages =   {173--180}
}

@Article{Trung17,
 author = {T. D. Nguyen},
 title = {{GPU}-Accelerated {T}ersoff Potentials for Massively Parallel
    Molecular Dynamics Simulations},
 journal = {Comput.\ Phys.\ Commun.},
 year =    2017,
 doi =     {10.1016/j.cpc.2016.10.020},
 volume =  212,
 pages =   {113--122}
}

@inproceedings{Nikolskiy19,
 author = {V. Nikolskiy and V. Stegailov},
 title = {{GPU} Acceleration of Four-Site Water Models in {LAMMPS}},
 booktitle = {Proceedings of the International Conference on Parallel
    Computing (ParCo 2019), Prague, Czech Republic},
 doi =     {10.3233/APC200086},
 year =    2019
}

CITE-CITE-CITE-CITE-CITE-CITE-CITE-CITE-CITE-CITE-CITE-CITE-CITE

Generated 3 of 3 mixed pair_coeff terms from arithmetic mixing rule
Per MPI rank memory allocation (min/avg/max) = 22.67 | 22.67 | 22.67 Mbytes
   Step          Time           Temp          Press         Enthalpy        TotEng         KinEng         PotEng         E_bond        E_angle        E_dihed        E_impro         E_vdwl         E_coul         E_long         E_tail         Volume           Lx             Ly             Lz          Density          Pxx            Pyy            Pzz      
         0   0              478.55293      49304.689      126180.79      27253.472      11467.436      15786.036      4553.6329      4330.8245      10567.645      0             -3666.0656      0              0             -422.48233      137578.99      51.623888      51.623888      51.623888      1.3129939      48948.125      49809.653      49156.289    
      1000   2000           484.15445      50142.204      128030.57      27497.42       11601.663      15895.757      4646.4783      4355.5905      10543.91       0             -3650.2219      0              0             -422.79586      137476.97      51.611124      51.611124      51.611124      1.3139682      51331.725      49148.767      49946.119    
      2000   4000           478.14145      49724.681      126918.87      27357.595      11457.575      15900.02       4613.5072      4363.1715      10541.502      0             -3618.1614      0              0             -423.3681       137291.15      51.587861      51.587861      51.587861      1.3157467      50654.476      48732.632      49786.935    
      3000   6000           475.41451      49026.283      125657.58      27372.594      11392.23       15980.363      4643.9483      4458.9297      10560.833      0             -3683.3473      0              0             -422.84224      137461.89      51.609237      51.609237      51.609237      1.3141124      48537.387      49650.166      48891.295    
      4000   8000           483.43452      48686.009      125110.08      27189.931      11584.412      15605.519      4519.2541      4382.2225      10627.4        0             -3923.3579      0              0             -421.47198      137908.8       51.665106      51.665106      51.665106      1.3098539      48918.409      48722.074      48417.545    
      5000   10000          481.08507      50107.789      127914.39      27290.932      11528.113      15762.819      4529.764       4471.1637      10562.705      0             -3800.8142      0              0             -422.12646      137694.98      51.638391      51.638391      51.638391      1.3118879      51071.836      49436.268      49815.262    
      6000   12000          481.81606      49247.448      125972.86      27048.224      11545.629      15502.595      4493.9985      4307.2641      10566.329      0             -3864.9966      0              0             -422.00328      137735.17      51.643415      51.643415      51.643415      1.3115051      49779.553      49035.738      48927.052    
      7000   14000          474.05399      49502.959      126459.2       27130.826      11359.629      15771.197      4456.2173      4417.4357      10560.229      0             -3662.6845      0              0             -422.46857      137583.48      51.624449      51.624449      51.624449      1.3129511      49041.876      48783.106      50683.896    
      8000   16000          484.4944       48864.503      125626.9       27454.661      11609.809      15844.852      4461.993       4495.2196      10552.481      0             -3664.842       0              0             -421.93093      137758.79      51.646366      51.646366      51.646366      1.3112802      48575.663      48088.865      49928.981    
      9000   18000          478.59605      49417.257      126322.68      27074.266      11468.469      15605.797      4436.3448      4452.6573      10514.225      0             -3797.43        0              0             -422.07694      137711.14      51.640411      51.640411      51.640411      1.311734       48955.187      48814.032      50482.553    
     10000   20000          484.7177       50463.349      128683.62      27290.405      11615.16       15675.245      4667.3872      4333.5023      10551.261      0             -3876.9055      0              0             -421.89438      137770.73      51.647858      51.647858      51.647858      1.3111666      50707.557      50178.28       50504.209    
     11000   22000          484.43785      48058.224      123841.69      27086.101      11608.454      15477.647      4424.4909      4432.9106      10524.242      0             -3903.9967      0              0             -421.04471      138048.75      51.682577      51.682577      51.682577      1.308526       47899.267      47482.33       48793.076    
     12000   24000          482.90766      49513.811      126658.36      27219.281      11571.787      15647.495      4431.7446      4357.596       10474.081      0             -3615.9273      0              0             -422.09075      137706.63      51.639847      51.639847      51.639847      1.3117769      49311.981      48956.422      50273.03     
     13000   26000          481.15163      49287.561      126424.97      27247.436      11529.708      15717.729      4637.0262      4440.004       10560.336      0             -3919.6377      0              0             -421.27005      137974.9       51.67336       51.67336       51.67336       1.3092263      48646.31       49789.253      49427.121    
     14000   28000          478.35504      48260.052      124074.95      26867.864      11462.694      15405.17       4464.3591      4355.1938      10613.388      0             -4027.7704      0              0             -420.84913      138112.9       51.690581      51.690581      51.690581      1.3079182      48625.379      47809.394      48345.381    
     15000   30000          487.98895      47061.616      122030.41      27245.932      11693.549      15552.384      4369.0378      4440.6359      10566.902      0             -3824.1921      0              0             -420.88766      138100.26      51.689004      51.689004      51.689004      1.3080379      46911.097      46797.505      47476.247    
     16000   32000          477.02372      48432.38       124640.9       27204.22       11430.792      15773.429      4580.491       4519.9492      10595.183      0             -3922.195       0              0             -421.35669      137946.53      51.669818      51.669818      51.669818      1.3094956      48782.005      48144.257      48370.877    
     17000   34000          480.57839      48473.485      124730.2       27178.875      11515.971      15662.904      4527.4195      4389.2113      10666.813      0             -3920.54        0              0             -421.2187       137991.73      51.67546       51.67546       51.67546       1.3090667      48329.721      47303.071      49787.664    
     18000   36000          482.98765      47971.371      123670.32      27153.686      11573.704      15579.983      4460.3493      4391.7406      10575.929      0             -3848.0363      0              0             -421.32433      137957.13      51.671141      51.671141      51.671141      1.309395       47242.524      47693.008      48978.58     
     19000   38000          477.85103      47723.583      123166.75      26890.039      11450.616      15439.423      4605.2738      4347.9516      10623.18       0             -4136.9818      0              0             -420.19259      138328.7       51.717489      51.717489      51.717489      1.3058778      48394.672      47816.615      46959.461    
     20000   40000          478.65647      49141.329      125834.17      26870.132      11469.917      15400.215      4527.7881      4346.5749      10560.701      0             -4034.8485      0              0             -420.92632      138087.57      51.687422      51.687422      51.687422      1.3081581      49100.538      49560.24       48763.209    
     21000   42000          485.77771      47323.502      122367.35      27059.63       11640.561      15419.069      4449.2907      4393.6594      10565.272      0             -3989.1529      0              0             -420.90627      138094.15      51.688242      51.688242      51.688242      1.3080958      47495.739      46650.224      47824.544    
     22000   44000          479.31109      48238.901      124296.67      27118.316      11485.603      15632.713      4559.1773      4507.572       10506.261      0             -3940.2978      0              0             -420.78905      138132.62      51.693041      51.693041      51.693041      1.3077315      47644.207      48227.699      48844.798    
     23000   46000          485.49737      48183.361      124046.68      27098.008      11633.843      15464.165      4502.4046      4335.9574      10585.815      0             -3960.0122      0              0             -421.30032      137964.99      51.672122      51.672122      51.672122      1.3093204      48023.615      47558.851      48967.616    
     24000   48000          478.71751      47846.53       123289.92      26958.56       11471.379      15487.181      4488.7585      4386.7059      10602.58       0             -3990.8638      0              0             -421.03609      138051.58      51.682929      51.682929      51.682929      1.3084992      47600.071      47159.824      48779.696    
     25000   50000          480.7935       47391.361      122516.69      26915.347      11521.126      15394.221      4455.6839      4381.3273      10631.511      0             -4074.3012      0              0             -420.21519      138321.26      51.716562      51.716562      51.716562      1.305948       47710.359      47549.22       46914.504    
     26000   52000          487.88252      46715.991      121349.09      27165.843      11690.998      15474.845      4396.0649      4412.2264      10586.151      0             -3919.5979      0              0             -420.46368      138239.51      51.706372      51.706372      51.706372      1.3067203      46920.297      47082.331      46145.344    
     27000   54000          479.96112      46893.094      121476.22      26718.438      11501.18       15217.259      4415.8202      4347.1333      10535.875      0             -4081.5698      0              0             -419.49864      138557.53      51.745991      51.745991      51.745991      1.3037211      48047.789      46367.598      46263.895    
     28000   56000          483.11511      47329.716      122366.46      26959.278      11576.758      15382.52       4502.2355      4374.6087      10527.838      0             -4022.162       0              0             -420.52267      138220.12      51.703954      51.703954      51.703954      1.3069036      47651.475      46554.97       47782.704    
     29000   58000          487.72789      47961.901      123714.34      26892.819      11687.293      15205.526      4465.1334      4352.7509      10492.652      0             -4105.0104      0              0             -419.91466      138420.26      51.728897      51.728897      51.728897      1.305014       47684.334      47821.343      48380.026    
     30000   60000          483.10853      46540.581      120810.21      26628.201      11576.6        15051.601      4511.8977      4215.6649      10573.598      0             -4249.5603      0              0             -418.89043      138758.71      51.771023      51.771023      51.771023      1.3018309      46475.632      46027.217      47118.894    
     31000   62000          481.27018      46968.067      121605.14      26799.532      11532.548      15266.983      4514.7087      4251.1609      10555.602      0             -4054.4884      0              0             -419.95738      138406.18      51.727143      51.727143      51.727143      1.3051468      47234.197      46037.936      47632.068    
     32000   64000          477.33896      46988.919      121552.14      26737.386      11438.345      15299.041      4513.6416      4307.2885      10573.259      0             -4095.1485      0              0             -420.10331      138358.1       51.721153      51.721153      51.721153      1.3056003      46579.05       47224.835      47162.871    
     33000   66000          483.84296      47534.288      122851.27      26843.342      11594.199      15249.143      4464.1037      4354.2789      10553.049      0             -4122.2891      0              0             -419.69759      138491.85      51.737813      51.737813      51.737813      1.3043394      47292.187      48204.476      47106.201    
     34000   68000          483.56199      46690.152      121134.39      26740.296      11587.466      15152.83       4445.7985      4419.3765      10519.95       0             -4232.2947      0              0             -419.29247      138625.66      51.754471      51.754471      51.754471      1.3030804      47379.544      46996.234      45694.678    
     35000   70000          477.16105      46080.134      119773.54      26395.433      11434.082      14961.351      4436.7913      4293.4037      10552.032      0             -4320.8765      0              0             -418.31674      138949         51.794679      51.794679      51.794679      1.300048       45885.766      46362.848      45991.788    
     36000   72000          475.73681      46909.6        121433.56      26486.371      11399.954      15086.418      4529.6944      4319.1227      10465.716      0             -4228.1153      0              0             -418.80919      138785.62      51.774371      51.774371      51.774371      1.3015785      45023.841      48277.562      47427.396    
     37000   74000          474.95594      46799.338      121111.8       26579.087      11381.242      15197.845      4428.8055      4409.5357      10589.424      0             -4229.9199      0              0             -419.65671      138505.34      51.739493      51.739493      51.739493      1.3042124      45280.116      46311.528      48806.369    
     38000   76000          474.15853      46477.571      120653.73      26512.237      11362.134      15150.104      4521.0557      4392.8508      10601.391      0             -4365.1942      0              0             -418.50333      138887.05      51.78698       51.78698       51.78698       1.3006279      46742.408      46027.869      46662.436    
     39000   78000          476.28043      45739.677      119289.01      26638.432      11412.98       15225.452      4528.4352      4312.6014      10616.924      0             -4232.5088      0              0             -418.4866       138892.61      51.787671      51.787671      51.787671      1.3005759      45172.871      46183.145      45863.015    
     40000   80000          485.49041      45077.917      118070.25      26496.935      11633.677      14863.258      4484.5543      4366.2108      10574.226      0             -4561.7328      0              0             -417.28378      139292.97      51.837382      51.837382      51.837382      1.2968378      46328.993      43571.925      45332.834    
     41000   82000          484.09031      46002.479      119889.78      26595.622      11600.126      14995.496      4478.0938      4346.5849      10572.636      0             -4401.8189      0              0             -417.98755      139058.44      51.808273      51.808273      51.808273      1.299025       46094.783      46187.496      45725.157    
     42000   84000          490.25404      46968.445      122128.99      26955.845      11747.826      15208.019      4562.9786      4248.3017      10615.252      0             -4218.514       0              0             -418.33897      138941.62      51.793762      51.793762      51.793762      1.3001171      46807.071      46447.523      47650.742    
     43000   86000          475.38902      46034.833      119790.88      26366.228      11391.62       14974.608      4616.2787      4327.7534      10524.649      0             -4494.0725      0              0             -417.69731      139155.06      51.82027       51.82027       51.82027       1.2981229      45634.595      45308.132      47161.771    
     44000   88000          476.85604      45745.118      119127.04      26437.418      11426.773      15010.645      4513.1055      4351.5714      10465.676      0             -4319.7083      0              0             -418.36005      138934.62      51.792892      51.792892      51.792892      1.3001826      44353.859      45584.409      47297.085    
     45000   90000          477.03631      45497.277      118621.59      26348.335      11431.093      14917.242      4421.3109      4393.4269      10486.176      0             -4383.6719      0              0             -417.97098      139063.95      51.808957      51.808957      51.808957      1.2989735      45759.591      45246.636      45485.604    
     46000   92000          470.31002      45293.36       118157.9       26374.536      11269.913      15104.623      4467.0296      4286.7204      10595.028      0             -4244.1551      0              0             -418.31857      138948.4       51.794603      51.794603      51.794603      1.3000537      44765.06       45275.018      45840.004    
     47000   94000          477.23228      46603.97       121278.03      26787.9        11435.789      15352.111      4499.2438      4410.8663      10638.434      0             -4196.4334      0              0             -418.09314      139023.31      51.803911      51.803911      51.803911      1.2993531      45514.757      48240.595      46056.557    
     48000   96000          482.11803      44944.551      117639.3       26285.185      11552.865      14732.32       4349.6184      4301.6997      10533.578      0             -4452.5762      0              0             -417.04748      139371.89      51.847171      51.847171      51.847171      1.2961034      44599.154      44647.215      45587.284    
     49000   98000          471.73591      46288.942      120305.91      26430.609      11304.081      15126.528      4544.9301      4341.2392      10533.069      0             -4292.7102      0              0             -417.98674      139058.7       51.808306      51.808306      51.808306      1.2990225      46315.895      46596.729      45954.202    
     50000   100000         480.91568      45399.681      118713.31      26334.491      11524.053      14810.438      4571.1168      4297.1697      10584.867      0             -4642.7151      0              0             -416.59779      139522.33      51.865819      51.865819      51.865819      1.2947059      46218.913      45489.396      44490.733    
     51000   102000         483.27481      45875.15       119868.55      26803.448      11580.585      15222.863      4633.2776      4375.8362      10536.601      0             -4322.8514      0              0             -417.85653      139102.04      51.813687      51.813687      51.813687      1.2986178      46995.154      45994.073      44636.222    
     52000   104000         474.21343      45003.263      117834.54      26391.278      11363.449      15027.829      4515.4574      4427.832       10589.323      0             -4504.7833      0              0             -417.1852       139325.88      51.841465      51.841465      51.841465      1.2965314      44756.926      44737.901      45514.961    
     53000   106000         478.5205       45011.291      117871.37      26233.823      11466.659      14767.164      4411.2426      4333.1949      10596.969      0             -4574.2424      0              0             -416.37496      139597         51.87507       51.87507       51.87507       1.2940133      45461.5        44926.231      44646.141    
     54000   108000         480.6364       44632.181      117215.82      26359.866      11517.361      14842.505      4466.4335      4398.9188      10474.628      0             -4497.4753      0              0             -416.4197       139582         51.873212      51.873212      51.873212      1.2941524      44770.161      44346.478      44779.903    
     55000   110000         476.58382      42866.463      113353.78      25925.131      11420.25       14504.88       4511.613       4272.3637      10528.729      0             -4807.8249      0              0             -415.62386      139849.27      51.9063        51.9063        51.9063        1.2916791      43269.093      41341.137      43989.159    
     56000   112000         483.16729      44462.155      116948.37      26460.053      11578.008      14882.045      4491.6466      4350.9387      10556.34       0             -4516.8806      0              0             -416.51878      139548.8       51.869099      51.869099      51.869099      1.2944603      44798.43       44728.663      43859.372    
     57000   114000         484.8892       44774.41       117695.46      26497.407      11619.27       14878.137      4555.523       4342.7631      10558.299      0             -4578.4481      0              0             -416.17967      139662.5       51.883182      51.883182      51.883182      1.2934064      45657.64       43747.664      44917.925    
     58000   116000         478.1665       44725.964      117104.25      26151.465      11458.176      14693.289      4428.1443      4259.9592      10503.947      0             -4498.7613      0              0             -416.85044      139437.77      51.855338      51.855338      51.855338      1.2954911      44171.827      45567.207      44438.856    
     59000   118000         472.01297      42629.367      112689.26      25613.511      11310.72       14302.79       4393.506       4253.6823      10490.16       0             -4834.5583      0              0             -415.00015      140059.45      51.93229       51.93229       51.93229       1.2897407      42135.92       43007.356      42744.827    
     60000   120000         478.81271      43879.906      115554.16      26073.434      11473.661      14599.774      4421.4705      4335.0344      10487.267      0             -4643.9979      0              0             -415.69306      139825.99      51.90342       51.90342       51.90342       1.2918941      44711.287      43795.28       43133.15     
     61000   122000         470.92108      43056.202      113796.15      25836.031      11284.556      14551.475      4393.7677      4377.1065      10532.051      0             -4751.4493      0              0             -414.94113      140079.38      51.934752      51.934752      51.934752      1.2895573      42853.869      42792.793      43521.944    
     62000   124000         480.16222      43858.668      115588.16      26109.46       11505.999      14603.461      4389.5908      4250.9543      10675.08       0             -4712.1635      0              0             -415.50127      139890.54      51.911404      51.911404      51.911404      1.2912981      44718.646      42416.92       44440.437    
     63000   126000         477.80098      43652.484      115258.05      26199.651      11449.417      14750.234      4416.6739      4328.6312      10556.881      0             -4551.9521      0              0             -415.49964      139891.08      51.911472      51.911472      51.911472      1.291293       43300.318      43390.259      44266.876    
     64000   128000         479.29403      43979.835      115782.53      25991.427      11485.194      14506.233      4317.8578      4351.462       10562.153      0             -4725.2399      0              0             -415.19955      139992.19      51.923975      51.923975      51.923975      1.2903604      43214.128      43553.456      45171.922    
     65000   130000         481.50094      44158.253      116170.77      26047.362      11538.078      14509.284      4337.4497      4381.0614      10537.872      0             -4747.0989      0              0             -415.34678      139942.57      51.91784       51.91784       51.91784       1.290818       44589.534      43820.186      44065.038    
     66000   132000         482.99829      43045.032      114061.19      25976.376      11573.959      14402.417      4518.1301      4271.6629      10469.917      0             -4857.2923      0              0             -414.24624      140314.36      51.963776      51.963776      51.963776      1.2873977      42246.722      43165.846      43722.528    
     67000   134000         480.75656      42211.284      112183.33      25871.789      11520.241      14351.549      4415.0167      4291.3344      10509.194      0             -4863.9967      0              0             -414.56845      140205.3       51.95031       51.95031       51.95031       1.2883991      41407.17       41831.672      43395.01     
     68000   136000         473.51708      43747.856      115136.98      25919.551      11346.763      14572.788      4474.1376      4280.1662      10546.072      0             -4727.5885      0              0             -415.66517      139835.37      51.90458       51.90458       51.90458       1.2918075      44040.254      43340.332      43862.982    
     69000   138000         484.58302      42802.01       113556.83      26158.866      11611.933      14546.933      4513.1896      4300.147       10517.645      0             -4784.0486      0              0             -415.14461      140010.72      51.926266      51.926266      51.926266      1.2901896      42493.29       41452.964      44459.774    
     70000   140000         484.46316      42893.517      113757.47      25989.709      11609.061      14380.649      4479.0835      4280.8526      10435.18       0             -4814.4678      0              0             -414.2793       140303.16      51.962394      51.962394      51.962394      1.2875004      42602.662      43007.368      43070.52     
     71000   142000         476.12851      42911.16       113772.29      26107.957      11409.34       14698.617      4577.8981      4419.6092      10547.821      0             -4846.7112      0              0             -414.93865      140080.21      51.934856      51.934856      51.934856      1.2895496      42489.139      42200.046      44044.294    
     72000   144000         477.38799      43092.668      113853.58      25744.782      11439.521      14305.261      4452.746       4240.2722      10532.901      0             -4920.6579      0              0             -414.59179      140197.41      51.949335      51.949335      51.949335      1.2884716      43194.106      42386.754      43697.142    
     73000   146000         482.75202      42731.36       113344.54      25967.262      11568.057      14399.205      4500.16        4244.2831      10528.655      0             -4873.8935      0              0             -414.55749      140209.01      51.950768      51.950768      51.950768      1.288365       42493.285      42741.899      42958.898    
     74000   148000         479.16268      42000.504      111823.94      25793.018      11482.047      14310.971      4435.9976      4276.9347      10447.959      0             -4849.9202      0              0             -413.84386      140450.79      51.980612      51.980612      51.980612      1.2861472      42084.492      42536.449      41380.569    
     75000   150000         482.7825       41990.815      111863.16      25787.104      11568.788      14218.317      4383.1189      4387.242       10497.732      0             -5049.7763      0              0             -413.53142      140556.9       51.9937        51.9937        51.9937        1.2851762      41509.572      42793.489      41669.382    
     76000   152000         479.48264      42216.015      112199.7       25907.85       11489.714      14418.136      4499.441       4297.3301      10492.922      0             -4871.557       0              0             -414.70954      140157.6       51.944418      51.944418      51.944418      1.2888375      41366.408      42304.005      42977.633    
     77000   154000         484.75308      42011.229      111999.27      25896.208      11616.008      14280.2        4359.2398      4204.3113      10612.543      0             -4895.8947      0              0             -413.60272      140532.67      51.990712      51.990712      51.990712      1.2853978      41005          41969.89       43058.799    
     78000   156000         482.95104      41438.601      110943.8       25965.814      11572.826      14392.987      4377.7103      4277.3486      10644.334      0             -4906.4059      0              0             -413.36645      140613         52.000616      52.000616      52.000616      1.2846635      41011.087      42434.329      40870.387    
     79000   158000         484.51423      42745.64       113476.22      25896.136      11610.285      14285.852      4389.734       4353.7936      10521.318      0             -4978.9937      0              0             -413.73573      140487.49      51.98514       51.98514       51.98514       1.2858111      43566.182      41672.938      42997.798    
     80000   160000         476.73436      43153.246      114085.62      25769.264      11423.858      14345.407      4467.0628      4274.0923      10474.736      0             -4870.4843      0              0             -414.19889      140330.4       51.965756      51.965756      51.965756      1.2872505      42875.296      44096.613      42487.83     
     81000   162000         486.05907      42338.952      112814.08      26095.893      11647.303      14448.59       4548.9881      4302.4432      10541.777      0             -4944.6186      0              0             -413.87243      140441.09      51.979416      51.979416      51.979416      1.286236       43596.136      41190.626      42230.093    
     82000   164000         475.68909      42506.809      113021.77      25891.307      11398.81       14492.496      4424.4846      4354.4446      10641.172      0             -4927.6052      0              0             -413.54718      140551.54      51.993039      51.993039      51.993039      1.2852251      42411.017      42940.355      42169.056    
     83000   166000         478.14767      41379.263      110401.46      25443.459      11457.724      13985.734      4257.802       4216.5332      10592.955      0             -5081.5562      0              0             -412.87163      140781.52      52.021382      52.021382      52.021382      1.2831257      41516.724      41829.444      40791.62     
     84000   168000         485.48922      41478.902      110803.46      25675.965      11633.648      14042.317      4276.7336      4230.5776      10545.515      0             -5010.5089      0              0             -413.04179      140723.52      52.014237      52.014237      52.014237      1.2836545      41724.904      40362.883      42348.919    
     85000   170000         488.43097      42480.912      112959.84      25786.109      11704.14       14081.969      4436.6825      4203.3356      10466.245      0             -5024.2942      0              0             -413.09007      140707.07      52.01221       52.01221       52.01221       1.2838045      42328.216      41857.431      43257.09     
     86000   172000         483.00469      42025.275      111868.18      25584.632      11574.112      14010.52       4384.3111      4329.3481      10441.219      0             -5144.3576      0              0             -412.87555      140780.18      52.021217      52.021217      52.021217      1.2831379      42479.175      41609.965      41986.684    
     87000   174000         479.69655      41274.612      110501.39      25568.03       11494.84       14073.19       4301.6896      4313.3981      10527.961      0             -5069.8584      0              0             -411.94693      141097.53      52.060277      52.060277      52.060277      1.2802519      40879.455      40740.634      42203.748    
     88000   176000         473.70201      41139.217      109757.95      25334.065      11351.194      13982.87       4290.2312      4165.1755      10561.26       0             -5033.7965      0              0             -413.07342      140712.74      52.012909      52.012909      52.012909      1.2837528      41301.085      41277.637      40838.928    
     89000   178000         481.26981      41302.629      110575.29      25672.113      11532.539      14139.574      4506.1023      4206.9975      10553.824      0             -5127.3496      0              0             -412.37312      140951.71      52.042336      52.042336      52.042336      1.2815764      40593.982      41477.841      41836.063    
     90000   180000         488.18276      40814.23       109708.88      25645.61       11698.193      13947.418      4437.3317      4200.947       10580.181      0             -5271.0421      0              0             -411.56827      141227.35      52.076238      52.076238      52.076238      1.2790751      41070.435      40874.706      40497.549    
     91000   182000         482.28786      41226.513      110479.52      25583.445      11556.935      14026.511      4474.9821      4243.5674      10457.118      0             -5149.157       0              0             -411.64759      141200.13      52.072893      52.072893      52.072893      1.2793216      39446.502      42203.672      42029.366    
     92000   184000         481.83116      40590.866      109021.47      25453.287      11545.991      13907.296      4328.2127      4172.4346      10514.901      0             -5108.2517      0              0             -411.74084      141168.15      52.068961      52.068961      52.068961      1.2796114      39666.105      40788.994      41317.499    
     93000   186000         478.05809      39506.97       106733.4       25334.566      11455.578      13878.988      4380.0809      4261.6197      10581.728      0             -5344.4406      0              0             -411.42635      141276.06      52.082225      52.082225      52.082225      1.278634       39607.799      39793.451      39119.661    
     94000   188000         471.52908      40492.528      108620.42      25111.564      11299.125      13812.439      4347.2806      4117.1811      10452.96       0             -5104.9822      0              0             -411.03511      141410.53      52.098744      52.098744      52.098744      1.2774181      39440.389      41207.871      40829.323    
     95000   190000         474.57788      40874.973      109592.21      25574.152      11372.183      14201.97       4424.4724      4220.0661      10608.613      0             -5051.1821      0              0             -412.40263      140941.62      52.041094      52.041094      52.041094      1.2816681      40070.597      41497.526      41056.795    
     96000   192000         482.89045      40147.114      108014.72      25115.439      11571.374      13544.065      4222.8046      4165.825       10510.989      0             -5355.5537      0              0             -410.52549      141586.08      52.120294      52.120294      52.120294      1.2758343      41250.461      39209.845      39981.036    
     97000   194000         473.18373      41050.584      109967.04      25343.796      11338.775      14005.022      4342.9291      4197.9965      10566.99       0             -5102.8943      0              0             -411.21243      141349.56      52.091255      52.091255      52.091255      1.2779692      40593.977      41486.387      41071.386    
     98000   196000         474.57327      40447.922      108472.69      25044.815      11372.072      13672.743      4337.1111      4182.6307      10470.439      0             -5317.4375      0              0             -410.9809       141429.19      52.101035      52.101035      52.101035      1.2772496      40269.83       40355.873      40718.065    
     99000   198000         476.10727      39459.334      106612.5       25076.459      11408.831      13667.628      4329.0194      4214.3384      10522.891      0             -5398.6212      0              0             -410.23879      141685.03      52.132432      52.132432      52.132432      1.2749433      38836.461      39761.858      39779.683    
    100000   200000         473.81989      39034.322      105551.85      24893.614      11354.019      13539.595      4306.501       4245.2157      10531.859      0             -5543.9801      0              0             -410.23667      141685.76      52.132522      52.132522      52.132522      1.2749367      38324.204      39677.431      39101.331    
    101000   202000         480.87703      38909.985      105573.13      25197.579      11523.127      13674.452      4279.3654      4314.7883      10544.703      0             -5464.4046      0              0             -410.36817      141640.36      52.126953      52.126953      52.126953      1.2753454      39015.594      38311.158      39403.203    
    102000   204000         482.63845      39519.869      106783.68      25306.132      11565.336      13740.796      4315.5988      4199.3257      10486.139      0             -5260.2678      0              0             -411.1631       141366.52      52.093338      52.093338      52.093338      1.2778159      38811.377      39989.735      39758.497    
    103000   206000         475.75513      40061.665      107744.26      25032.028      11400.393      13631.635      4267.3458      4228.7857      10522.516      0             -5387.0117      0              0             -410.57814      141567.92      52.118065      52.118065      52.118065      1.2759979      39821.712      40492.645      39870.639    
    104000   208000         483.67443      39139.626      106133.64      25244.781      11590.161      13654.62       4268.3214      4230.9376      10447.939      0             -5292.5778      0              0             -410.17063      141708.57      52.13532       52.13532       52.13532       1.2747315      39037.328      38574.117      39807.435    
    105000   210000         480.38396      39265.251      106576.8       25434.721      11511.312      13923.409      4405.7346      4320.2227      10549.73       0             -5352.2783      0              0             -410.20302      141697.39      52.133948      52.133948      52.133948      1.2748321      39336.423      38893.488      39565.843    
    106000   212000         478.91387      40989.903      109951.59      25365.961      11476.085      13889.877      4477.4868      4179.9733      10481.098      0             -5248.6813      0              0             -410.7872       141495.88      52.109223      52.109223      52.109223      1.2766476      41078.844      40987.185      40903.681    
    107000   214000         478.82324      40088.588      108184.63      25370.013      11473.913      13896.1        4357.6764      4361.1864      10525.934      0             -5348.6967      0              0             -410.34612      141647.97      52.127887      52.127887      52.127887      1.2752769      40150.438      39323.23       40792.096    
    108000   216000         482.17229      39336.537      106552.03      25345.375      11554.165      13791.21       4305.5648      4186.0159      10565.105      0             -5265.4755      0              0             -410.62094      141553.17      52.116255      52.116255      52.116255      1.276131       39998.8        38160.225      39850.586    
    109000   218000         488.83848      38997.617      106001.99      25172.491      11713.906      13458.586      4310.4263      4134.6619      10446.213      0             -5432.7149      0              0             -408.98254      142120.23      52.185755      52.185755      52.185755      1.2710391      38581.744      38236.043      40175.063    
    110000   220000         482.31514      36804.702      101602.94      25133.011      11557.589      13575.423      4212.3264      4339.0367      10546.337      0             -5522.2776      0              0             -407.98969      142466.09      52.228052      52.228052      52.228052      1.2679535      36451.478      36358.971      37603.657    
    111000   222000         487.04447      39318.073      106945.21      25396.523      11670.916      13725.607      4363.6102      4299.4983      10584.332      0             -5521.8332      0              0             -408.70679      142216.12      52.197489      52.197489      52.197489      1.2701821      38544.845      39668.805      39740.569    
    112000   224000         483.38925      38386.783      104810.75      25178.574      11583.327      13595.247      4339.0545      4198.589       10570.219      0             -5512.6163      0              0             -408.62947      142243.03      52.200781      52.200781      52.200781      1.2699418      39191.38       37857.055      38111.914    
    113000   226000         471.79453      37815.568      103380.34      24618.188      11305.486      13312.702      4270.654       4196.1998      10516.198      0             -5670.3501      0              0             -406.9955       142814.1       52.270545      52.270545      52.270545      1.2648638      38429.599      37639.56       37377.545    
    114000   228000         486.76569      38489.339      105213.4       25333.059      11664.236      13668.824      4425.6087      4179.4611      10592.49       0             -5528.7357      0              0             -408.44835      142306.11      52.208496      52.208496      52.208496      1.269379       38628.535      38110.994      38728.488    
    115000   230000         471.33598      38092.023      103908.12      24832.848      11294.498      13538.35       4354.4421      4278.3849      10505.173      0             -5599.6499      0              0             -408.34751      142341.25      52.212793      52.212793      52.212793      1.2690656      38446.156      38000.351      37829.561    
    116000   232000         478.91848      37610.189      103179.45      24930.895      11476.195      13454.7        4297.6543      4182.4193      10547.105      0             -5572.4787      0              0             -407.44199      142657.6       52.251445      52.251445      52.251445      1.2662514      38323.851      36768.742      37737.974    
    117000   234000         485.49643      38610.411      105355.97      25166.863      11633.821      13533.043      4333.0337      4151.3459      10550.1        0             -5501.4371      0              0             -408.15547      142408.22      52.22098       52.22098       52.22098       1.2684687      38638.107      38725.42       38467.705    
    118000   236000         489.66348      37636.1        103498.68      25266.538      11733.675      13532.864      4318.3339      4143.7639      10573.674      0             -5502.9079      0              0             -407.80819      142529.49      52.2358        52.2358        52.2358        1.2673895      37238.67       37570.852      38098.778    
    119000   238000         485.83259      38174.041      104139.42      24910.229      11641.876      13268.353      4272.3639      4204.4113      10446.158      0             -5654.5808      0              0             -408.43175      142311.89      52.209203      52.209203      52.209203      1.2693274      38674.085      37816.202      38031.837    
    120000   240000         473.92137      39100.78       106108.68      24881.327      11356.451      13524.876      4419.7425      4264.3908      10459.222      0             -5618.4794      0              0             -408.05593      142442.96      52.225226      52.225226      52.225226      1.2681594      39628.77       37930.136      39743.434    
    121000   242000         485.63654      38895.706      105899.06      25266.137      11637.178      13628.958      4327.5996      4242.2498      10460.061      0             -5400.9525      0              0             -408.9082       142146.07      52.188917      52.188917      52.188917      1.2708081      37366.292      39262.16       40058.664    
    122000   244000         474.72958      37856.075      103539.62      24921.046      11375.818      13545.228      4344.8463      4306.5013      10591.257      0             -5697.3766      0              0             -408.17555      142401.22      52.220124      52.220124      52.220124      1.2685311      37360.645      38325.522      37882.058    
    123000   246000         485.10989      37590.512      103197.2       24944.023      11624.558      13319.465      4267.039       4196.7299      10548.667      0             -5692.9714      0              0             -407.20476      142740.7       52.261589      52.261589      52.261589      1.2655141      38271.271      36650.643      37849.622    
    124000   248000         481.93319      37733.984      103413.49      24940.711      11548.436      13392.275      4271.3421      4358.2005      10453.37       0             -5690.6371      0              0             -407.61505      142597.03      52.244049      52.244049      52.244049      1.2667892      37267.568      37917.146      38017.238    
    125000   250000         483.87057      37119.446      102204.94      25020.332      11594.861      13425.471      4241.2369      4265.9264      10539.66       0             -5621.3527      0              0             -407.66866      142578.28      52.241758      52.241758      52.241758      1.2669558      36510.545      37187.611      37660.18     
    126000   252000         489.59563      37760.918      103846.02      25204.746      11732.049      13472.697      4379.8282      4182.8549      10552.913      0             -5642.8997      0              0             -407.03202      142801.28      52.268981      52.268981      52.268981      1.2649773      37425.495      37764.665      38092.595    
    127000   254000         483.89336      37486.54       103053.93      24880.952      11595.407      13285.545      4294.0633      4213.5416      10539.505      0             -5761.5646      0              0             -406.49506      142989.92      52.291986      52.291986      52.291986      1.2633085      38251.653      37176.672      37031.294    
    128000   256000         476.37351      37615.352      103272.27      24914.917      11415.211      13499.706      4391.2648      4378.8513      10484.422      0             -5754.8312      0              0             -406.9321       142836.35      52.273259      52.273259      52.273259      1.2646667      38602.8        36257.432      37985.822    
    129000   258000         479.3073       37801.382      103547.88      24687.85       11485.512      13202.337      4252.593       4257.2706      10547.028      0             -5854.5546      0              0             -406.33786      143045.23      52.298729      52.298729      52.298729      1.26282        36765.816      38971.318      37667.013    
    130000   260000         476.9894       36732.747      101451.14      24817.69       11429.969      13387.721      4325.9846      4230.7873      10508.452      0             -5677.5033      0              0             -406.32318      143050.4       52.299359      52.299359      52.299359      1.2627743      37249.506      36338.509      36610.227    
    131000   262000         486.67686      37338.435      102666.32      24784.254      11662.107      13122.147      4185.2113      4201.5047      10479.784      0             -5744.3538      0              0             -406.40144      143022.86      52.296001      52.296001      52.296001      1.2630175      37558.69       37550.522      36906.093    
    132000   264000         478.42638      37043.291      101897.36      24464.912      11464.403      13000.509      4194.9537      4178.8297      10463.866      0             -5837.1407      0              0             -405.53015      143330.14      52.333427      52.333427      52.333427      1.2603098      36305.498      37476.56       37347.814    
    133000   266000         480.04505      36880.336      101730.03      24672.536      11503.191      13169.345      4292.5508      4265.2806      10536.169      0             -5924.6551      0              0             -405.71082      143266.32      52.325658      52.325658      52.325658      1.2608712      37113.901      36816.722      36710.386    
    134000   268000         485.61133      36484.296      101056.14      24826.39       11636.574      13189.816      4286.2317      4240.203       10439.192      0             -5775.811       0              0             -405.71218      143265.84      52.3256        52.3256        52.3256        1.2608755      36112.808      36946.604      36393.476    
    135000   270000         476.45858      36514.457      101060.4       24644.29       11417.249      13227.041      4313.471       4301.6974      10486.346      0             -5874.4734      0              0             -405.05735      143497.44      52.353781      52.353781      52.353781      1.2588404      36428.702      36461.461      36653.207    
    136000   272000         479.48351      36535.702      100980.03      24626.323      11489.735      13136.589      4299.6691      4244.369       10520.19       0             -5927.6393      0              0             -405.62423      143296.9       52.329381      52.329381      52.329381      1.2606021      36797.614      36355.055      36454.438    
    137000   274000         477.55245      37321.549      102578.27      24774.21       11443.461      13330.748      4348.2941      4258.6634      10482.386      0             -5758.5954      0              0             -406.62489      142944.26      52.28642       52.28642       52.28642       1.263712       37495.423      37500.607      36968.618    
    138000   276000         475.13283      35820.622      99435.39       24508.813      11385.481      13123.332      4265.0046      4230.0803      10559.461      0             -5931.2137      0              0             -405.26006      143425.67      52.345051      52.345051      52.345051      1.2594704      35621.089      35620.01       36220.768    
    139000   278000         480.73736      36074.281      99967.599      24389.933      11519.78       12870.153      4182.3715      4195.7192      10435.604      0             -5943.5417      0              0             -404.61389      143654.72      52.372901      52.372901      52.372901      1.2574622      35265.447      36553.683      36403.714    
    140000   280000         478.41258      35918.111      99813.803      24609.771      11464.072      13145.699      4357.3782      4243.9863      10476.929      0             -5932.595       0              0             -404.86378      143566.05      52.362124      52.362124      52.362124      1.2582388      36167.739      34918.281      36668.312    
    141000   282000         473.27999      35238.691      98359.014      24680.668      11341.082      13339.586      4242.0472      4297.235       10620.836      0             -5820.5315      0              0             -405.43055      143365.36      52.337713      52.337713      52.337713      1.2600002      35127.204      34298.41       36290.458    
    142000   284000         481.56208      35248.105      98460.946      24455.967      11539.543      12916.424      4314.8718      4159.2634      10503.987      0             -6061.6982      0              0             -403.74895      143962.47      52.410273      52.410273      52.410273      1.2547741      36268.636      34836.601      34639.078    
    143000   286000         476.14392      36123.538      100046.01      24463.62       11409.709      13053.91       4254.7531      4239.7918      10454.381      0             -5895.0159      0              0             -405.14103      143467.81      52.350177      52.350177      52.350177      1.2591005      36701.2        35880.863      35788.549    
    144000   288000         477.06858      35940.477      99927.216      24528.208      11431.866      13096.341      4284.3312      4285.9994      10528.108      0             -6002.0973      0              0             -404.0683       143848.69      52.396463      52.396463      52.396463      1.2557666      35603.384      35809.914      36408.132    
    145000   290000         475.16808      35177.884      98232.106      24336.125      11386.325      12949.8        4263.5206      4140.3512      10470.703      0             -5924.7752      0              0             -403.53896      144037.38      52.419363      52.419363      52.419363      1.2541215      35753.173      34850.005      34930.473    
    146000   292000         477.72189      33804.206      95238.579      24085.626      11447.522      12638.104      4257.1156      4144.9365      10360.639      0             -6124.5867      0              0             -402.73037      144326.57      52.454421      52.454421      52.454421      1.2516086      34616.661      33485.955      33310.003    
    147000   294000         482.74702      35027.535      97897.222      24401.185      11567.937      12833.248      4202.1361      4157.1344      10471.21       0             -5997.2326      0              0             -404.0008       143872.72      52.399381      52.399381      52.399381      1.2555568      34986.058      35825.26       34271.287    
    148000   296000         484.12308      34709.69       97239.695      24316.741      11600.912      12715.829      4163.9879      4193.2702      10380.062      0             -6021.4911      0              0             -403.48097      144058.08      52.421874      52.421874      52.421874      1.2539413      34557.381      34962.212      34609.476    
    149000   298000         483.18858      35353.201      98750.198      24565.148      11578.519      12986.63       4259.1212      4217.6735      10473.768      0             -5963.9334      0              0             -403.96983      143883.75      52.40072       52.40072       52.40072       1.2554606      35171.984      35006.11       35881.51     
    150000   300000         474.67676      35225.499      98156.714      24132.543      11374.552      12757.991      4334.1661      4147.2507      10419.672      0             -6143.0977      0              0             -403.3854       144092.21      52.426014      52.426014      52.426014      1.2536443      35091.243      34381.584      36203.669    
    151000   302000         481.1108       35286.039      98611.147      24450.735      11528.729      12922.005      4310.659       4233.0401      10409.885      0             -6031.5792      0              0             -403.33633      144109.74      52.42814       52.42814       52.42814       1.2534918      35033.797      34564.914      36259.405    
    152000   304000         479.97118      35418.507      98733.55       24297.838      11501.421      12796.417      4280.7228      4104.1219      10438.387      0             -6026.8142      0              0             -403.35317      144103.72      52.42741       52.42741       52.42741       1.2535441      35643.39       34874.77       35737.361    
    153000   306000         479.45102      34238.326      96379.994      24333.388      11488.956      12844.432      4298.3426      4130.6836      10560.874      0             -6145.4686      0              0             -402.84277      144286.3       52.449542      52.449542      52.449542      1.2519579      34080.816      34283.669      34350.493    
    154000   308000         478.51174      34034.22       95568.733      24009.677      11466.449      12543.229      4160.6648      4115.0455      10383.743      0             -6116.2249      0              0             -403.16959      144169.34      52.435366      52.435366      52.435366      1.2529736      34261.575      34847.946      32993.137    
    155000   310000         470.68416      35258.939      98365.141      24120.504      11278.878      12841.626      4459.349       4131.7702      10457.155      0             -6206.649       0              0             -402.56937      144384.3       52.461413      52.461413      52.461413      1.2511082      36171.075      34771.416      34834.326    
    156000   312000         478.31028      35210.997      98446.49       24403.863      11461.621      12942.241      4284.7548      4195.4755      10497.149      0             -6035.1376      0              0             -403.11882      144187.5       52.437567      52.437567      52.437567      1.2528158      34932.364      35040.655      35659.973    
    157000   314000         482.61947      33352.526      94718.31       24312.582      11564.881      12747.701      4293.8521      4169.0076      10516.36       0             -6231.5192      0              0             -401.56634      144744.94      52.505056      52.505056      52.505056      1.247991       32819.975      33310.743      33926.859    
    158000   316000         479.69945      33595.315      94710.65       23890.995      11494.909      12396.085      4137.5715      4093.7454      10368.264      0             -6203.4952      0              0             -402.12538      144543.71      52.480714      52.480714      52.480714      1.2497284      33718.782      32785.414      34281.75     
    159000   318000         476.84802      33671.327      94931.833      23938.268      11426.581      12511.687      4298.476       4093.3845      10394.195      0             -6274.3693      0              0             -402.04793      144571.56      52.484084      52.484084      52.484084      1.2494877      33478.009      34462.657      33073.315    
    160000   320000         483.32079      33088.071      94034.443      24169.52       11581.687      12587.834      4233.0871      4173.216       10452.871      0             -6271.3407      0              0             -401.46606      144781.09      52.509427      52.509427      52.509427      1.2476793      33398.857      33098.758      32766.598    
    161000   322000         478.63349      33506.876      94852.118      24305.421      11469.366      12836.055      4328.9879      4187.1982      10471.572      0             -6151.7033      0              0             -402.6186       144366.64      52.459275      52.459275      52.459275      1.2512612      33470.882      32341.305      34708.441    
    162000   324000         480.07137      34888.45       97709.212      24241.67       11503.822      12737.848      4295.9774      4087.5997      10452.756      0             -6098.4849      0              0             -402.5527       144390.27      52.462137      52.462137      52.462137      1.2510564      35399.026      33864.524      35401.802    
    163000   326000         490.12775      33450.731      94933.101      24282.237      11744.8        12537.437      4209.253       4170.6483      10393.288      0             -6235.7524      0              0             -401.35133      144822.48      52.51443       52.51443       52.51443       1.2473228      33473.029      32938.357      33940.806    
    164000   328000         475.87775      32636.428      92765.301      23734.827      11403.331      12331.496      4210.2728      4073.724       10417.97       0             -6370.4713      0              0             -400.77289      145031.5       52.539683      52.539683      52.539683      1.2455251      32484.018      32470.013      32955.252    
    165000   330000         471.23281      33526.825      94484.041      23601.922      11292.026      12309.896      4229.612       4005.2183      10347.163      0             -6272.0975      0              0             -400.95193      144966.74      52.531862      52.531862      52.531862      1.2460815      34044.088      32624.12       33912.267    
    166000   332000         475.00245      34092.874      96039.124      24069.33       11382.356      12686.974      4303.9489      4139.5798      10430.924      0             -6187.4787      0              0             -401.55952      144747.39      52.505353      52.505353      52.505353      1.2479698      34595.313      33878.535      33804.774    
    167000   334000         490.441        33104.384      94416.386      24239.024      11752.306      12486.718      4287.8912      4210.066       10403.712      0             -6414.9511      0              0             -399.87574      145356.89      52.578946      52.578946      52.578946      1.2427369      32920.684      32987.011      33405.457    
    168000   336000         476.44662      32824.834      93387.851      23866.976      11416.963      12450.013      4227.2449      4127.9974      10502.831      0             -6408.0604      0              0             -400.24313      145223.47      52.562853      52.562853      52.562853      1.2438787      32813.647      32693.435      32967.42     
    169000   338000         474.28702      32996.262      93643.708      23699.163      11365.213      12333.95       4221.1444      4116.432       10421.919      0             -6425.545       0              0             -399.89637      145349.39      52.578042      52.578042      52.578042      1.2428011      33462.452      32484.747      33041.586    
    170000   340000         476.81526      33344.471      94408.645      23678.772      11425.796      12252.976      4211.1897      4106.3848      10428.711      0             -6493.31        0              0             -399.62949      145446.46      52.589743      52.589743      52.589743      1.2419716      33988.616      33859.988      32184.809    
    171000   342000         483.21583      31895.009      91607.197      23869.379      11579.171      12290.208      4197.4478      4070.0342      10482.519      0             -6459.7939      0              0             -399.14261      145623.88      52.611118      52.611118      52.611118      1.2404585      31670.466      32457.941      31556.619    
    172000   344000         476.48523      33066.615      93844.637      23719.008      11417.888      12301.12       4096.8681      4147.292       10476.911      0             -6419.9505      0              0             -399.71417      145415.65      52.586029      52.586029      52.586029      1.2422348      32121.882      34447.384      32630.579    
    173000   346000         481.98552      32831.586      93620.48       23968.484      11549.69       12418.794      4257.4289      4118.0393      10466.773      0             -6423.4476      0              0             -399.57183      145467.45      52.592273      52.592273      52.592273      1.2417925      32870.568      32348.79       33275.401    
    174000   348000         484.8152       32848.182      93665.571      23989.792      11617.497      12372.296      4260.8406      4089.6924      10489.374      0             -6467.6117      0              0             -399.63736      145443.6       52.589398      52.589398      52.589398      1.2419961      33364.708      32531.734      32648.104    
    175000   350000         482.06714      32939.561      93718.135      23801.687      11551.646      12250.041      4127.0887      4117.3642      10498.547      0             -6492.9587      0              0             -399.36962      145541.1       52.601148      52.601148      52.601148      1.241164       32543.54       32850.425      33424.717    
    176000   352000         482.76982      31611.022      91003.118      23747.746      11568.484      12179.262      4156.3416      4066.7483      10528.626      0             -6572.4543      0              0             -398.42643      145885.64      52.642623      52.642623      52.642623      1.2382327      31809.913      31248.025      31775.128    
    177000   354000         482.51024      31564.041      90745.06       23762.221      11562.264      12199.957      4049.8834      4154.435       10465.632      0             -6469.9937      0              0             -399.45295      145510.74      52.59749       52.59749       52.59749       1.241423       31290.557      31479.986      31921.581    
    178000   356000         479.26909      33087.379      94123.359      23758.729      11484.597      12274.132      4234.045       4250.9209      10532.435      0             -6743.2688      0              0             -398.60664      145819.68      52.634688      52.634688      52.634688      1.2387928      33922.044      32792.422      32547.671    
    179000   358000         482.28925      32567.016      93036.367      23865.22       11556.968      12308.252      4159.3265      4169.4903      10434.995      0             -6455.56        0              0             -399.1072       145636.8       52.612674      52.612674      52.612674      1.2403485      32396.369      32353.091      32951.589    
    180000   360000         479.25971      32303.803      92259.001      23618.659      11484.372      12134.287      4144.6785      4065.2487      10466.382      0             -6542.0224      0              0             -398.94295      145696.76      52.619893      52.619893      52.619893      1.239838       32040.434      32010.872      32860.104    
    181000   362000         491.19342      32351.45       92885.421      24052.287      11770.336      12281.951      4276.38        4150.0876      10419.215      0             -6563.7325      0              0             -398.41234      145890.8       52.643243      52.643243      52.643243      1.238189       32281.523      32020.559      32752.27     
    182000   364000         484.69045      31273.511      90531.672      24041.343      11614.507      12426.836      4209.0311      4195.8854      10440.534      0             -6418.6144      0              0             -398.7078       145782.69      52.630236      52.630236      52.630236      1.2391072      31256.425      31075.116      31488.991    
    183000   366000         479.05502      31221.599      90045.691      23529.293      11479.467      12049.826      4088.6671      4093.2754      10375.36       0             -6507.4772      0              0             -397.88997      146082.33      52.66627       52.66627       52.66627       1.2365655      30913.182      31562.644      31188.969    
    184000   368000         483.43027      32341.483      92677.902      23957.297      11584.31       12372.987      4314.9521      4157.0277      10404.595      0             -6503.5872      0              0             -398.94179      145697.18      52.619944      52.619944      52.619944      1.2398344      32633.066      31397.124      32994.258    
    185000   370000         480.66625      32043.163      91718.671      23427.452      11518.076      11909.375      4132.9076      4139.1282      10316.709      0             -6679.3689      0              0             -397.74716      146134.78      52.672573      52.672573      52.672573      1.2361217      31288.622      32188.219      32652.649    
    186000   372000         477.29629      32512.915      92877.231      23727.167      11437.323      12289.844      4262.9634      4110.6198      10374.003      0             -6457.7428      0              0             -398.56568      145834.67      52.636491      52.636491      52.636491      1.2386655      32492.613      32702.456      32343.678    
    187000   374000         477.83547      31391.685      90368.803      23627.531      11450.243      12177.288      4283.3752      4001.2628      10474.03       0             -6581.3804      0              0             -398.70964      145782.02      52.630155      52.630155      52.630155      1.2391129      31470.514      31147.706      31556.836    
    188000   376000         478.58433      30851.408      89186.429      23428.953      11468.188      11960.765      4148.2441      4064.5485      10400.248      0             -6652.2757      0              0             -397.70992      146148.46      52.674217      52.674217      52.674217      1.236006       31012.393      30341.052      31200.778    
    189000   378000         485.4011       31235.757      90162.463      23583.52       11631.536      11951.983      4197.0453      4062.7498      10449.115      0             -6756.9271      0              0             -397.69644      146153.42      52.674812      52.674812      52.674812      1.2359641      30616.386      31560.877      31530.007    
    190000   380000         482.08981      31540.787      90840.828      23479.427      11552.189      11927.238      4211.0457      4136.1671      10369.527      0             -6789.5015      0              0             -396.91543      146441.01      52.709339      52.709339      52.709339      1.2335369      30799.798      32519.44       31303.122    
    191000   382000         475.94073      30094.442      87694.181      23320.588      11404.84       11915.748      4192.0184      4104.8541      10426.115      0             -6807.2394      0              0             -396.29183      146671.44      52.736972      52.736972      52.736972      1.2315988      29560.829      30766.585      29955.911    
    192000   384000         482.95132      30689.294      89109.354      23424.721      11572.833      11851.888      4198.6786      4056.4434      10429.476      0             -6832.7101      0              0             -396.05883      146757.73      52.747312      52.747312      52.747312      1.2308747      30441.682      30846.494      30779.705    
    193000   386000         482.21972      31244.786      90161.322      23510.555      11555.302      11955.253      4149.7593      4068.6178      10460.395      0             -6723.5185      0              0             -397.38271      146268.81      52.68867       52.68867       52.68867       1.2349891      30485.952      31798.16       31450.245    
    194000   388000         480.6932       30129.879      87873.178      23240.141      11518.722      11721.419      4146.0038      4025.6671      10387.735      0             -6837.9869      0              0             -395.16584      147089.37      52.787014      52.787014      52.787014      1.2280995      30417.899      30201.294      29770.443    
    195000   390000         481.01107      30814.183      89308.673      23478.538      11526.339      11952.199      4083.6966      4086.5824      10514.274      0             -6732.3542      0              0             -396.79162      146486.7       52.71482       52.71482       52.71482       1.2331521      31259.241      30130.501      31052.808    
    196000   392000         481.14366      30266.005      88069.985      23288.972      11529.516      11759.456      4190.0705      3987.6902      10386.218      0             -6804.5233      0              0             -396.04446      146763.05      52.747949      52.747949      52.747949      1.2308301      30622.121      30568.633      29607.261    
    197000   394000         483.32284      29542.567      86650.7        23360.007      11581.736      11778.272      4127.2749      4078.0399      10434.666      0             -6861.7087      0              0             -395.68078      146897.95      52.764105      52.764105      52.764105      1.2296998      30023.651      29415.992      29188.06     
    198000   396000         475.92725      29036.08       85533.821      23311.844      11404.517      11907.327      4209.5893      4144.3419      10434.855      0             -6881.4593      0              0             -395.57674      146936.58      52.768731      52.768731      52.768731      1.2293765      29261.115      28993.301      28853.823    
    199000   398000         481.64236      31297.842      90585.554      23529.69       11541.467      11988.223      4283.9659      4110.6843      10458.095      0             -6864.5216      0              0             -395.65276      146908.35      52.765351      52.765351      52.765351      1.2296127      31708.511      30732.086      31452.928    
[...]
    458000   916000         482.59598      3397.8934      29451.351      20336.708      11564.318      8772.3899      3981.9974      3738.3505      10200.244      0             -9148.2024      0              0             -316.01424      183930.62      56.87019       56.87019       56.87019       0.9821115      3949.979       3313.1973      2930.504     
    459000   918000         476.73019      4685.648       33000.551      20402.133      11423.758      8978.3749      3972.0239      3739.4875      10201.738      0             -8934.8749      0              0             -315.27548      184361.61      56.914575      56.914575      56.914575      0.97981558     4406.0881      4607.1694      5043.6863    
    460000   920000         477.16194      3734.0922      30434.941      20289.824      11434.104      8855.72        3910.4498      3693.4545      10196.037      0             -8944.2218      0              0             -312.00715      186292.83      57.112615      57.112615      57.112615      0.96965825     3396.3217      3684.6373      4121.3177    
    461000   922000         480.63044      4058.1629      31572.633      20547.916      11517.218      9030.6974      4008.46        3832.8239      10152.243      0             -8962.8293      0              0             -312.03161      186278.22      57.111123      57.111123      57.111123      0.96973427     4918.2713      3890.8222      3365.3952    
    462000   924000         478.66189      4037.9889      31347.544      20322.192      11470.047      8852.1458      3866.3341      3809.793       10156.374      0             -8980.3554      0              0             -310.46258      187219.65      57.207171      57.207171      57.207171      0.96485803     3709.969       3967.3945      4436.6033    
    463000   926000         484.21398      3436.4194      29860.349      20463.772      11603.09       8860.6826      3892.4398      3705.9636      10209.012      0             -8946.7333      0              0             -310.00813      187494.1       57.235111      57.235111      57.235111      0.96344569     3807.1754      3692.3903      2809.6925    
    464000   928000         488.9992       4231.2673      32316.289      20772.176      11717.757      9054.4192      4045.4577      3910.351       10106.333      0             -9007.7227      0              0             -310.70373      187074.34      57.192367      57.192367      57.192367      0.96560748     3829.0422      4609.5135      4255.2461    
    465000   930000         475.49206      3640.243       30373.287      20430.513      11394.089      9036.4242      3933.1213      3950.1742      10167.207      0             -9014.0783      0              0             -310.35547      187284.26      57.213752      57.213752      57.213752      0.96452515     4207.1642      3060.1003      3653.4646    
    466000   932000         483.05995      3596.0477      30230.103      20384.452      11575.436      8809.0154      3832.0881      3792.4742      10141.661      0             -8957.2079      0              0             -309.61185      187734.08      57.25952       57.25952       57.25952       0.96221412     3459.1302      3320.3453      4008.6676    
    467000   934000         477.05046      3570.592       30291.927      20442.436      11431.432      9011.004       3879.41        3843.3681      10181.08       0             -8892.8538      0              0             -307.30035      189146.21      57.40273       57.40273       57.40273       0.9550304      3542.2202      2856.855       4312.701     
    468000   936000         475.7727       3324.175       29646.552      20458.105      11400.814      9057.2914      3904.6754      3795.7525      10225.284      0             -8868.4203      0              0             -306.67497      189531.92      57.441722      57.441722      57.441722      0.95308684     3095.8042      4051.3593      2825.3616    
    469000   938000         482.25907      2969.4925      28800.884      20578.015      11556.245      9021.7702      3857.4677      3859.6961      10138.692      0             -8834.0854      0              0             -306.12264      189873.88      57.476248      57.476248      57.476248      0.95137032     3063.216       3358.4345      2486.8269    
    470000   940000         478.16443      3665.8269      30595.693      20384.296      11458.126      8926.1704      3887.1277      3743.8943      10136.069      0             -8840.9209      0              0             -304.31501      191001.74      57.589827      57.589827      57.589827      0.94575254     3801.5309      3838.2042      3357.7456    
    471000   942000         478.28148      1973.5687      26034.928      20533.142      11460.931      9072.2113      3970.8443      3759.3736      10139.842      0             -8797.8486      0              0             -304.07809      191150.55      57.60478       57.60478       57.60478       0.94501624     1937.1315      1670.8562      2312.7184    
    472000   944000         478.47508      2009.983       26077.722      20448.136      11465.57       8982.5655      3860.8499      3807.8301      10123.677      0             -8809.7918      0              0             -302.6582       192047.31      57.694721      57.694721      57.694721      0.94060352     1247.1497      1724.463       3058.3361    
    473000   946000         476.9209       2041.1661      26192.861      20451.982      11428.328      9023.6544      3853.3799      3799.0976      10161.101      0             -8789.9243      0              0             -301.39532      192852.02      57.775192      57.775192      57.775192      0.93667871     1409.6341      1873.6836      2840.1805    
    474000   948000         482.24743      2987.5412      28929.684      20544.542      11555.966      8988.5764      3884.8071      3867.9545      10023.887      0             -8788.0719      0              0             -302.02302      192451.21      57.735139      57.735139      57.735139      0.93862948     3198.4997      2984.4331      2779.6907    
    475000   950000         473.51705      2386.4934      27284.459      20522.962      11346.762      9176.2004      4013.3906      3746.7896      10186.339      0             -8770.3193      0              0             -299.19478      194270.42      57.916489      57.916489      57.916489      0.92983987     2247.0244      2311.6404      2600.8154    
    476000   952000         480.75188      2350.5704      27231.838      20516.2        11520.128      8996.0716      3856.238       3758.1709      10095.796      0             -8714.1337      0              0             -296.70343      195901.66      58.078141      58.078141      58.078141      0.92209724     1775.8714      2600.099       2675.7407    
    477000   954000         481.81483      1264.4417      24415.435      20813.17       11545.6        9267.5702      4064.6125      3824.8944      10093.872      0             -8715.8083      0              0             -297.54982      195344.41      58.02302       58.02302       58.02302       0.92472763     692.99345      1927.2109      1173.1208    
    478000   956000         482.38147      3662.6367      31108.445      20644.684      11559.178      9085.506       3877.3204      3807.2283      10055.093      0             -8654.1358      0              0             -296.71712      195892.62      58.077247      58.077247      58.077247      0.92213978     3321.0838      3412.5678      4254.2584    
    479000   958000         476.71375      1871.8243      26091.629      20697.228      11423.364      9273.8645      3960.363       3818.2965      10150.029      0             -8654.8242      0              0             -294.14295      197606.96      58.246175      58.246175      58.246175      0.91413975     2445.0438      1942.9518      1227.4774    
    480000   960000         482.5074       2069.4916      26899.05       20896.059      11562.195      9333.8634      3943.0657      3830.8897      10138.203      0             -8578.2946      0              0             -292.23521      198896.96      58.372646      58.372646      58.372646      0.90821087     1377.7869      3025.0673      1805.6206    
    481000   962000         485.53766      2566.1872      28136.633      20728.018      11634.809      9093.2097      3888.6221      3796.9889      10085.638      0             -8678.0397      0              0             -293.62154      197957.87      58.280633      58.280633      58.280633      0.91251929     2546.513       2046.5044      3105.5443    
    482000   964000         477.16315      1392.8768      24846.697      20803.044      11434.133      9368.9117      4007.2618      3770.5643      10132.633      0             -8541.5474      0              0             -291.99504      199060.55      58.388646      58.388646      58.388646      0.90746446     1674.2699      789.6362       1714.7244    
    483000   966000         479.52922      964.14932      23799.855      20970.427      11490.83       9479.5972      3884.4482      3832.3598      10242.072      0             -8479.2827      0              0             -288.85659      201223.36      58.59935       58.59935       58.59935       0.89771077     1653.3897      554.55367      684.5046     
    484000   968000         474.47465      1270.8879      24519.966      20778.717      11369.709      9409.0085      3921.7042      3816.7808      10160.648      0             -8490.124       0              0             -287.95671      201852.2       58.660329      58.660329      58.660329      0.8949141      1016.2219      1166.5788      1629.8631    
    485000   970000         478.19721      1008.4206      24047.668      21061.889      11458.912      9602.9776      3947.4885      3864.0761      10175.801      0             -8384.3876      0              0             -286.29955      203020.56      58.773291      58.773291      58.773291      0.88976396     1278.1579      1037.3937      709.71006    
    486000   972000         473.62564      1921.6578      26621.229      20904.659      11349.364      9555.2944      4006.5862      3787.6824      10160.105      0             -8399.0792      0              0             -284.95551      203978.14      58.86555       58.86555       58.86555       0.88558696     1396.3765      1929.8614      2438.7355    
    487000   974000         488.87794      958.0494       23986.712      21136.599      11714.851      9421.7478      3959.0788      3774.112       10073.213      0             -8384.6557      0              0             -284.9459       203985.02      58.866212      58.866212      58.866212      0.88555708     701.65732      648.45261      1524.0383    
    488000   976000         480.93816      1246.8311      24677.441      20947.966      11524.592      9423.3732      3918.5531      3727.2235      10085.818      0             -8308.221       0              0             -283.39781      205099.31      58.973205      58.973205      58.973205      0.88074591     1036.2599      1170.7223      1533.5111    
    489000   978000         473.79979      1298.2221      24759.1        20840.681      11353.537      9487.144       3955.9751      3745.8628      10099.053      0             -8313.7471      0              0             -280.85023      206959.76      59.150983      59.150983      59.150983      0.87282853     1616.1116      945.05634      1333.4984    
    490000   980000         471.89255      616.93613      22541.83       20664.955      11307.835      9357.12        3869.197       3714.6286      10038.263      0             -8264.9683      0              0             -278.63871      208602.37      59.307062      59.307062      59.307062      0.86595555     358.01158      185.58507      1307.2117    
    491000   982000         486.53969      1414.3196      25477.722      21173.068      11658.82       9514.2478      3898.6622      3784.0385      10071.226      0             -8239.6793      0              0             -278.51328      208696.31      59.315964      59.315964      59.315964      0.86556573     1632.722       1622.743       987.49394    
    492000   984000         482.24411      1115.048       24836.656      21390.136      11555.886      9834.2496      3945.497       3871.7515      10112.722      0             -8095.7205      0              0             -274.25168      211939.25      59.621623      59.621623      59.621623      0.85232151     1730.5451      1727.1618     -112.56298    
    493000   986000         480.83888      635.79686      23331.041      21349.161      11522.213      9826.9478      3939.2929      3881.1587      9996.0671      0             -7989.5709      0              0             -271.94279      213738.69      59.789884      59.789884      59.789884      0.8451459      225.1531       839.76422      842.47326    
    494000   988000         475.13527      112.75676      21814.385      21459.401      11385.539      10073.862      4055.151       3878.9089      10087.97       0             -7948.1678      0              0             -269.25956      215868.64      59.987835      59.987835      59.987835      0.83680695    -222.18309     -38.882938      599.33632    
    495000   990000         480.32726     -320.72695      20518.477      21533.741      11509.954      10023.787      3960.0889      3879.2547      10113.83       0             -7929.3861      0              0             -267.78935      217053.8       60.097416      60.097416      60.097416      0.83223782    -50.118734     -770.48383     -141.57829    
    496000   992000         477.61706      59.670821      21688.58       21499.387      11445.01       10054.378      3945.1452      3838.1192      10147.449      0             -7876.3358      0              0             -267.35891      217403.25      60.12965       60.12965       60.12965       0.8309001      643.81331     -194.91233     -269.88852    
    497000   994000         471.64733      595.10318      23174.502      21281.791      11301.959      9979.8326      3947.9403      3805.0846      10110.031      0             -7883.2236      0              0             -266.52905      218080.15      60.191991      60.191991      60.191991      0.82832106     896.73232      620.62367      267.95354    
    498000   996000         474.34586     -22.252599      21408.504      21480.44       11366.623      10113.817      3897.5677      3754.4528      10178.457      0             -7716.6601      0              0             -262.22407      221660.41      60.519599      60.519599      60.519599      0.81494202    -59.410373     -51.000514      43.653089    
    499000   998000         490.60485      124.03657      22190.392      21788.582      11756.233      10032.349      4010.279       3660.61        10088.488      0             -7727.0277      0              0             -261.67712      222123.72      60.561735      60.561735      60.561735      0.81324219    -684.56876      423.75052      632.92794    
    500000   1000000        482.20438      391.21949      22839.873      21564.566      11554.934      10009.632      3903.7789      3760.4432      10090.423      0             -7745.0131      0              0             -260.04135      223520.97      60.688456      60.688456      60.688456      0.80815854     443.57885      191.97587      538.10375    
Loop time of 887.19 on 1 procs for 500000 steps with 8040 atoms

Performance: 97.386 ns/day, 0.246 hours/ns, 563.577 timesteps/s, 4.531 Matom-step/s
99.5% CPU use with 1 MPI tasks x 1 OpenMP threads

MPI task timing breakdown:
Section |  min time  |  avg time  |  max time  |%varavg| %total
---------------------------------------------------------------
Pair    | 98.362     | 98.362     | 98.362     |   0.0 | 11.09
Bond    | 615.53     | 615.53     | 615.53     |   0.0 | 69.38
Neigh   | 0.35336    | 0.35336    | 0.35336    |   0.0 |  0.04
Comm    | 62.12      | 62.12      | 62.12      |   0.0 |  7.00
Output  | 8.2749     | 8.2749     | 8.2749     |   0.0 |  0.93
Modify  | 77.778     | 77.778     | 77.778     |   0.0 |  8.77
Other   |            | 24.77      |            |       |  2.79

Nlocal:           8040 ave        8040 max        8040 min
Histogram: 1 0 0 0 0 0 0 0 0 0
Nghost:          20438 ave       20438 max       20438 min
Histogram: 1 0 0 0 0 0 0 0 0 0
Neighs:              0 ave           0 max           0 min
Histogram: 1 0 0 0 0 0 0 0 0 0

Total # of neighbors = 0
Ave neighs/atom = 0
Ave special neighs/atom = 5.9701493
Neighbor list builds = 17303
Dangerous builds = 0

# --- Cleanup ---
unfix npt_fix

undump dump_npt

# --- Write Output ---
write_dump all custom npt_pppm_last.dump id type mol x y z xu yu zu vx vy vz modify sort id
write_data /home/arz2/PolyJarvis/data/cis-PBD3/lammps/npt_pppm/npt_pppm_out.data
System init for write_data ...
Generated 3 of 3 mixed pair_coeff terms from arithmetic mixing rule

print "STAGE COMPLETE: NPT T=480.0->480.0K P=50000.0->1.0atm steps=500000"
STAGE COMPLETE: NPT T=480.0->480.0K P=50000.0->1.0atm steps=500000
quit
5336    | 0.35336    | 0.35336    |   0.0 |  0.04
Comm    | 62.12      | 62.12      | 62.12      |   0.0 |  7.00
Output  | 8.2749     | 8.2749     | 8.2749     |   0.0 |  0.93
Modify  | 77.778     | 77.778     | 77.778     |   0.0 |  8.77
Other   |            | 24.77      |            |       |  2.79

Nlocal:           8040 ave        8040 max        8040 min
Histogram: 1 0 0 0 0 0 0 0 0 0
Nghost:          20438 ave       20438 max       20438 min
Histogram: 1 0 0 0 0 0 0 0 0 0
Neighs:              0 ave           0 max           0 min
Histogram: 1 0 0 0 0 0 0 0 0 0

Total # of neighbors = 0
Ave neighs/atom = 0
Ave special neighs/atom = 5.9701493
Neighbor list builds = 17303
Dangerous builds = 0
System init for write_data ...


---------------------------------------------------------------------
      Device Time Info (average): 
---------------------------------------------------------------------
Data Transfer:   48.4367 s.
Neighbor copy:   2.8186 s.
Neighbor build:  13.1080 s.
Force calc:      345.4834 s.
Device Overhead: 12.1840 s.
CPU Neighbor:    5.7069 s.
CPU Cast/Pack:   40.9193 s.
CPU Driver_Time: 9.9670 s.
CPU Idle_Time:   0.9723 s.
Average split:   1.0000.
Max Mem / Proc:  114.10 MB.
Prefetch mode:   None.
Vector width:    32.
Lanes / atom:    4.
Pair block:      256.
Neigh block:     128.
Neigh mode:      Hybrid (binning on host) with subgroup support.
Neigh sorting:   Unavailable or disabled.
---------------------------------------------------------------------


--------------------------------------------------------------------------
- Using acceleration for lj/cut:
-  with 1 proc(s) per device.
-  with 1 thread(s) per proc.
-  Horizontal vector operations: ENABLED
-  Shared memory system: No
--------------------------------------------------------------------------
Device 0: Quadro RTX 6000, 72 CUs, 23/24 GB, 1.8 GHZ (Mixed Precision)
--------------------------------------------------------------------------

Initializing Device and compiling on process 0...Done.
Initializing Device 0 on core 0...Done.

Generated 3 of 3 mixed pair_coeff terms from arithmetic mixing rule
STAGE COMPLETE: NPT T=480.0->480.0K P=50000.0->1.0atm steps=500000
Cuda driver error 4 in call at file '/home/arz2/lammps/lib/gpu/geryon/nvd_timer.h' in line 98.
Cuda driver error 4 in call at file '/home/arz2/lammps/lib/gpu/geryon/nvd_timer.h' in line 99.
Cuda driver error 4 in call at file '/home/arz2/lammps/lib/gpu/geryon/nvd_timer.h' in line 98.
Cuda driver error 4 in call at file '/home/arz2/lammps/lib/gpu/geryon/nvd_timer.h' in line 99.
Cuda driver error 4 in call at file '/home/arz2/lammps/lib/gpu/geryon/nvd_timer.h' in line 98.
Cuda driver error 4 in call at file '/home/arz2/lammps/lib/gpu/geryon/nvd_timer.h' in line 99.
