units real
atom_style full
boundary p p p

# --- Force Field Styles ---
pair_style lj/class2/coul/long 9.5 9.5
kspace_style pppm 1e-6
dielectric 1.000000
bond_style class2
angle_style class2
dihedral_style class2
improper_style class2
special_bonds lj/coul 0 0 1
pair_modify mix sixthpower tail yes
neighbor 2.0 bin
neigh_modify delay 0 every 1 check yes
neigh_modify one 4000
# KOKKOS: package loaded via -pk kokkos on the command line

read_data /home/alexzhao/PolyJarvis/data/PEG3/lammps/equil/npt_production_ext/npt_ext_out.data
Reading data file ...
  orthogonal box = (4.1698476 4.1698476 4.1698476) to (45.151285 45.151285 45.151285)
  1 by 1 by 1 MPI processor grid
  reading atoms ...
  7020 atoms
  reading velocities ...
  7020 velocities
  scanning bonds ...
  4 = max bonds/atom
  scanning angles ...
  10 = max angles/atom
  scanning dihedrals ...
  16 = max dihedrals/atom
  scanning impropers ...
  7 = max impropers/atom
  orthogonal box = (4.1698476 4.1698476 4.1698476) to (45.151285 45.151285 45.151285)
  1 by 1 by 1 MPI processor grid
  reading bonds ...
  7010 bonds
  reading angles ...
  13000 angles
  reading dihedrals ...
  14970 dihedrals
  reading impropers ...
  8000 impropers
Finding 1-2 1-3 1-4 neighbors ...
  special bond factors lj:    0        0        1       
  special bond factors coul:  0        0        1       
     4 = max # of 1-2 neighbors
     6 = max # of 1-3 neighbors
     8 = max # of special neighbors
  special bonds CPU = 0.003 seconds
  read_data CPU = 0.183 seconds
include /home/alexzhao/PolyJarvis/data/PEG3/lammps/equil/emc_build.params
# LAMMPS parameters created by EMC v9.4.4, build Jul 31 2025 20:33:44

# Variables

variable	seed		index	830011
variable	ntotal		index	7020
variable	fshape		index	1
variable	output		index	emc_build
variable	field		index	pcff/pcff
variable	location1	index	~/emc/field/
variable	nav		index	0.6022141179
variable	temperature	index	300
variable	radius		index	5
variable	nrelax		index	100
variable	weight_nonbond	index	0.0001
variable	weight_bond	index	0.0001
variable	weight_focus	index	1
variable	cutoff		index	9.5
variable	charge_cutoff	index	9.5
variable	kappa		index	4
variable	density1	index	0.61
variable	lprevious	index	0
variable	lphase		index	49.3211329242
variable	f_poly		index	10
variable	chem_repeat	index	*CCO*
variable	chem_cap	index	*[H]
variable	lg_repeat	index	7
variable	lg_cap		index	1
variable	norm_poly	index	100
variable	l_poly		index	702
variable	mg_repeat	index	16.04303
variable	mg_cap		index	0
variable	m_poly		index	1604.303
variable	n_poly		index	10
variable	mtotal		index	44073.7394
variable	nphase1		index	7020
variable	mphase1		index	44073.7394
variable	vphase1		index	119977.313144
variable	lbox		index	49.3211329242
variable	lphase1		index	49.3211329242
variable	lxx		index	49.3211329242
variable	lyy		index	49.3211329242
variable	lzz		index	49.3211329242
variable	lzy		index	0
variable	lzx		index	0
variable	lyx		index	0
variable	vtotal		index	119977.313144
variable	nl_poly		index	10

# Types

variable	type_c		index	1
variable	type_hc		index	2
variable	type_ho		index	3
variable	type_oc		index	4
variable	type_oh		index	5

variable	type_bond_c_c	index	1
variable	type_bond_c_hc	index	2
variable	type_bond_c_oc	index	3
variable	type_bond_c_oh	index	4
variable	type_bond_ho_oh	index	5

variable	type_angle_c_c_hc index	1
variable	type_angle_c_c_oc index	2
variable	type_angle_c_c_oh index	3
variable	type_angle_c_oc_c index	4
variable	type_angle_c_oh_ho index	5
variable	type_angle_hc_c_hc index	6
variable	type_angle_hc_c_oc index	7
variable	type_angle_hc_c_oh index	8

# Clusters

variable	n0_poly		index	1
variable	n1_poly		index	10
variable	nl_poly		index	10

# Flags

variable	flag_charged	index	1

# Masses

mass		1    12.01115  # c
mass		2     1.00797  # hc
mass		3     1.00797  # ho
mass		4    15.99940  # oc
mass		5    15.99940  # oh

# Potentials

pair_modify	mix sixthpower tail yes
special_bonds	lj/coul 0 0 1

# Pair Coeffs

pair_coeff	 1  1    0.05400    4.01000  # c,c
pair_coeff	 2  2    0.02000    2.99500  # hc,hc
pair_coeff	 3  3    0.01300    1.09800  # ho,ho
pair_coeff	 4  4    0.24000    3.53500  # oc,oc
pair_coeff	 5  5    0.24000    3.53500  # oh,oh

# Bond Coeffs

bond_coeff	1    1.53000  299.67000 -501.77000  679.81000  # c,c
bond_coeff	2    1.10100  345.00000 -691.89000  844.60000  # c,hc
bond_coeff	3    1.42000  400.39540 -835.19510 1313.01420  # c,oc
bond_coeff	4    1.42000  400.39540 -835.19510 1313.01420  # c,oh
bond_coeff	5    0.96500  532.50620 -1282.90500 2004.76580  # ho,oh

# Angle Coeffs

angle_coeff	1  110.77000   41.45300  -10.60400    5.12900  # c,c,hc
angle_coeff	2  111.27000   54.53810   -8.36420  -13.08380  # c,c,oc
angle_coeff	3  111.27000   54.53810   -8.36420  -13.08380  # c,c,oh
angle_coeff	4  104.50000   35.74540  -10.00670   -6.27290  # c,oc,c
angle_coeff	5  105.80000   52.70610  -12.10900   -9.86810  # c,oh,ho
angle_coeff	6  107.66000   39.64100  -12.92100   -2.43180  # hc,c,hc
angle_coeff	7  108.72800   58.54460  -10.80880  -12.40060  # hc,c,oc
angle_coeff	8  108.72800   58.54460  -10.80880  -12.40060  # hc,c,oh

# BondBond Coeffs

angle_coeff	1 bb    3.38720    1.53000    1.10100  # c,c,hc
angle_coeff	2 bb   11.43180    1.53000    1.42000  # c,c,oc
angle_coeff	3 bb   11.43180    1.53000    1.42000  # c,c,oh
angle_coeff	4 bb   -7.11310    1.42000    1.42000  # c,oc,c
angle_coeff	5 bb   -9.68790    1.42000    0.96500  # c,oh,ho
angle_coeff	6 bb    5.33160    1.10100    1.10100  # hc,c,hc
angle_coeff	7 bb   23.19790    1.10100    1.42000  # hc,c,oc
angle_coeff	8 bb   23.19790    1.10100    1.42000  # hc,c,oh

# BondAngle Coeffs

angle_coeff	1 ba   20.75400   11.42100    1.53000    1.10100  # c,c,hc
angle_coeff	2 ba    2.68680   20.40330    1.53000    1.42000  # c,c,oc
angle_coeff	3 ba    2.68680   20.40330    1.53000    1.42000  # c,c,oh
angle_coeff	4 ba   -2.81120   -2.81120    1.42000    1.42000  # c,oc,c
angle_coeff	5 ba   28.58000   18.92770    1.42000    0.96500  # c,oh,ho
angle_coeff	6 ba   18.10300   18.10300    1.10100    1.10100  # hc,c,hc
angle_coeff	7 ba    4.61890   55.32700    1.10100    1.42000  # hc,c,oc
angle_coeff	8 ba    4.61890   55.32700    1.10100    1.42000  # hc,c,oh

# Dihedral Coeffs

dihedral_coeff	1   -0.52030    0.00000   -0.30280    0.00000   -0.34500    0.00000  # c,c,oc,c
dihedral_coeff	2   -0.67320    0.00000   -0.47780    0.00000   -0.16700    0.00000  # c,c,oh,ho
dihedral_coeff	3    0.53020    0.00000    0.00000    0.00000   -0.39660    0.00000  # c,oc,c,hc
dihedral_coeff	4   -0.14320    0.00000    0.06170    0.00000   -0.10830    0.00000  # hc,c,c,hc
dihedral_coeff	5   -0.14350    0.00000    0.25300    0.00000   -0.09050    0.00000  # hc,c,c,oc
dihedral_coeff	6   -0.14350    0.00000    0.25300    0.00000   -0.09050    0.00000  # hc,c,c,oh
dihedral_coeff	7    0.18630    0.00000   -0.43380    0.00000   -0.21210    0.00000  # hc,c,oh,ho
dihedral_coeff	8   -0.18200    0.00000   -0.10840    0.00000   -0.70470    0.00000  # oc,c,c,oc
dihedral_coeff	9   -0.18200    0.00000   -0.10840    0.00000   -0.70470    0.00000  # oc,c,c,oh

# MiddleBondTorsion Coeffs

dihedral_coeff	1 mbt   -5.92880   -2.70070   -0.31750    1.42000  # c,c,oc,c
dihedral_coeff	2 mbt    1.24720    0.00000    0.74850    1.42000  # c,c,oh,ho
dihedral_coeff	3 mbt   -6.80070   -4.65460   -1.41010    1.42000  # c,oc,c,hc
dihedral_coeff	4 mbt  -14.26100   -0.53220   -0.48640    1.53000  # hc,c,c,hc
dihedral_coeff	5 mbt  -16.79750   -1.22960   -0.27500    1.53000  # hc,c,c,oc
dihedral_coeff	6 mbt  -16.79750   -1.22960   -0.27500    1.53000  # hc,c,c,oh
dihedral_coeff	7 mbt    0.00000    0.92410   -0.58890    1.42000  # hc,c,oh,ho
dihedral_coeff	8 mbt  -17.25850   -3.61570   -0.83640    1.53000  # oc,c,c,oc
dihedral_coeff	9 mbt  -17.25850   -3.61570   -0.83640    1.53000  # oc,c,c,oh

# EndBondTorsion Coeffs

dihedral_coeff	1 ebt   -0.24560    1.05170   -0.77950    0.47410    1.26350    0.55760    1.53000    1.42000  # c,c,oc,c
dihedral_coeff	2 ebt   -0.58000    0.90040    0.00000    0.00000    0.53430    0.90250    1.53000    0.96500  # c,c,oh,ho
dihedral_coeff	3 ebt   -0.16200    0.15640   -1.14080   -0.60540    1.33390    0.96480    1.42000    1.10100  # c,oc,c,hc
dihedral_coeff	4 ebt    0.21300    0.31200    0.07770    0.21300    0.31200    0.07770    1.10100    1.10100  # hc,c,c,hc
dihedral_coeff	5 ebt    0.96810    0.95510    0.04360    0.59030    0.66690    0.85840    1.10100    1.42000  # hc,c,c,oc
dihedral_coeff	6 ebt    0.96810    0.95510    0.04360    0.59030    0.66690    0.85840    1.10100    1.42000  # hc,c,c,oh
dihedral_coeff	7 ebt   -1.75540    1.31450    0.22630    0.24930    0.68030    0.00000    1.10100    0.96500  # hc,c,oh,ho
dihedral_coeff	8 ebt    1.01650    0.75530   -0.46090    1.01650    0.75530   -0.46090    1.42000    1.42000  # oc,c,c,oc
dihedral_coeff	9 ebt    1.01650    0.75530   -0.46090    1.01650    0.75530   -0.46090    1.42000    1.42000  # oc,c,c,oh

# AngleTorsion Coeffs

dihedral_coeff	1 at   -2.74660    1.48770   -0.89550    0.56760    0.94500    0.07030  111.27000  104.50000  # c,c,oc,c
dihedral_coeff	2 at   -3.59030    2.52250    0.48880    0.87260   -0.35770    0.38880  111.27000  105.80000  # c,c,oh,ho
dihedral_coeff	3 at   -0.77770    0.43400   -0.66530   -1.82340    1.63930    0.51440  104.50000  108.72800  # c,oc,c,hc
dihedral_coeff	4 at   -0.80850    0.55690   -0.24660   -0.80850    0.55690   -0.24660  110.77000  110.77000  # hc,c,c,hc
dihedral_coeff	5 at    2.36680    2.49200   -1.01220   -0.18920    0.49180    0.72730  110.77000  111.27000  # hc,c,c,oc
dihedral_coeff	6 at    2.36680    2.49200   -1.01220   -0.18920    0.49180    0.72730  110.77000  111.27000  # hc,c,c,oh
dihedral_coeff	7 at   -3.40600    1.63960    0.07370    0.00000   -0.28100   -0.59440  108.72800  105.80000  # hc,c,oh,ho
dihedral_coeff	8 at    0.55110    0.97370   -0.66730    0.55110    0.97370   -0.66730  111.27000  111.27000  # oc,c,c,oc
dihedral_coeff	9 at    0.55110    0.97370   -0.66730    0.55110    0.97370   -0.66730  111.27000  111.27000  # oc,c,c,oh

# AngleAngleTorsion Coeffs

dihedral_coeff	1 aat  -19.00590  111.27000  104.50000  # c,c,oc,c
dihedral_coeff	2 aat  -12.10380  111.27000  105.80000  # c,c,oh,ho
dihedral_coeff	3 aat  -16.44380  104.50000  108.72800  # c,oc,c,hc
dihedral_coeff	4 aat  -12.56400  110.77000  110.77000  # hc,c,c,hc
dihedral_coeff	5 aat  -20.20060  110.77000  111.27000  # hc,c,c,oc
dihedral_coeff	6 aat  -20.20060  110.77000  111.27000  # hc,c,c,oh
dihedral_coeff	7 aat  -10.50930  108.72800  105.80000  # hc,c,oh,ho
dihedral_coeff	8 aat  -14.04840  111.27000  111.27000  # oc,c,c,oc
dihedral_coeff	9 aat  -14.04840  111.27000  111.27000  # oc,c,c,oh

# BondBond13 Coeffs

dihedral_coeff	1 bb13    0.00000    1.53000    1.42000  # c,c,oc,c
dihedral_coeff	2 bb13    0.00000    1.53000    0.96500  # c,c,oh,ho
dihedral_coeff	3 bb13    0.00000    1.42000    1.10100  # c,oc,c,hc
dihedral_coeff	4 bb13    0.00000    1.10100    1.10100  # hc,c,c,hc
dihedral_coeff	5 bb13    0.00000    1.10100    1.42000  # hc,c,c,oc
dihedral_coeff	6 bb13    0.00000    1.10100    1.42000  # hc,c,c,oh
dihedral_coeff	7 bb13    0.00000    1.10100    0.96500  # hc,c,oh,ho
dihedral_coeff	8 bb13    0.00000    1.42000    1.42000  # oc,c,c,oc
dihedral_coeff	9 bb13    0.00000    1.42000    1.42000  # oc,c,c,oh

# Improper Coeffs

improper_coeff	1    0.00000    0.00000  # c,c,hc,hc
improper_coeff	2    0.00000    0.00000  # c,c,hc,oc
improper_coeff	3    0.00000    0.00000  # c,c,oc,hc
improper_coeff	4    0.00000    0.00000  # c,c,oh,hc
improper_coeff	5    0.00000    0.00000  # c,hc,hc,hc
improper_coeff	6    0.00000    0.00000  # c,hc,hc,oc
improper_coeff	7    0.00000    0.00000  # c,hc,hc,oh

# AngleAngle Coeffs

improper_coeff	1 aa    0.27380   -0.48250    0.27380  110.77000  110.77000  107.66000  # c,c,hc,hc
improper_coeff	2 aa    3.91770    2.59260    0.16890  110.77000  111.27000  108.72800  # c,c,hc,oc
improper_coeff	3 aa    0.16890    2.59260    3.91770  111.27000  110.77000  108.72800  # c,c,oc,hc
improper_coeff	4 aa    0.16890    2.59260    3.91770  111.27000  110.77000  108.72800  # c,c,oh,hc
improper_coeff	5 aa   -0.31570   -0.31570   -0.31570  107.66000  107.66000  107.66000  # c,hc,hc,hc
improper_coeff	6 aa    2.42590    2.42590    2.12830  107.66000  108.72800  108.72800  # c,hc,hc,oc
improper_coeff	7 aa    2.42590    2.42590    2.12830  107.66000  108.72800  108.72800  # c,hc,hc,oh


# --- Thermo Output ---
thermo_style custom step time temp press enthalpy etotal ke pe ebond eangle edihed eimp evdwl ecoul elong etail vol lx ly lz density pxx pyy pzz
thermo_modify flush yes
thermo 500

# --- Velocity initialization at T_START (once only — Rule A) ---
velocity all create 440.0 691831 mom yes rot yes dist gaussian

# --- Temperature staircase (inherits momenta across steps — Rule A) ---
variable temps index 440 420 400 380 360 340 320 300 280 260 240 220 200 180 160 140 120 100
label TEMP_LOOP
  timestep 1
  fix npt_tg all npt temp ${temps} ${temps} 100 iso 1.0 1.0 1000.0
  fix npt_tg all npt temp 440 ${temps} 100 iso 1.0 1.0 1000.0
  fix npt_tg all npt temp 440 440 100 iso 1.0 1.0 1000.0
  run 50000
PPPM Kokkos initialization ...
  using 12-bit tables for long-range coulomb
  G vector (1/distance) = 0.30317895
  grid = 30 30 30
  stencil order = 5
  estimated absolute RMS force accuracy = 0.00030405438
  estimated relative force accuracy = 9.1565074e-07
  using double precision cuFFT
  3d grid and FFT values/proc = 50653 27000
Generated 10 of 10 mixed pair_coeff terms from sixthpower/sixthpower mixing rule
Neighbor list info ...
  update: every = 1 steps, delay = 0 steps, check = yes
  max neighbors/atom: 4000, page size: 100000
  master list distance cutoff = 11.5
  ghost atom cutoff = 11.5
  binsize = 11.5, bins = 4 4 4
  1 neighbor lists, perpetual/occasional/extra = 1 0 0
  (1) pair lj/class2/coul/long/kk, perpetual
      attributes: full, newton off, kokkos_device
      pair build: full/bin/kk/device
      stencil: full/bin/3d
      bin: kk/device
Per MPI rank memory allocation (min/avg/max) = 32.74 | 32.74 | 32.74 Mbytes
   Step          Time           Temp          Press         Enthalpy        TotEng         KinEng         PotEng         E_bond        E_angle        E_dihed        E_impro         E_vdwl         E_coul         E_long         E_tail         Volume           Lx             Ly             Lz          Density          Pxx            Pyy            Pzz      
         0   0              440            2734.5191      9747.9385      7003.0897      9205.8145     -2202.7248      2347.7263      4946.4439     -8521.5255     -53.124684     -2952.5529      6925.9428     -4895.6347     -466.42323      68827.433      40.981438      40.981438      40.981438      1.0633283      332.54174      4602.0912      3268.9244    
       500   500            434.90887      408.99247      10544.919      10122.391      9099.2963      1023.0945      3573.0099      6333.3425     -8197.2861     -73.591553     -2667.777       6945.7171     -4890.3203     -453.18726      70837.635      41.376589      41.376589      41.376589      1.0331536     -2258.5045      1012.5383      2472.9437    
      1000   1000           439.18781     -590.3328       9531.695       10152.407      9188.8217      963.58518      3397.034       6386.3266     -8262.4474     -72.905684     -2568.5045      6966.1657     -4882.0836     -445.27109      72097.008      41.620352      41.620352      41.620352      1.0151067     -752.84818      143.57834     -1161.7286    
      1500   1500           437.38836     -574.35751      9719.668       10319.628      9151.173       1168.4554      3544.1298      6463.3745     -8269.5859     -73.223967     -2586.9681      6973.0045     -4882.2754     -448.20567      71624.961      41.529318      41.529318      41.529318      1.0217969     -1005.6722     -856.81152      139.41124    
      2000   2000           438.37979     -1432.2968      9043.4218      10550.972      9171.9161      1379.0555      3609.9539      6582.1544     -8264.3539     -72.533799     -2562.8207      6967.5664     -4880.9109     -444.81455      72171.006      41.634586      41.634586      41.634586      1.0140659     -2493.426      -736.60012     -1066.8643    
      2500   2500           441.89839      1308.6708      11956.162      10570.668      9245.5333      1325.135       3583.4954      6550.6248     -8318.4538     -76.856902     -2504.6995      6968.8268     -4877.8017     -442.22505      72593.612      41.715694      41.715694      41.715694      1.0081625      3145.1628      453.73196      327.11761    
      3000   3000           436.46513      1208.4449      11714.639      10433.322      9131.8569      1301.4656      3509.8457      6454.3783     -8209.5957     -77.344744     -2488.7264      6989.0567     -4876.1482     -441.55845      72703.203      41.736675      41.736675      41.736675      1.0066429      949.05575      175.62466      2500.6542    
      3500   3500           448.63144     -840.32274      9992.656       10887.421      9386.4041      1501.0167      3554.6953      6618.9325     -8198.5014     -79.662026     -2484.4598      6966.6338     -4876.6216     -439.69836      73010.765      41.795446      41.795446      41.795446      1.0024023      265.71773     -1109.3873     -1677.2986    
      4000   4000           433.8859       726.87855      11188.245      10420.219      9077.8935      1342.3251      3448.5317      6719.9053     -8313.8587     -78.680551     -2542.4541      6983.4784     -4874.5968     -443.10135      72450.048      41.688176      41.688176      41.688176      1.0101603     -448.81358      1488.9875      1140.4617    
      4500   4500           437.07446      205.77182      10753.043      10535.711      9144.6055      1391.1056      3584.4669      6541.9576     -8247.2337     -75.499948     -2533.4238      6994.2714     -4873.4328     -443.28116      72420.659      41.682538      41.682538      41.682538      1.0105702     -835.86517      1368.6673      84.513339    
      5000   5000           441.25909     -865.18671      9762.8271      10679.233      9232.1575      1447.0758      3568.0133      6611.4862     -8210.2908     -77.705363     -2539.7941      6973.6522     -4878.2857     -442.01747      72627.703      41.722223      41.722223      41.722223      1.0076893     -881.80119     -132.36065     -1581.3983    
      5500   5500           434.94656      78.505139      10599.046      10516.804      9100.085       1416.7191      3570.0272      6490.5421     -8097.0204     -73.753716     -2602.0514      7005.1282     -4876.1529     -446.90989      71832.631      41.569416      41.569416      41.569416      1.0188428     -892.04136      1601.3602     -473.80344    
      6000   6000           436.35814     -2600.3049      7725.1591      10476.207      9129.6184      1346.5887      3540.1901      6438.8285     -8099.3954     -71.37392      -2573.5561      6989.0343     -4877.1388     -442.53104      72543.416      41.706076      41.706076      41.706076      1.0088601     -2194.1222     -1388.8775     -4217.915     
      6500   6500           434.01885     -1668.8405      8776.0955      10550.549      9080.6751      1469.8743      3451.0329      6699.424      -8155.1729     -77.569293     -2558.104       6991.2049     -4880.9414     -440.31932      72907.801      41.77579       41.77579       41.77579       1.003818      -1071.8044     -2570.5105     -1364.2066    
      7000   7000           446.02571      1708.4088      12513.84       10698.51       9331.8862      1366.6242      3470.2217      6601.9715     -8249.4703     -73.758549     -2493.6041      6987.5217     -4876.2579     -440.60961      72859.767      41.766613      41.766613      41.766613      1.0044797      1507.903       3748.3658     -131.04239    
      7500   7500           445.01014     -339.71496      10442.767      10803.237      9310.6382      1492.5986      3611.0237      6482.1777     -8197.3028     -72.656101     -2455.3497      6994.4274     -4869.7217     -441.22892      72757.502      41.747063      41.747063      41.747063      1.0058916     -1017.8074     -876.9325       875.59502    
      8000   8000           452.35365      1486.5616      12605.982      11014.874      9464.2813      1550.5924      3491.0275      6597.5625     -8190.5623     -74.208537     -2403.3455      7000.1202     -4870.0015     -437.42214      73390.693      41.867818      41.867818      41.867818      0.99721309     854.6086       1231.9338      2373.1423    
      8500   8500           440.82342     -699.64008      10012.017      10759.435      9223.0423      1536.393       3544.5392      6587.2489     -8162.0658     -79.547601     -2482.1066      6998.1171     -4869.7923     -438.25644      73250.979      41.841233      41.841233      41.841233      0.9991151     -66.759532      145.73027     -2177.891     
      9000   9000           439.41383      862.16403      11590.265      10669.773      9193.5505      1476.2228      3458.1667      6565.7528     -8140.7464     -73.821776     -2460.7733      6992.4436     -4864.7989     -438.51811      73207.27       41.832909      41.832909      41.832909      0.99971164    -43.857414      1813.0545      817.29495    
      9500   9500           436.18266     -1468.0152      9093.2009      10661.687      9125.947       1535.7403      3513.2159      6593.547      -8157.7016     -70.678187     -2494.2455      7010.5453     -4858.9426     -438.19502      73261.246      41.843188      41.843188      41.843188      0.99897508    -1139.1542     -3361.7619      96.870426    
     10000   10000          439.15037      1673.3761      12408.148      10626.164      9188.0382      1438.1255      3423.0267      6530.2042     -8174.589      -69.965802     -2423.2839      7013.8765     -4861.1433     -439.65022      73018.759      41.796972      41.796972      41.796972      1.0022926      2808.5114      486.6024       1725.0146    
     10500   10500          444.82378     -1212.4497      9507.2356      10796.495      9306.739       1489.7564      3539.6545      6560.3095     -8159.8885     -75.765545     -2491.313       6988.1622     -4871.4027     -440.29211      72912.307      41.77665       41.77665       41.77665       1.0037559     -616.3815      -1267.2131     -1753.7544    
     11000   11000          439.61507     -110.55314      10290.221      10407.538      9197.7609      1209.7766      3415.1474      6376.0402     -8115.2294     -74.948705     -2517.1755      6996.0377     -4870.0951     -441.19341      72763.357      41.748183      41.748183      41.748183      1.0058107      1265.9599     -1627.3118      29.692504    
     11500   11500          443.50501     -23.299316      10751.347      10776.218      9279.1475      1497.0706      3434.7802      6690.8676     -8192.477      -73.410644     -2484.5664      6990.9892     -4869.1123     -438.59775      73193.976      41.830377      41.830377      41.830377      0.9998932      422.12791      576.62371     -1068.6496    
     12000   12000          443.54446      564.58785      11328.888      10723.36       9279.9728      1443.387       3519.4701      6432.4515     -8117.1138     -73.448087     -2441.4126      6993.9086     -4870.4688     -436.53068      73540.567      41.896299      41.896299      41.896299      0.9951808      2113.4922     -949.97742      530.24874    
     12500   12500          436.75328      1996.4145      12816.878      10702.438      9137.8857      1564.5524      3489.465       6561.206      -8091.0119     -73.854513     -2435.1586      6982.0339     -4868.1275     -442.05157      72622.1        41.72115       41.72115       41.72115       1.007767       2376.4361      535.50256      3077.3048    
     13000   13000          443.03581      640.30101      11292.381      10604.331      9269.3306      1335.0003      3474.6386      6336.9796     -8104.2509     -72.63188      -2426.1998      6997.3626     -4870.898      -435.69405      73681.781      41.923098      41.923098      41.923098      0.99327348     1851.9468     -1206.2343      1275.1906    
     13500   13500          434.3481       450.18179      11025.562      10540.992      9087.5638      1453.4285      3546.9943      6473.411      -8194.0165     -69.733996     -2440.3955      7008.7622     -4871.593      -434.96015      73806.103      41.946664      41.946664      41.946664      0.99160038     213.19123      1484.7388     -347.38468    
     14000   14000          436.28819      27.06647       10624.28       10595.281      9128.1548      1467.1263      3475.6899      6432.04       -8076.8101     -74.72065      -2402.4966      6984.5645     -4871.1408     -436.98698      73463.776      41.881711      41.881711      41.881711      0.99622104     597.77562     -129.16115     -387.41506    
     14500   14500          442.01536     -307.36274      10509.801      10839.661      9247.9805      1591.6803      3570.4455      6343.5782     -8012.9195     -73.773079     -2377.4546      7009.5187     -4867.7148     -436.25378      73587.245      41.905161      41.905161      41.905161      0.99454952    -717.04513      556.85828     -761.90137    
     15000   15000          446.46566     -181.35018      10681.856      10876.579      9341.091       1535.4884      3532.5599      6465.1988     -8132.7079     -76.980769     -2372.3387      6992.266      -4872.5091     -436.0308       73624.876      41.912303      41.912303      41.912303      0.99404119     1450.1081     -3133.5982      1139.4396    
     15500   15500          442.64205      522.97587      11390.448      10828.307      9261.0922      1567.2152      3412.6684      6638.1656     -8153.816      -80.71012      -2370.4287      6988.252      -4866.9159     -435.56622      73703.406      41.927199      41.927199      41.927199      0.99298206     572.9279       1787.521      -791.52126    
     16000   16000          436.22499      240.91728      10962.524      10704.069      9126.8326      1577.2361      3435.2557      6542.1868     -8063.6579     -78.941169     -2402.9343      7002.2887     -4856.9616     -436.41496      73560.066      41.900001      41.900001      41.900001      0.99491699     868.86328      354.75675     -500.86819    
     16500   16500          440.52221     -31.75817       10716.556      10750.883      9216.7404      1534.1423      3486.8506      6583.5553     -8154.5708     -75.071102     -2432.1799      6990.6489     -4865.0907     -433.14774      74114.928      42.005088      42.005088      42.005088      0.98746854     1178.4116     -67.540102     -1206.146     
     17000   17000          440.59654     -556.23229      10226.363      10824.081      9218.2956      1605.7852      3648.7131      6458.5657     -8136.483      -69.914766     -2447.6188      7016.7619     -4864.2389     -435.69         73682.466      41.923228      41.923228      41.923228      0.99326426    -1105.7286     -2087.034       1524.0658    
     17500   17500          446.38679      1493.1817      12568.854      10965.747      9339.4409      1626.306       3472.4906      6553.1632     -8137.1879     -76.327882     -2335.0469      7008.1324     -4858.9175     -436.08166      73616.289      41.910673      41.910673      41.910673      0.99415715     2146.5502      1046.4856      1286.5093    
     18000   18000          443.76444      1482.0902      12484.881      10880.415      9284.5753      1595.8396      3471.8098      6605.8268     -8103.6712     -81.107963     -2422.134       6993.4281     -4868.3121     -432.47585      74230.072      42.026829      42.026829      42.026829      0.9859368     -188.04202      1710.0233      2924.2895    
     18500   18500          438.14314     -463.71088      10208.6        10712.099      9166.9646      1545.1344      3466.1629      6507.6924     -8135.5434     -68.907513     -2361.1296      6998.6415     -4861.7819     -431.18765      74451.839      42.06864       42.06864       42.06864       0.98300002     167.09706     -2265.2125      706.98278    
     19000   19000          434.55289     -2132.8818      8385.5382      10692.621      9091.8483      1600.7729      3564.0052      6404.801      -8008.1627     -69.413974     -2433.6631      7009.9318     -4866.7254     -432.83383      74168.679      42.01524       42.01524       42.01524       0.98675291    -1866.1794     -2232.1025     -2300.3636    
     19500   19500          448.20194     -595.88473      10382.376      11022.058      9377.418       1644.6398      3485.1597      6601.6073     -8091.6522     -78.138137     -2399.0282      6988.572      -4861.8807     -436.13004      73608.123      41.909124      41.909124      41.909124      0.99426743     77.155407     -1135.6238     -729.18583    
     20000   20000          447.27839     -713.78713      10266.277      11043.555      9358.0952      1685.4596      3615.7483      6523.4191     -8116.0486     -77.76893      -2385.2572      6992.1132     -4866.7461     -429.94235      74667.485      42.109218      42.109218      42.109218      0.98016104     377.57754     -683.79303     -1835.1459    
     20500   20500          441.29885      45.94619       10974.239      10924.623      9232.9894      1691.6332      3534.0095      6583.4037     -8080.3681     -75.182271     -2388.9034      6990.5878     -4871.9141     -433.55165      74045.88       41.992039      41.992039      41.992039      0.98838936     897.30147     -322.56963     -436.89327    
     21000   21000          439.86815     -739.86832      10000.07       10795.668      9203.0559      1592.6118      3493.419       6477.2875     -8047.386      -72.165955     -2363.1424      6974.4504     -4869.8507     -435.39025      73733.193      41.932847      41.932847      41.932847      0.99258091     904.99591     -2511.5043     -613.09659    
     21500   21500          435.48246     -31.829299      10671.866      10706.07       9111.2973      1594.7731      3447.0323      6623.5298     -8052.2254     -75.002336     -2455.3289      6981.1664     -4874.3988     -435.678        73684.495      41.923613      41.923613      41.923613      0.9932369      492.92049      943.47537     -1531.8838    
     22000   22000          439.5712      -1058.2956      9527.0215      10675.309      9196.8431      1478.4664      3494.6522      6516.649      -8151.4595     -80.072461     -2414.6808      6983.1182     -4869.7403     -431.49306      74399.143      42.058713      42.058713      42.058713      0.98369627     10.318736     -1936.6136     -1248.592     
     22500   22500          439.79133      1524.1255      12299.657      10659.964      9201.4487      1458.5154      3341.6741      6720.0263     -8177.4619     -75.678243     -2442.5022      6966.4705     -4874.0131     -435.18681      73767.663      41.93938       41.93938       41.93938       0.9921171      2412.1816      365.84016      1794.3547    
     23000   23000          436.98685      28.474193      10911.472      10880.611      9142.7726      1737.8383      3652.5803      6481.595      -8046.4175     -71.847306     -2381.3235      6981.1573     -4877.906      -431.9774       74315.725      42.042988      42.042988      42.042988      0.98480045    -1149.1892      760.16653      474.44525    
     23500   23500          439.44364     -396.01888      10425.708      10853.454      9194.1743      1659.2799      3433.5417      6702.5055     -8148.8289     -73.03415      -2362.7935      6983.6473     -4875.758      -433.45822      74061.84       41.995056      41.995056      41.995056      0.98817636    -1446.6206      65.38103       193.18295    
     24000   24000          437.79227     -289.08382      10516.234      10829.089      9159.6237      1669.4657      3535.1189      6567.7674     -8090.244      -76.380194     -2374.3414      6976.8227     -4869.2776     -432.61164      74206.772      42.022432      42.022432      42.022432      0.98624637     838.36839     -1212.3652     -493.2546     
     24500   24500          445.55711      63.151217      10978.138      10909.69       9322.0821      1587.6076      3579.2748      6486.5996     -8107.8047     -74.451466     -2393.9159      6967.5928     -4869.6875     -431.95134      74320.209      42.043833      42.043833      42.043833      0.98474104    -834.67479      748.04598      276.08246    
     25000   25000          447.60758     -1310.3482      9629.6661      11037.587      9364.9827      1672.6039      3563.455       6582.226      -8071.8745     -72.455793     -2428.7597      6971.7728     -4871.7598     -435.73878      73674.217      41.921664      41.921664      41.921664      0.99337546    -2391.3795     -1191.4901     -348.1751     
     25500   25500          441.6796      -801.52139      10003.456      10867.869      9240.9555      1626.9134      3472.7529      6568.6279     -8076.0769     -77.389719     -2364.4375      6974.38       -4870.9432     -434.12162      73948.663      41.973654      41.973654      41.973654      0.98968874    -761.66014     -870.37756     -772.52648    
     26000   26000          440.43984      443.92455      11287.208      10805.486      9215.0171      1590.4688      3397.5057      6653.7338     -8124.7772     -71.184987     -2377.7381      6985.8368     -4872.9072     -431.45004      74406.561      42.060111      42.060111      42.060111      0.9835982     -533.07779      2271.4593     -406.60784    
     26500   26500          442.58483      1199.8329      12289.062      10979.485      9259.8952      1719.5897      3464.7078      6588.6709     -8043.7377     -74.235142     -2348.7404      6996.1919     -4863.2677     -428.95073      74840.095      42.141641      42.141641      42.141641      0.9779004      857.92907      522.65516      2218.9145    
     27000   27000          438.66606      717.84773      11680.103      10897.881      9177.9054      1719.9756      3573.233       6519.2534     -8072.4208     -74.057424     -2345.9568      6987.2395     -4867.3154     -429.65511      74717.402      42.118599      42.118599      42.118599      0.97950622     1342.9047     -138.02194      948.6604     
     27500   27500          440.75031      902.23031      11953.082      10975.477      9221.5128      1753.9647      3550.8444      6657.8221     -8148.811      -75.609695     -2362.528       7001.7377     -4869.4909     -432.08762      74296.767      42.039413      42.039413      42.039413      0.98505174    -2943.7449      2954.5834      2695.8524    
     28000   28000          440.8414      -273.10549      10673.166      10970.827      9223.4186      1747.4086      3494.2808      6436.3521     -7979.2253     -81.713146     -2265.6755      7007.7529     -4864.3633     -429.56243      74733.523      42.121628      42.121628      42.121628      0.97929493    -486.33268     -107.89102     -225.09278    
     28500   28500          443.45808      372.58764      11230.605      10827.134      9278.1655      1548.9683      3400.4051      6578.8381     -8110.7843     -71.719411     -2352.3118      6977.6519     -4873.1112     -432.34777      74252.063      42.030979      42.030979      42.030979      0.9856448     -341.20956      1142.8389      316.13361    
     29000   29000          440.74729      801.1297       11582.055      10715.429      9221.4497      1493.979       3473.3055      6417.3591     -8140.158      -74.533823     -2315.9056      6997.9505     -4864.0387     -432.80156      74174.21       42.016284      42.016284      42.016284      0.98667933    -30.182309      1138.4963      1295.0751    
     29500   29500          439.56745     -123.11156      10733.029      10867.477      9196.7646      1670.7119      3486.3334      6499.4308     -8084.887      -77.843114     -2278.7856      6991.7249     -4865.2615     -428.71095      74881.953      42.149496      42.149496      42.149496      0.97735378     99.274608      177.70231     -646.3116     
     30000   30000          439.80906     -43.391533      10806.914      10854.217      9201.8197      1652.3971      3493.673       6508.0408     -8093.1058     -77.409383     -2318.1082      7002.873      -4863.5663     -429.46912      74749.759      42.124679      42.124679      42.124679      0.97908221     474.54047     -1110.8289      506.11382    
     30500   30500          439.83384     -357.9778       10399.152      10785.341      9202.3381      1583.0027      3467.0638      6689.7184     -8139.3076     -75.674881     -2472.3044      6983.3084     -4869.8009     -433.98403      73972.109      41.978089      41.978089      41.978089      0.98937506     1205.1984     -1668.3457     -610.78612    
     31000   31000          437.46712     -102.99502      10804.295      10917.113      9152.8208      1764.2926      3577.6214      6528.9856     -8054.2525     -76.349554     -2330.3524      6991.0328     -4872.3926     -427.41923      75108.257      42.191914      42.191914      42.191914      0.97440897    -413.55016      843.56278     -738.99768    
     31500   31500          440.68359      622.9039       11413.299      10737.872      9220.1169      1517.7549      3397.6338      6526.5705     -8107.4176     -78.595904     -2338.0614      6993.2662     -4875.6407     -431.77757      74350.118      42.049473      42.049473      42.049473      0.9843449      1305.9988     -387.63235      950.34524    
     32000   32000          436.07338     -16.556533      10679.758      10697.631      9123.6606      1573.9703      3469.8768      6532.9053     -8113.014      -73.933891     -2395.6753      7015.1622     -4861.3508     -433.70013      74020.531      41.987247      41.987247      41.987247      0.98872784    -1038.9357     -556.70092      1545.967     
     32500   32500          441.84405      507.18543      11562.209      11014.831      9244.3964      1770.4341      3508.0258      6632.8094     -8131.4036     -73.930898     -2319.088       7015.9212     -4861.8999     -433.80744      74002.22       41.983784      41.983784      41.983784      0.98897249     838.1537      -290.23097      973.63356    
     33000   33000          432.44739     -877.41792      9921.6779      10869.724      9047.7965      1821.9277      3444.3496      6826.9359     -8119.7268     -85.517946     -2403.8535      7023.176      -4863.4355     -433.30587      74087.881      41.999978      41.999978      41.999978      0.98782903    -2564.2594     -577.62884      509.63447    
     33500   33500          435.05615      95.964601      10907.975      10803.48       9102.3778      1701.1019      3486.6389      6602.0821     -8077.3646     -79.090115     -2382.6915      7010.8797     -4859.3525     -429.96229      74664.022      42.108567      42.108567      42.108567      0.9802065      1801.0295     -903.55574     -609.58       
     34000   34000          433.86385     -887.80929      9797.1876      10766.022      9077.4322      1688.5897      3498.9551      6579.7534     -8103.042      -78.041461     -2313.973       6976.3734     -4871.4357     -429.03012      74826.246      42.139042      42.139042      42.139042      0.9780814     -1330.6641     -664.60865     -668.15513    
     34500   34500          436.03498      48.430989      10700.331      10647.662      9122.8571      1524.805       3308.3964      6683.4327     -8136.7794     -74.308238     -2377.5142      6988.5396     -4866.9619     -430.51599      74567.994      42.090507      42.090507      42.090507      0.9814688      636.57173     -828.12851      336.84975    
     35000   35000          440.73985     -27.39447       10840.726      10870.466      9221.2939      1649.1718      3445.3869      6661.5253     -8154.83       -76.399971     -2333.8491      6982.294      -4874.9553     -431.25964      74439.411      42.066299      42.066299      42.066299      0.98316415    -892.4421       24.556721      785.70197    
     35500   35500          441.39445      243.21893      11223.373      10958.641      9234.9895      1723.6518      3496.9216      6591.3216     -8092.8336     -72.027183     -2299.392       6973.3699     -4873.7086     -430.13875      74633.391      42.102808      42.102808      42.102808      0.98060879     433.66875     -816.0416       1112.0296    
     36000   36000          441.26243     -729.42671      10091.88       10884.426      9232.2275      1652.1986      3483.5791      6626.0354     -8140.3243     -75.068213     -2349.1252      6977.6347     -4870.5328     -430.89804      74501.879      42.078063      42.078063      42.078063      0.98233978     160.95401     -1842.7991     -506.4351     
     36500   36500          431.02585      151.92456      10741.615      10576.719      9018.0545      1558.6646      3480.3681      6487.1501     -8136.6268     -74.696917     -2319.8433      6990.4363     -4868.1229     -431.35709      74422.594      42.063131      42.063131      42.063131      0.9833863      169.55012     -210.53716      496.76071    
     37000   37000          437.24883      122.04206      10851.743      10720.051      9148.2536      1571.7973      3462.0181      6543.7993     -8064.0222     -76.142159     -2411.6953      6990.5351     -4872.6955     -433.87777      73990.225      41.981516      41.981516      41.981516      0.98913281    -815.37406     -307.0697       1488.5699    
     37500   37500          446.64955     -765.30106      10327.425      11151.138      9344.9385      1806.1998      3520.127       6731.1965     -8066.8653     -77.562805     -2404.001       6975.4644     -4872.1591     -434.98452      73801.968      41.94588       41.94588       41.94588       0.99165593    -1000.1262     -179.32667     -1116.4503    
     38000   38000          435.56088     -911.57421      9822.1886      10819.09       9112.938       1706.1522      3566.5148      6493.4311     -8063.3326     -74.023414     -2351.707       7002.8947     -4867.6253     -428.11195      74986.726      42.169145      42.169145      42.169145      0.9759882     -2093.9527     -1054.8321      414.06225    
     38500   38500          431.29084      1394.5417      12339.025      10821.662      9023.5988      1798.0634      3524.215       6657.0069     -8091.3303     -76.243292     -2353.2313      7000.7838     -4863.1374     -430.28844      74607.428      42.097925      42.097925      42.097925      0.98095004     2569.9671      193.51266      1420.1454    
     39000   39000          446.38713      1320.6599      12580.457      11152.577      9339.448       1813.1291      3359.482       6832.7082     -8146.248      -81.594368     -2305.8118      7012.2192     -4857.6261     -433.02881      74135.284      42.008933      42.008933      42.008933      0.9871974      3814.8613      690.62088     -543.50262    
     39500   39500          446.44947      812.82352      12038.982      11149.676      9340.7524      1808.924       3489.0679      6587.5506     -8034.3213     -75.804437     -2309.5734      7014.1728     -4862.1682     -427.92006      75020.351      42.175447      42.175447      42.175447      0.97555074     175.73638      884.1955       1378.5387    
     40000   40000          442.51426      363.59143      11382.026      10985.591      9258.4186      1727.1726      3448.6555      6563.0996     -8050.0654     -76.691726     -2313.8782      7019.7791     -4863.7263     -429.39759      74762.212      42.127018      42.127018      42.127018      0.97891913    -1129.9563     -37.151241      2257.8819    
     40500   40500          439.11069     -585.20396      10385.734      11023.298      9187.2082      1836.0895      3556.2024      6632.5957     -8057.8069     -79.1801       -2348.4863      7005.3331     -4872.5685     -429.73572      74703.387      42.115966      42.115966      42.115966      0.97968998    -107.75598     -867.32993     -780.52599    
     41000   41000          432.21929      2043.1889      13032.766      10807.917      9043.0242      1764.8929      3489.1401      6550.5048     -8079.6959     -73.715261     -2277.9088      7015.4645     -4858.8965     -429.95765      74664.828      42.108718      42.108718      42.108718      0.98019592     906.99299      1773.295       3449.2788    
     41500   41500          435.74508      309.99583      11133.839      10795.893      9116.7918      1679.1015      3402.6164      6535.867      -8080.5904     -75.396609     -2254.4725      7018.788      -4867.7104     -429.46379      74750.688      42.124853      42.124853      42.124853      0.97907005    -1365.382       872.88762      1422.4819    
     42000   42000          439.58465     -1244.1534      9617.7866      10972.563      9197.1245      1775.4389      3490.1909      6651.6095     -8059.1307     -76.311074     -2389.8504      7023.3214     -4864.3906     -429.95579      74665.15       42.108779      42.108779      42.108779      0.98019169    -2110.9089     -460.55048     -1161.0009    
     42500   42500          436.63112      1475.7148      12514.99       10917.035      9135.3299      1781.705       3511.1351      6649.6035     -8054.1263     -77.54891      -2387.4865      7008.2328     -4868.1047     -432.36994      74248.255      42.030261      42.030261      42.030261      0.98569536     1015.5796      1105.4909      2306.0739    
     43000   43000          445.54573      891.17507      12069.496      11097.725      9321.844       1775.8814      3450.546       6682.6299     -8054.4443     -77.978717     -2376.1706      7017.8047     -4866.5056     -429.35553      74769.535      42.128393      42.128393      42.128393      0.97882326     1674.0212      2334.1235     -1334.6196    
     43500   43500          443.05066      889.11825      12095.002      11131.464      9269.6414      1861.823       3500.1959      6547.8942     -7943.9922     -76.827474     -2319.9656      7021.0772     -4866.559      -432.02448      74307.626      42.041461      42.041461      42.041461      0.98490779     516.38372      2152.0095     -1.0384456    
     44000   44000          440.81777      1354.4425      12564.828      11103.269      9222.9242      1880.345       3585.5449      6684.8818     -8052.827      -75.097635     -2410.2463      7015.0952     -4867.006      -433.87231      73991.155      41.981692      41.981692      41.981692      0.98912039     2577.6049      2101.9347     -616.21216    
     44500   44500          439.07019     -761.57665      10044.659      10878.868      9186.3608      1692.507       3476.0974      6546.0721     -8081.5398     -75.152097     -2330.5948      7019.6612     -4862.0369     -427.42172      75107.82       42.191832      42.191832      42.191832      0.97441464    -1471.2819      440.71601     -1254.164     
     45000   45000          444.20141      659.97816      11578.392      10859.387      9293.7177      1565.669       3396.0291      6485.1321     -8023.487      -75.837437     -2365.98        7011.6026     -4861.7905     -429.74905      74701.07       42.11553       42.11553       42.11553       0.97972036     817.18082     -201.92786      1364.6815    
     45500   45500          446.00145     -1134.6031      9744.3226      10984.009      9331.3787      1652.6301      3537.0488      6470.4711     -8063.0066     -71.220947     -2344.8663      6987.6761     -4863.4722     -428.49902      74918.99       42.156444      42.156444      42.156444      0.97687062    -2424.4363     -1168.0784      188.70539    
     46000   46000          440.28484      326.68559      11462.911      11106.402      9211.7741      1894.6276      3622.3055      6524.5633     -8029.7226     -72.724838     -2296.254       7010.7854     -4864.3253     -429.01975      74828.056      42.139381      42.139381      42.139381      0.97805775     1560.2209     -327.70267     -252.4615     
     46500   46500          446.03877     -493.03766      10626.192      11162.7        9332.1595      1830.5403      3517.9905      6623.4381     -8039.4073     -76.603384     -2329.2417      7002.592      -4868.2281     -430.25105      74613.911      42.099144      42.099144      42.099144      0.98086481    -672.74005     -1711.6005      905.22756    
     47000   47000          439.49844      268.9148       11284.204      10991.603      9195.3208      1796.2827      3581.3198      6539.888      -8125.6298     -74.845304     -2285.9461      7020.5531     -4859.0571     -430.28655      74607.755      42.097986      42.097986      42.097986      0.98094575     1367.829      -343.09598     -217.98863    
     47500   47500          439.803       -1417.9917      9448.0633      10989.566      9201.6929      1787.8726      3468.7106      6582.2715     -7994.9855     -75.452745     -2334.4637      7001.5444     -4859.7519     -430.67253      74540.89       42.085406      42.085406      42.085406      0.98182568    -1306.8414     -893.57286     -2053.5609    
     48000   48000          442.68019      560.73209      11407.771      10805.174      9261.8904      1543.2832      3436.3693      6617.3951     -8177.0738     -74.5481       -2406.3808      7010.3739     -4862.8524     -435.65803      73687.873      41.924254      41.924254      41.924254      0.99319137     100.92854      653.65103      927.6167     
     48500   48500          438.02489     -140.49586      10682.47       10835.014      9164.4906      1670.5239      3516.8841      6524.2044     -8103.1916     -71.80085      -2332.7171      7003.3331     -4866.1881     -431.20664      74448.56       42.068023      42.068023      42.068023      0.98304332    -195.2626      -1221.3311      995.1061     
     49000   49000          445.54625     -1.5441715      11113.249      11114.933      9321.8549      1793.0781      3512.8641      6598.0084     -8037.3271     -74.871343     -2348.5509      7006.1376     -4863.1827     -429.38105      74765.091      42.127558      42.127558      42.127558      0.97888143     2951.3181     -1361.8907     -1594.06      
     49500   49500          433.92355     -251.79994      10462.028      10733.905      9078.6811      1655.2237      3456.4633      6577.7161     -8094.172      -75.186518     -2343.906       7003.8013     -4869.4925     -433.61189      74035.593      41.990095      41.990095      41.990095      0.98852669     1321.1694     -348.05638     -1728.5128    
     50000   50000          437.13844     -1313.9631      9356.9263      10776.861      9145.9441      1630.9171      3576.7309      6454.0595     -8080.0522     -70.962787     -2400.9049      7012.9903     -4860.9438     -433.24382      74098.491      42.001982      42.001982      42.001982      0.98768758    -1753.4063     -936.92191     -1251.5611    
Loop time of 99.09 on 1 procs for 50000 steps with 7020 atoms

Performance: 43.597 ns/day, 0.550 hours/ns, 504.592 timesteps/s, 3.542 Matom-step/s
100.0% CPU use with 1 MPI tasks x 1 OpenMP threads

MPI task timing breakdown:
Section |  min time  |  avg time  |  max time  |%varavg| %total
---------------------------------------------------------------
Pair    | 12.085     | 12.085     | 12.085     |   0.0 | 12.20
Bond    | 11.084     | 11.084     | 11.084     |   0.0 | 11.19
Kspace  | 47.453     | 47.453     | 47.453     |   0.0 | 47.89
Neigh   | 9.0436     | 9.0436     | 9.0436     |   0.0 |  9.13
Comm    | 1.58       | 1.58       | 1.58       |   0.0 |  1.59
Output  | 0.0098062  | 0.0098062  | 0.0098062  |   0.0 |  0.01
Modify  | 15.717     | 15.717     | 15.717     |   0.0 | 15.86
Other   |            | 2.118      |            |       |  2.14

Nlocal:           7020 ave        7020 max        7020 min
Histogram: 1 0 0 0 0 0 0 0 0 0
Nghost:          19000 ave       19000 max       19000 min
Histogram: 1 0 0 0 0 0 0 0 0 0
Neighs:              0 ave           0 max           0 min
Histogram: 1 0 0 0 0 0 0 0 0 0
FullNghs:  4.23915e+06 ave 4.23915e+06 max 4.23915e+06 min
Histogram: 1 0 0 0 0 0 0 0 0 0

Total # of neighbors = 4239154
Ave neighs/atom = 603.86809
Ave special neighs/atom = 5.7008547
Neighbor list builds = 1911
Dangerous builds = 0
  unfix npt_tg
  shell echo '{"stage":"T${temps}","status":"done"}' >> /home/alexzhao/PolyJarvis/data/PEG3/lammps/thermal/tg_sweep_r400/tg_progress.jsonl
  print "STAGE COMPLETE: Tg step T=${temps}K P=1.0atm steps=50000"
STAGE COMPLETE: Tg step T=440K P=1.0atm steps=50000
  next temps
  jump SELF TEMP_LOOP
  timestep 1
  fix npt_tg all npt temp ${temps} ${temps} 100 iso 1.0 1.0 1000.0
  fix npt_tg all npt temp 420 ${temps} 100 iso 1.0 1.0 1000.0
  fix npt_tg all npt temp 420 420 100 iso 1.0 1.0 1000.0
  run 50000
PPPM Kokkos initialization ...
  using 12-bit tables for long-range coulomb
  G vector (1/distance) = 0.30115137
  grid = 30 30 30
  stencil order = 5
  estimated absolute RMS force accuracy = 0.0003274182
  estimated relative force accuracy = 9.860102e-07
  using double precision cuFFT
  3d grid and FFT values/proc = 50653 27000
Generated 10 of 10 mixed pair_coeff terms from sixthpower/sixthpower mixing rule
Per MPI rank memory allocation (min/avg/max) = 32.71 | 32.71 | 32.71 Mbytes
   Step          Time           Temp          Press         Enthalpy        TotEng         KinEng         PotEng         E_bond        E_angle        E_dihed        E_impro         E_vdwl         E_coul         E_long         E_tail         Volume           Lx             Ly             Lz          Density          Pxx            Pyy            Pzz      
     50000   50000          437.13844     -1313.986       9356.8995      10776.859      9145.9441      1630.915       3576.7309      6454.0595     -8080.0522     -70.962787     -2400.9049      6983.108      -4831.0635     -433.24382      74098.491      42.001982      42.001982      42.001982      0.98768758    -1753.4311     -936.94878     -1251.5782    
     50500   50500          417.40245     -682.60307      9137.2638      9872.5628      8733.0216      1139.5412      3388.0072      6181.2618     -8087.0699     -72.780002     -2440.6821      7000.3361     -4829.5319     -434.63217      73861.798      41.957212      41.957212      41.957212      0.99085267    -808.28914      441.17467     -1680.6947    
     51000   51000          415.75488     -705.32935      9171.1925      9925.6352      8698.5506      1227.0846      3286.038       6363.6687     -8086.1026     -73.291691     -2416.7217      6985.2056     -4831.7117     -437.70683      73342.958      41.858739      41.858739      41.858739      0.99786212    -515.91595     -986.53445     -613.53765    
     51500   51500          418.10727     -1288.043       8633.7181      10028.722      8747.768       1280.9544      3314.5931      6483.406      -8110.285      -75.008045     -2477.8412      6982.416      -4836.3265     -432.28729      74262.451      42.032939      42.032939      42.032939      0.98550693    -678.96912     -1353.2086     -1831.9513    
     52000   52000          420.61341     -827.85703      9211.8434      10105.919      8800.2023      1305.7171      3304.6844      6364.9894     -8113.7848     -74.767292     -2328.3322      6985.017      -4832.0894     -433.50938      74053.1        41.993404      41.993404      41.993404      0.988293      -1251.2077     -1054.2381     -178.12536    
     52500   52500          414.51237     -771.38409      8926.6947      9753.5915      8672.5545      1081.0371      3271.9852      6392.3649     -8174.387      -70.376244     -2490.6964      6987.3732     -4835.2267     -436.7541       73502.947      41.889153      41.889153      41.889153      0.99569015    -834.86733     -979.20718     -500.07775    
     53000   53000          414.26433      259.26209      10247.47       9969.0477      8667.3649      1301.6828      3367.6923      6372.2753     -8144.1053     -71.105656     -2379.7394      6992.3747     -4835.7091     -435.96563      73635.881      41.914391      41.914391      41.914391      0.99389263    -1330.4915      78.102945      2030.1748    
     53500   53500          420.25187      173.34168      10231.428      10046.425      8792.6381      1253.7872      3439.2576      6443.5674     -8185.6624     -69.631334     -2500.4477      6966.9469     -4840.2433     -438.67507      73181.076      41.827919      41.827919      41.827919      1.0000695     -864.84119      842.23416      542.63207    
     54000   54000          422.8921      -740.25937      9372.7214      10168.378      8847.8779      1320.5001      3427.6261      6325.311      -8114.4388     -77.378006     -2377.3882      6974.4447     -4837.6768     -435.58799      73699.721      41.926501      41.926501      41.926501      0.9930317      354.25355     -2234.7012     -340.33049    
     54500   54500          427.73173      620.35663      10845.915      10178.846      8949.1339      1229.7119      3274.2698      6314.2735     -8093.9115     -68.456807     -2330.0479      6969.6291     -4836.0444     -435.39997      73731.548      41.932535      41.932535      41.932535      0.99260305     853.67615      164.84571      842.54802    
     55000   55000          419.27477      403.85838      10461.181      10030.283      8772.1949      1258.088       3428.4113      6301.3529     -8147.5208     -69.380416     -2390.7009      6969.594      -4833.6681     -438.80565      73159.299      41.82377       41.82377       41.82377       1.0003672      2334.6495     -552.89517     -570.17917    
     55500   55500          418.81169      85.471791      10163.383      10070.904      8762.5063      1308.3981      3278.1688      6550.6995     -8156.3057     -74.45243      -2410.0174      6956.7091     -4836.4037     -432.71314      74189.366      42.019146      42.019146      42.019146      0.98647776     876.65951      1160.8829     -1781.127     
     56000   56000          419.18809      958.12552      10911.024      9885.8563      8770.3814      1115.4749      3340.5041      6356.284      -8104.5386     -76.925584     -2525.0171      6962.4155     -4837.2475     -437.56777      73366.267      41.863173      41.863173      41.863173      0.9975451      785.82788      1491.3365      597.21216    
     56500   56500          412.64703      545.85192      10487.854      9901.6506      8633.5274      1268.1232      3354.132       6509.6673     -8172.4922     -73.091042     -2475.2836      6959.6294     -4834.4387     -435.95765      73637.23       41.914647      41.914647      41.914647      0.99387442     917.76186      452.4236       267.37029    
     57000   57000          417.85943     -580.46858      9201.0495      9831.2357      8742.5828      1088.6529      3285.8793      6375.9313     -8169.8084     -72.922952     -2453.5         6960.6928     -4837.6192     -431.2484       74441.352      42.066665      42.066665      42.066665      0.98313851    -1185.1421     -571.06277      14.799129    
     57500   57500          418.43645      851.30673      10700.482      9782.2151      8754.6553      1027.5598      3249.0512      6251.3188     -8092.8813     -74.883178     -2429.0615      6961.2929     -4837.2771     -434.04515      73961.692      41.976119      41.976119      41.976119      0.98951441     939.81466     -271.64564      1885.7512    
     58000   58000          418.00986     -300.1743       9624.391       9948.0011      8745.7301      1202.2709      3354.4132      6423.3668     -8157.7537     -69.414545     -2467.1803      6959.0525     -4840.213      -434.2793       73921.815      41.968573      41.968573      41.968573      0.9900482      579.71915     -1737.5009      257.25886    
     58500   58500          417.31802      369.63476      10417.835      10020.92       8731.2552      1289.6653      3385.9827      6412.1066     -8110.7764     -66.776321     -2465.7311      6972.2171     -4837.3573     -436.00723      73628.855      41.913058      41.913058      41.913058      0.99398747     150.18972      268.24488      690.46968    
     59000   59000          421.26453      1288.1141      11450.072      10065.19       8813.8254      1251.365       3277.235       6438.3067     -8065.5187     -72.161495     -2440.7261      6956.2666     -4842.037      -435.47105      73719.514      41.930253      41.930253      41.930253      0.99276509     183.0081       3767.6273     -86.293218    
     59500   59500          422.47581     -200.34764      9925.4453      10141.023      8839.1681      1301.8547      3386.2915      6458.0611     -8181.1778     -74.237404     -2400.7043      6955.2687     -4841.6471     -435.10942      73780.783      41.941867      41.941867      41.941867      0.99194067    -59.98448      -180.85797     -360.20047    
     60000   60000          419.8669      -1009.8399      8773.7265      9850.6577      8784.5836      1066.0741      3334.1505      6239.6624     -8090.6368     -64.897384     -2451.0584      6947.4724     -4848.6187     -439.01791      73123.927      41.817029      41.817029      41.817029      1.0008511     -0.96262565    -851.32907     -2177.2281    
     60500   60500          426.21278     -637.44877      9494.7133      10181.732      8917.354       1264.3784      3300.9903      6468.5047     -8087.4904     -75.280446     -2460.3327      6958.3828     -4840.3959     -434.40429      73900.545      41.964548      41.964548      41.964548      0.99033315     158.05415     -839.84936     -1230.5511    
     61000   61000          422.9567       210.58904      10279.464      10053.96       8849.2295      1204.7302      3255.9079      6552.1829     -8146.0092     -71.52067      -2502.1825      6955.6406     -4839.2887     -437.21829      73424.91       41.874324      41.874324      41.874324      0.99674837    -548.04616     -561.42568      1741.2389    
     61500   61500          418.75276     -411.36457      9442.3276      9882.7525      8761.2733      1121.4793      3336.257       6337.5087     -8140.637      -74.937059     -2466.8727      6963.1144     -4832.9541     -437.29304      73412.359      41.871938      41.871938      41.871938      0.99691878    -691.57721      1082.1932     -1624.7097    
     62000   62000          423.57088     -117.90525      9904.0427      10030.487      8862.0795      1168.407       3256.5101      6397.5741     -8088.4412     -71.394584     -2455.2377      6963.4859     -4834.0896     -436.56935      73534.053      41.895062      41.895062      41.895062      0.99526895    -1867.6768      836.9554       677.00562    
     62500   62500          421.67117      15.213516      10018.855      10002.526      8822.3331      1180.1928      3308.6801      6312.0202     -8105.9985     -71.934464     -2395.7804      6971.4416     -4838.2357     -436.18995      73598.014      41.907205      41.907205      41.907205      0.994404      -260.49281     -65.655955      371.78932    
     63000   63000          418.08348      86.465158      9948.2049      9855.0655      8747.2704      1107.7952      3341.7962      6227.2349     -8066.3869     -70.030718     -2445.1787      6958.8998     -4838.5394     -434.63584      73861.175      41.957094      41.957094      41.957094      0.99086103     1748.9401     -1616.3475      126.80289    
     63500   63500          416.06858     -542.46238      9361.2582      9942.2687      8705.114       1237.1547      3341.2174      6361.6879     -8092.8852     -72.091183     -2399.2745      6943.3836     -4844.8833     -437.12266      73440.973      41.877377      41.877377      41.877377      0.99653037    -752.83036     -641.13738     -233.41941    
     64000   64000          418.76448     -208.56985      9750.1243      9973.7997      8761.5185      1212.2812      3367.7287      6267.8127     -8039.2091     -60.8941       -2437.6487      6956.8781     -4842.3865     -436.56703      73534.443      41.895136      41.895136      41.895136      0.99526367     1707.3629      10.740975     -2343.8134    
     64500   64500          418.12874      892.92972      10767.405      9807.4934      8748.2172      1059.2762      3310.144       6394.9341     -8235.6929     -75.262877     -2450.7276      6954.3854     -4838.5039     -435.51572      73711.951      41.928819      41.928819      41.928819      0.99286695     899.47081      1790.0179     -10.699544    
     65000   65000          416.83006      1049.6089      11020.776      9883.2805      8721.046       1162.2345      3233.1089      6458.7471     -8196.1514     -73.648082     -2372.8801      6950.5507     -4837.4926     -432.01177      74309.813      42.041873      42.041873      42.041873      0.98487881     2479.1771     -469.34513      1138.9947    
     65500   65500          423.64323     -1590.8558      8362.4607      10091.216      8863.5933      1227.6226      3335.5186      6329.3502     -8118.6227     -68.264357     -2361.7123      6948.7112     -4837.3582     -430.83898      74512.093      42.079986      42.079986      42.079986      0.98220513    -682.51562     -304.73635     -3785.3155    
     66000   66000          427.45025     -8.1510265      10264.333      10273.12       8943.2449      1329.8747      3234.5555      6565.557      -8072.0612     -75.946591     -2440.3691      6952.9392     -4834.8003     -434.33821      73911.788      41.966676      41.966676      41.966676      0.9901825     -1016.6496     -151.67477      1143.8713    
     66500   66500          422.51699      477.07665      10682.297      10165.031      8840.0296      1325.0019      3416.729       6450.7912     -8155.064      -75.370442     -2436.6255      6962.3056     -4837.7639     -431.80939      74344.64       42.04844       42.04844       42.04844       0.98441743    -401.04469      1231.954       600.32069    
     67000   67000          421.90022      1033.5709      11102.767      9999.9217      8827.1253      1172.7963      3346.2094      6328.1913     -8099.4952     -72.163844     -2477.5439      6981.4218     -4833.8233     -438.77655      73164.151      41.824695      41.824695      41.824695      1.0003008      784.21177      1683.4821      633.01887    
     67500   67500          416.34992      967.115        10962.796      9923.3944      8711.0004      1212.394       3376.7251      6217.6919     -8003.7434     -68.060894     -2443.5841      6965.7575     -4832.3921     -435.62461      73693.526      41.925326      41.925326      41.925326      0.99311518     1582.2061      1442.8134     -123.67446    
     68000   68000          419.51384     -884.054        9125.7673      10076.483      8777.1969      1299.2856      3370.051       6387.7487     -8114.3899     -69.459819     -2421.6619      6979.818      -4832.8205     -435.35746      73738.747      41.9339        41.9339        41.9339        0.99250614    -224.61891     -590.01978     -1837.5233    
     68500   68500          420.26967      1071.9524      11128.72       9979.93        8793.0105      1186.9196      3319.1982      6447.3276     -8180.049      -72.767884     -2484.0374      6990.6449     -4833.3968     -436.8703       73483.397      41.885439      41.885439      41.885439      0.99595504     764.88932      2779.2575     -328.28958    
     69000   69000          419.28177      482.71216      10469.686      9953.2833      8772.3413      1180.942       3186.158       6372.6486     -8081.0373     -73.714704     -2399.0767      7004.6286     -4828.6644     -437.64055      73354.066      41.860852      41.860852      41.860852      0.99771102     637.16982      1124.3909     -313.42427    
     69500   69500          422.51517      163.56719      10222.738      10046.723      8839.9915      1206.732       3384.6701      6324.5242     -8157.6051     -68.331298     -2428.7854      6980.8412     -4828.5817     -435.07646      73786.372      41.942926      41.942926      41.942926      0.99186554    -759.44461      1473.4278     -223.28157    
     70000   70000          425.50692      631.83219      10882.753      10196.147      8902.586       1293.5614      3355.6132      6399.5341     -8173.8901     -73.44281      -2366.8756      6988.9463     -4836.3236     -430.83627      74512.561      42.080074      42.080074      42.080074      0.98219895     3778.4607      229.30313     -2112.2672    
     70500   70500          417.86262      740.19166      10719.881      9920.3941      8742.6495      1177.7446      3253.2548      6405.6931     -8125.4747     -74.664486     -2422.3186      6978.1988     -4836.9444     -433.4612       74061.331      41.99496       41.99496       41.99496       0.98818315     999.41617      1435.1683     -214.00943    
     71000   71000          418.91176      253.07891      10285.21       10014.275      8764.5999      1249.675       3393.2654      6246.7638     -8061.2019     -67.941387     -2418.5152      6994.14       -4836.8357     -437.32973      73406.199      41.870767      41.870767      41.870767      0.99700244     672.96793      673.22108     -586.95227    
     71500   71500          416.9178      -120.56572      9981.0245      10111.989      8722.8817      1389.1068      3428.285       6382.6863     -8098.9614     -76.252259     -2395.8245      6980.6473     -4831.4738     -431.0122       74482.145      42.074348      42.074348      42.074348      0.98260005     162.51229     -538.91221      14.702765    
     72000   72000          419.72084      1046.351       11132.786      10001.624      8781.5277      1220.0959      3293.0108      6270.4443     -8050.5601     -67.15957      -2376.5034      6987.2208     -4836.357      -433.08176      74126.22       42.007221      42.007221      42.007221      0.98731811     1421.5467      117.89277      1599.6135    
     72500   72500          418.48156      275.47676      10282.933      9986.1668      8755.599       1230.5677      3249.9096      6477.5427     -8108.0792     -72.608106     -2437.779       6960.7185     -4839.1367     -434.59847      73867.526      41.958297      41.958297      41.958297      0.99077584     1911.2397     -634.68472     -450.12472    
     73000   73000          418.6564       448.78124      10422.888      9934.0066      8759.2572      1174.7494      3350.6093      6190.4566     -8093.2814     -68.640899     -2357.1853      6984.5432     -4831.7521     -429.78221      74695.305      42.114447      42.114447      42.114447      0.97979598     371.46073      991.43493     -16.551944    
     73500   73500          418.69297      1455.2044      11538.801      9963.3243      8760.0224      1203.3019      3265.1192      6355.5926     -8201.2985     -71.426587     -2297.7868      6984.3606     -4831.2586     -432.44372      74235.587      42.02787       42.02787       42.02787       0.98586355     392.44243      3049.6046      923.5663     
     74000   74000          416.96316     -328.96879      9541.7419      9896.2961      8723.8307      1172.4653      3334.566       6379.5823     -8118.2623     -70.216009     -2488.1282      6969.1581     -4834.2345     -434.3999       73901.291      41.964689      41.964689      41.964689      0.99032315     1528.1432     -1400.072      -1114.9776    
     74500   74500          412.4674      -1230.6207      8732.2217      10060.632      8629.769       1430.8633      3388.5511      6505.4626     -8102.9476     -74.778839     -2421.9241      6972.8607     -4836.3605     -433.72004      74017.132      41.986604      41.986604      41.986604      0.98877325    -1979.6064     -1534.1454     -178.11032    
     75000   75000          424.84293     -61.247589      10186.995      10253.636      8888.6936      1364.9422      3434.4311      6418.1115     -8138.8964     -76.475889     -2433.8802      6992.8183     -4831.1662     -430.29472      74606.339      42.09772       42.09772       42.09772       0.98096437     2592.4375     -1023.3119     -1752.8683    
     75500   75500          420.81257     -1671.5664      8252.4642      10044.737      8804.3692      1240.3681      3291.4322      6310.4819     -8043.6133     -72.993869     -2401.2402      6982.6861     -4826.3848     -436.65363      73519.86       41.892366      41.892366      41.892366      0.99546109    -428.73048     -1752.853      -2833.1157    
     76000   76000          420.91195     -227.29393      9662.3783      9906.048       8806.4485      1099.5995      3262.4358      6325.5408     -8088.0125     -73.041        -2467.1002      6978.2067     -4838.43       -436.72084      73508.545      41.890217      41.890217      41.890217      0.99561431     862.60724     -132.21045     -1412.2786    
     76500   76500          416.52083     -1212.8019      8463.8547      9771.1943      8714.5761      1056.6182      3242.2426      6308.0465     -8155.9805     -68.819598     -2441.1542      6998.8415     -4826.5581     -434.32924      73913.315      41.966965      41.966965      41.966965      0.99016205    -1477.9949     -2425.5596      265.14895    
     77000   77000          416.85178     -1145.6683      8534.8917      9766.6007      8721.5004      1045.1003      3236.9921      6348.0051     -8176.9637     -72.133669     -2434.7256      6981.1544     -4837.2284     -435.48021      73717.962      41.929959      41.929959      41.929959      0.99278598    -3251.361      -314.2607       128.6167     
     77500   77500          425.19214      640.37766      10749.908      10057.188      8895.9999      1161.1883      3314.0897      6299.3955     -8182.2828     -68.397684     -2362.8156      6992.3015     -4831.1024     -432.80886      74172.958      42.016048      42.016048      42.016048      0.98669598     333.43638      1258.4006      329.29602    
     78000   78000          417.86258     -801.58701      9246.2349      10099.492      8742.6486      1356.8432      3421.44        6507.3934     -8115.3        -75.875319     -2535.1915      6995.298      -4840.9214     -439.83368      72988.302      41.791159      41.791159      41.791159      1.0027108     -156.8055       72.809669     -2320.7652    
     78500   78500          415.01426     -51.353611      9705.6861      9760.3482      8683.0553      1077.2929      3244.5526      6348.5529     -8122.577      -78.681157     -2463.3458      6984.1552     -4835.3639     -439.8481       72985.909      41.790703      41.790703      41.790703      1.0027437      709.01609     -2043.9147      1180.8378    
     79000   79000          421.85052     -1223.9753      8711.1923      10030.528      8826.0855      1204.4421      3336.2046      6346.105      -8104.54       -75.29381      -2450.6754      6985.8276     -4833.1858     -434.34529      73910.583      41.966448      41.966448      41.966448      0.99019865    -2078.9496     -1522.6072     -70.369177    
     79500   79500          419.1268      -460.75114      9328.8197      9823.717       8769.0991      1054.6179      3288.4612      6185.2627     -8096.7487     -72.391999     -2396.5723      6980.3738     -4833.7668     -435.882        73650.009      41.917072      41.917072      41.917072      0.99370198    -1419.0968     -503.21182      540.05522    
     80000   80000          430.12515      584.52481      10951.359      10321.237      8999.2098      1322.0273      3344.0931      6410.7854     -8116.0945     -75.357428     -2411.7129      7003.5674     -4833.2537     -434.30589      73917.288      41.967717      41.967717      41.967717      0.99010883     1916.8238      717.42605     -880.67542    
     80500   80500          426.16936     -416.85831      9773.9428      10225.659      8916.4457      1309.2129      3390.248       6275.7362     -8136.0935     -71.518609     -2334.7198      7012.3029     -4826.7423     -432.05677      74302.074      42.040413      42.040413      42.040413      0.98498139     22.756965     -1590.118       316.78615    
     81000   81000          422.19855     -151.36692      10010.894      10173.274      8833.3672      1339.9064      3384.5289      6359.8168     -8096.1655     -72.849244     -2391.7448      6994.9812     -4838.6609     -436.43198      73557.199      41.899457      41.899457      41.899457      0.99495577    -324.84335      381.37335     -510.63075    
     81500   81500          416.47479     -606.33996      9360.3531      10008.997      8713.613       1295.3838      3273.9368      6493.4804     -8119.4051     -73.293257     -2438.6593      6992.9051     -4833.5808     -437.65069      73352.365      41.860529      41.860529      41.860529      0.99773415    -1420.0156      359.98008     -758.98439    
     82000   82000          420.04371      452.48312      10298.17       9814.6933      8788.2829      1026.4104      3251.414       6323.4437     -8155.8074     -70.398882     -2497.112       7004.0434     -4829.1724     -438.17215      73265.07       41.843916      41.843916      41.843916      0.99892295     865.67476     -1222.7063      1714.4809    
     82500   82500          417.40683      634.26298      10685.101      10001.832      8733.1133      1268.7189      3280.3428      6378.2396     -8106.5032     -70.85172      -2357.3544      6983.1255     -4838.2796     -434.60586      73866.269      41.958059      41.958059      41.958059      0.99079269     1032.0038      204.40274      666.38241    
     83000   83000          427.17944     -1586.6899      8561.9956      10278.815      8937.5789      1341.2359      3399.8616      6365.8711     -8084.3899     -74.620395     -2435.9607      6997.9858     -4827.5117     -432.69825      74191.92       42.019628      42.019628      42.019628      0.9864438     -1540.6552     -2317.4188     -901.99575    
     83500   83500          423.44105     -136.09791      10008.957      10155.091      8859.363       1295.7279      3384.141       6338.1425     -8104.1955     -76.150092     -2393.4283      6977.3716     -4830.1534     -436.03047      73624.932      41.912314      41.912314      41.912314      0.99404044    -205.76677     -473.90907      271.3821     
     84000   84000          419.02029     -149.95337      9747.3307      9908.8776      8766.8707      1142.0069      3232.0877      6378.6812     -8145.0007     -70.813404     -2398.6003      6977.1326     -4831.4802     -434.58553      73869.725      41.958713      41.958713      41.958713      0.99074634    -102.99611      964.6361      -1311.5001    
     84500   84500          418.02111     -246.19846      9545.2496      9810.9846      8745.9655      1065.0191      3289.1165      6249.9549     -8121.575      -70.898936     -2430.2698      6982.6751     -4833.9836     -433.76464      74009.522      41.985165      41.985165      41.985165      0.98887491     1026.7816     -2738.3697      972.99273    
     85000   85000          411.99893      809.4571       10559.852      9693.517       8619.9675      1073.5494      3242.8263      6249.237      -8121.694      -70.581392     -2367.4096      6976.2102     -4835.039      -437.44706      73386.512      41.867023      41.867023      41.867023      0.9972699     -982.70053      2610.4469      800.62494    
     85500   85500          422.81403      374.07427      10555.498      10150.676      8846.2444      1304.4316      3354.8984      6336.9941     -8052.5339     -68.913525     -2417.4668      6987.0656     -4835.6122     -432.62502      74204.478      42.021999      42.021999      42.021999      0.98627686     129.9847       581.91577      410.32233    
     86000   86000          421.28492     -701.6669       9377.0978      10139.144      8814.2519      1324.892       3359.0974      6366.0056     -8125.789      -73.521563     -2356.4086      6986.5244     -4831.0164     -431.08946      74468.798      42.071834      42.071834      42.071834      0.98277617     1443.4969     -2492.5353     -1055.9622    
     86500   86500          421.65424      1898.533       12144.496      10099.59       8821.9789      1277.611       3232.2155      6334.1647     -8092.8881     -72.235736     -2261.5287      6973.1729     -4835.2895     -434.67284      73854.888      41.955904      41.955904      41.955904      0.99094538     1215.488       1753.9447      2726.1664    
[...]
    876000   876000         100.43473     -859.49468     -5633.8253     -4813.0544      2101.326      -6914.3804      806.87672      2881.3228     -8949.3096     -25.257393     -3639.1271      6930.6126     -4919.4984     -490.27399      65479.129      40.305808      40.305808      40.305808      1.1177021     -1200.4237     -842.5019      -535.55841    
    876500   876500         100.32278     -319.34377     -5055.859      -4752.1084      2098.9839     -6851.0923      829.99247      2913.888      -8957.4653     -23.844872     -3623.7853      6930.7639     -4920.6412     -492.2196       65220.307      40.252632      40.252632      40.252632      1.1221376     -420.9786      -474.76601     -62.286692    
    877000   877000         99.862509      176.15466     -4616.6145     -4784.078       2089.354      -6873.4319      824.49876      2944.9044     -8965.0971     -24.226199     -3664.5733      6931.8311     -4920.7696     -492.48348      65185.361      40.245441      40.245441      40.245441      1.1227392      418.42426     -274.97693      385.01665    
    877500   877500         99.75541      -208.59991     -5033.237      -4834.1812      2087.1132     -6921.2944      800.70813      2903.2524     -8966.0633     -24.26826      -3653.0168      6936.5411     -4918.4477     -490.63307      65431.206      40.295973      40.295973      40.295973      1.1185207      34.517139     -578.84291     -81.47395     
    878000   878000         99.297         98.124107     -4718.9531     -4812.4082      2077.5222     -6889.9304      788.78882      2935.4911     -8949.6269     -22.947769     -3659.1139      6935.4697     -4917.9914     -491.57571      65305.736      40.270199      40.270199      40.270199      1.1206697      368.6319      -422.68023      348.42066    
    878500   878500         99.986996     -284.77443     -5071.8143     -4800.7531      2091.9585     -6892.7116      820.3008       2877.9307     -8937.752      -22.709333     -3639.4042      6929.5535     -4920.6311     -491.87104      65266.525      40.262138      40.262138      40.262138      1.121343       73.357474     -448.8778      -478.80295    
    879000   879000         100.08978     -66.369071     -4843.9007     -4780.8268      2094.109      -6874.9359      803.06707      2948.0277     -8974.7372     -24.010572     -3641.9467      6933.9779     -4919.3141     -492.64437      65164.073      40.241059      40.241059      40.241059      1.123106      -652.27259      650.41764     -197.25227    
    879500   879500         100.36101     -97.733911     -4906.0093     -4812.8202      2099.7838     -6912.6041      807.17631      2891.972      -8947.5336     -23.783692     -3656.1523      6935.6237     -4919.9065     -491.01887      65379.797      40.285416      40.285416      40.285416      1.1194002      112.16667     -455.36205      49.993643    
    880000   880000         99.685104      403.68626     -4435.9494     -4820.978       2085.6422     -6906.6202      790.09963      2862.6634     -8923.8569     -22.539431     -3633.0466      6939.0599     -4919.0002     -490.87235      65399.311      40.289424      40.289424      40.289424      1.1190662      460.54313      420.1411       330.37457    
    880500   880500         100.99546     -58.416633     -4853.5807     -4798.0611      2113.058      -6911.1191      804.982        2927.3757     -9003.3265     -23.31959      -3630.174       6932.2059     -4918.8625     -492.61495      65167.964      40.241861      40.241861      40.241861      1.1230389      273.41854     -693.67275      245.00431    
    881000   881000         98.95564       708.58433     -4136.9745     -4810.3846      2070.3801     -6880.7647      793.60793      2949.5084     -8953.3926     -23.475585     -3662.544       6934.3012     -4918.7702     -492.63993      65164.66       40.24118       40.24118       40.24118       1.1230959      773.47782      521.26688      831.00827    
    881500   881500         98.660836      138.35291     -4675.4005     -4806.916       2064.2122     -6871.1282      800.65445      2960.1161     -8971.2399     -26.14034      -3649.9871      6933.5368     -4918.0682     -492.52572      65179.771      40.244291      40.244291      40.244291      1.1228355      773.12826     -655.27952      297.20999    
    882000   882000         99.799692      24.425976     -4764.5418     -4787.8088      2088.0397     -6875.8485      818.80176      2870.173      -8940.6821     -23.005186     -3616.8804      6935.6218     -4919.8773     -491.50618      65314.974      40.272098      40.272098      40.272098      1.1205112      181.54451      149.68288     -257.94946    
    882500   882500         98.139597      321.78707     -4563.9679     -4869.8092      2053.3067     -6923.1159      802.92347      2906.7113     -8976.451      -24.06517      -3647.6139      6933.8661     -4918.4868     -492.59504      65170.598      40.242403      40.242403      40.242403      1.1229935      295.15545     -79.658134      749.8639     
    883000   883000         99.110969     -190.00014     -5035.6277     -4854.6161      2073.63       -6928.2461      807.98693      2860.8149     -8943.6897     -24.345043     -3639.8413      6930.2654     -4919.4373     -491.43405      65324.561      40.274068      40.274068      40.274068      1.1203468     -583.52492      336.35631     -322.83182    
    883500   883500         100.2603       139.2145      -4693.6637     -4825.5296      2097.6766     -6923.2061      805.18534      2896.615      -8948.6188     -24.34996      -3664.3077      6931.7844     -4919.5145     -494.27639      64948.912      40.196721      40.196721      40.196721      1.1268266      758.43762     -1185.06        844.26584    
    884000   884000         99.22429      -204.97193     -5006.4822     -4810.5828      2076.0009     -6886.5837      774.93982      2931.9998     -8960.3989     -24.32681      -3623.2591      6933.7395     -4919.278      -489.86793      65533.406      40.316942      40.316942      40.316942      1.1167764     -261.438       -44.019039     -309.45875    
    884500   884500         100.63357     -507.05898     -5283.401      -4798.6315      2105.4864     -6904.1178      796.5063       2892.8064     -8952.9793     -23.451082     -3634.3914      6936.5205     -4919.1292     -489.71202      65554.269      40.32122       40.32122       40.32122       1.1164209     -406.64662     -396.01959     -718.51072    
    885000   885000         99.366612     -63.109897     -4897.6676     -4837.6179      2078.9786     -6916.5965      803.44904      2891.8022     -8962.7959     -24.794187     -3644.2304      6937.297      -4917.3243     -492.04449      65243.518      40.257406      40.257406      40.257406      1.1217384     -382.24579     -560.31067      753.22677    
    885500   885500         100.05792      304.8559      -4562.1307     -4852.4522      2093.4423     -6945.8945      758.03473      2920.4474     -8982.8957     -25.687442     -3641.3093      6942.7698     -4917.254      -491.62388      65299.337      40.268884      40.268884      40.268884      1.1207795     -568.27812      1166.9808      315.86507    
    886000   886000         99.865118      625.01169     -4242.554      -4836.8818      2089.4085     -6926.2903      767.8376       2893.707      -8961.7224     -23.098538     -3609.8461      6927.0209     -4920.1887     -492.35662      65202.156      40.248897      40.248897      40.248897      1.12245        313.18861      170.07803      1391.7684    
    886500   886500         100.18574      110.62521     -4680.9192     -4786.2424      2096.1167     -6882.3591      782.38771      2906.5577     -8919.0591     -25.026553     -3645.1029      6937.6458     -4919.7618     -491.7536       65282.112      40.265343      40.265343      40.265343      1.1210753      347.09237     -139.68123      124.4645     
    887000   887000         100.70047     -33.66064      -4804.255      -4772.2356      2106.8861     -6879.1217      802.52175      2935.9627     -8970.5379     -24.313146     -3640.329       6936.496      -4918.922      -492.18305      65225.151      40.253628      40.253628      40.253628      1.1220543      484.1059       91.273541     -676.36136    
    887500   887500         98.857354      40.411644     -4776.2181     -4814.7528      2068.3238     -6883.0766      808.73379      2949.2859     -8979.0158     -24.757618     -3646.5728      6929.6881     -4920.4382     -490.98903      65383.77       40.286232      40.286232      40.286232      1.1193322     -8.4240121     -319.2788       448.93774    
    888000   888000         98.640045      770.75942     -4151.1491     -4884.6985      2063.7772     -6948.4757      772.80236      2875.3359     -8980.878      -24.273267     -3618.0848      6944.116      -4917.4939     -491.93431      65258.131      40.260412      40.260412      40.260412      1.1214872      419.00291      1082.3099      810.96544    
    888500   888500         98.92222       245.3295      -4617.749      -4852.0334      2069.6809     -6921.7143      773.14208      2901.0481     -8977.6144     -23.239121     -3611.3112      6936.2128     -4919.9526     -490.25722      65481.368      40.306267      40.306267      40.306267      1.1176639      590.00205      85.665837      60.320614    
    889000   889000         98.901667      368.29114     -4472.5105     -4823.5655      2069.2509     -6892.8165      788.66741      2915.4475     -8967.0786     -24.575139     -3619.8461      6933.7146     -4919.1462     -491.17207      65359.404      40.281227      40.281227      40.281227      1.1197495     -246.2329       128.56726      1222.5391    
    889500   889500         99.842066      292.70255     -4546.5945     -4824.9872      2088.9262     -6913.9135      793.36964      2910.9494     -8976.9214     -24.354765     -3637.9908      6939.1548     -4918.1203     -492.25068      65216.19       40.251785      40.251785      40.251785      1.1222085      389.3741       476.65933      12.074238    
    890000   890000         99.370417     -11.723855     -4823.3784     -4812.1976      2079.0583     -6891.2559      793.22451      2913.3067     -8952.2147     -24.265651     -3643.31        6939.3999     -4917.3966     -490.92644      65392.106      40.287944      40.287944      40.287944      1.1191895     -1798.7289      343.92419      1419.6331    
    890500   890500         100.8281      -233.94841     -5036.0163     -4813.0015      2109.5563     -6922.5578      797.68061      2929.9051     -8981.9382     -24.393198     -3660.7503      6934.5373     -4917.599      -491.13857      65363.862      40.282143      40.282143      40.282143      1.1196731     -768.55452      99.661546     -32.952268    
    891000   891000         101.78549     -306.90691     -5099.4561     -4807.5317      2129.5872     -6937.1189      794.99528      2876.4874     -8950.3472     -23.818061     -3646.7096      6932.3223     -4920.049      -492.21395      65221.055      40.252786      40.252786      40.252786      1.1221247      74.39122      -235.60999     -759.50196    
    891500   891500         100.57481      89.866236     -4710.7961     -4796.1988      2104.2568     -6900.4556      810.72127      2939.1701     -8979.2199     -22.884254     -3661.0941      6932.1212     -4919.27       -492.65474      65162.701      40.240777      40.240777      40.240777      1.1231296      35.739996     -297.93014      531.78885    
    892000   892000         98.959304     -417.04687     -5233.3033     -4836.7231      2070.4568     -6907.1799      804.18499      2921.3864     -8987.9474     -23.652059     -3640.0953      6937.4522     -4918.5088     -492.34727      65203.395      40.249152      40.249152      40.249152      1.1224287     -523.29796     -171.35789     -556.48475    
    892500   892500         100.71015      248.95035     -4585.8729     -4822.4477      2107.0885     -6929.5362      788.98031      2908.4846     -8993.5117     -23.364975     -3632.0889      6941.3785     -4919.4141     -492.67655      65159.817      40.240183      40.240183      40.240183      1.1231793      12.735589     -201.31409      935.42957    
    893000   893000         101.41555      275.71087     -4513.2204     -4775.3911      2121.8472     -6897.2383      794.90295      2926.9685     -8988.6598     -23.296041     -3622.7392      6932.927      -4917.3417     -492.36519      65201.022      40.248664      40.248664      40.248664      1.1224695     -105.61131      1090.5616     -157.81772    
    893500   893500         100.65645     -159.36726     -4959.8079     -4808.0292      2105.9651     -6913.9943      774.6533       2885.9355     -8928.6302     -23.110248     -3639.288       6936.1389     -4919.6936     -491.59347      65303.377      40.269714      40.269714      40.269714      1.1207102     -816.22949      463.4261      -125.2984     
    894000   894000         99.694856      975.92891     -3884.4448     -4811.3078      2085.8463     -6897.1541      801.02148      2921.5883     -8975.6417     -25.126961     -3634.5032      6933.5494     -4918.0414     -492.96974      65121.063      40.232204      40.232204      40.232204      1.1238477      1636.7129      159.10159      1131.9723    
    894500   894500         99.399675     -551.02829     -5389.7724     -4865.4203      2079.6704     -6945.0907      794.05366      2864.1817     -8949.0157     -22.972436     -3645.939       6933.5469     -4918.9458     -492.00388      65248.904      40.258514      40.258514      40.258514      1.1216458     -38.687133     -685.6455      -928.75223    
    895000   895000         100.04383      129.77709     -4696.1636     -4819.673       2093.1475     -6912.8205      784.88524      2907.955      -8972.1265     -23.623901     -3631.3728      6938.8217     -4917.3592     -491.94385      65256.865      40.260151      40.260151      40.260151      1.121509       465.30815     -172.94809      96.971215    
    895500   895500         99.30568       81.613691     -4722.328      -4800.1017      2077.7038     -6877.8055      817.58074      2941.631      -8999.7666     -24.361796     -3632.0784      6936.843      -4917.6536     -491.30112      65342.236      40.2777        40.2777        40.2777        1.1200437     -367.41375      1264.5006     -652.24582    
    896000   896000         99.289744      536.69674     -4336.3316     -4846.3106      2077.3704     -6923.681       795.4078       2952.4209     -8984.3597     -23.056772     -3677.4322      6933.1701     -4919.8311     -492.71333      65154.953      40.239182      40.239182      40.239182      1.1232632      102.18904      1352.4334      155.46778    
    896500   896500         99.026528     -103.88137     -4958.0724     -4859.2398      2071.8633     -6931.1031      792.56798      2915.828      -8971.9574     -23.330518     -3656.8388      6932.4812     -4919.8536     -492.10187      65235.911      40.255842      40.255842      40.255842      1.1218692      197.12486     -412.65469     -96.114279    
    897000   897000         99.209279     -33.348935     -4857.6955     -4825.9766      2075.6869     -6901.6634      799.91365      2885.9533     -8929.4844     -23.209726     -3647.8962      6932.2364     -4919.1764     -492.2438       65217.1        40.251972      40.251972      40.251972      1.1221928     -355.19909      288.96354     -33.811257    
    897500   897500         101.16291     -397.58434     -5181.2158     -4801.5539      2116.5613     -6918.1152      791.94189      2912.5277     -8980.7584     -24.118        -3629.5519      6931.13       -4919.2864     -490.2864       65477.471      40.305468      40.305468      40.305468      1.1177304     -30.622387     -630.61642     -531.5142     
    898000   898000         99.695536     -579.01329     -5377.9971     -4827.4428      2085.8605     -6913.3033      800.76835      2887.1976     -8926.6454     -23.374685     -3670.6556      6938.2948     -4918.8884     -492.38641      65198.212      40.248086      40.248086      40.248086      1.1225179     -981.04982     -585.178       -170.81207    
    898500   898500         99.385409      400.28759     -4415.0631     -4797.2449      2079.3719     -6876.6169      809.36574      2931.0712     -8990.229      -24.506504     -3620.0456      6938.9479     -4921.2206     -490.36531      65466.934      40.303306      40.303306      40.303306      1.1179103     -364.60134      576.92492      988.53921    
    899000   899000         100.21818     -250.22891     -5052.4137     -4814.4626      2096.7954     -6911.258       801.67856      2869.4821     -8942.9091     -22.286998     -3634.0395      6934.5492     -4917.7323     -492.34272      65203.998      40.249276      40.249276      40.249276      1.1224183     -554.95807     -127.99547     -67.733184    
    899500   899500         99.284874      469.74085     -4392.6219     -4840.0341      2077.2685     -6917.3026      788.3136       2878.106      -8955.4714     -23.668526     -3620.4857      6935.2947     -4919.3914     -491.55044      65309.093      40.270889      40.270889      40.270889      1.1206121      589.8357       1002.2922     -182.90531    
    900000   900000         98.951403      198.715       -4659.6107     -4848.8252      2070.2915     -6919.1167      789.22628      2861.3748     -8936.0003     -24.027364     -3620.6343      6930.1233     -4919.1791     -491.69305      65290.151      40.266995      40.266995      40.266995      1.1209372      78.554045      560.21193     -42.620978    
Loop time of 93.1895 on 1 procs for 50000 steps with 7020 atoms

Performance: 46.357 ns/day, 0.518 hours/ns, 536.541 timesteps/s, 3.767 Matom-step/s
100.0% CPU use with 1 MPI tasks x 1 OpenMP threads

MPI task timing breakdown:
Section |  min time  |  avg time  |  max time  |%varavg| %total
---------------------------------------------------------------
Pair    | 13.115     | 13.115     | 13.115     |   0.0 | 14.07
Bond    | 11.164     | 11.164     | 11.164     |   0.0 | 11.98
Kspace  | 47.312     | 47.312     | 47.312     |   0.0 | 50.77
Neigh   | 3.1442     | 3.1442     | 3.1442     |   0.0 |  3.37
Comm    | 0.67932    | 0.67932    | 0.67932    |   0.0 |  0.73
Output  | 0.0099482  | 0.0099482  | 0.0099482  |   0.0 |  0.01
Modify  | 15.643     | 15.643     | 15.643     |   0.0 | 16.79
Other   |            | 2.122      |            |       |  2.28

Nlocal:           7020 ave        7020 max        7020 min
Histogram: 1 0 0 0 0 0 0 0 0 0
Nghost:          20184 ave       20184 max       20184 min
Histogram: 1 0 0 0 0 0 0 0 0 0
Neighs:              0 ave           0 max           0 min
Histogram: 1 0 0 0 0 0 0 0 0 0
FullNghs:  4.79992e+06 ave 4.79992e+06 max 4.79992e+06 min
Histogram: 1 0 0 0 0 0 0 0 0 0

Total # of neighbors = 4799922
Ave neighs/atom = 683.74957
Ave special neighs/atom = 5.7008547
Neighbor list builds = 634
Dangerous builds = 0
  unfix npt_tg
  shell echo '{"stage":"T${temps}","status":"done"}' >> /home/alexzhao/PolyJarvis/data/PEG3/lammps/thermal/tg_sweep_r400/tg_progress.jsonl
  print "STAGE COMPLETE: Tg step T=${temps}K P=1.0atm steps=50000"
STAGE COMPLETE: Tg step T=100K P=1.0atm steps=50000
  next temps
  jump SELF TEMP_LOOP

write_data tg_step_out.data
System init for write_data ...
PPPM Kokkos initialization ...
  using 12-bit tables for long-range coulomb
  G vector (1/distance) = 0.3046162
  grid = 30 30 30
  stencil order = 5
  estimated absolute RMS force accuracy = 0.00028840239
  estimated relative force accuracy = 8.6851524e-07
  using double precision cuFFT
  3d grid and FFT values/proc = 50653 27000
Generated 10 of 10 mixed pair_coeff terms from sixthpower/sixthpower mixing rule
Total wall time: 0:29:06
