LAMMPS data file via write_data, version 22 Jul 2025, timestep = 2000000, units = real

7020 atoms
5 atom types
7010 bonds
5 bond types
13000 angles
8 angle types
14970 dihedrals
9 dihedral types
8000 impropers
7 improper types

4.114256080559482 45.20687683942373 xlo xhi
4.114256080559482 45.20687683942373 ylo yhi
4.114256080559482 45.20687683942373 zlo zhi

Masses

1 12.01115
2 1.00797
3 1.00797
4 15.9994
5 15.9994

Pair Coeffs # lj/class2/coul/long/kk

1 0.054 4.01
2 0.02 2.995
3 0.013 1.098
4 0.24 3.535
5 0.24 3.535

Bond Coeffs # class2/kk

1 1.53 299.67 -501.77 679.81
2 1.101 345 -691.89 844.6
3 1.42 400.395 -835.195 1313.01
4 1.42 400.395 -835.195 1313.01
5 0.965 532.506 -1282.9 2004.77

Angle Coeffs # class2/kk

1 110.77 41.453 -10.604 5.129
2 111.27 54.5381 -8.3642 -13.0838
3 111.27 54.5381 -8.3642 -13.0838
4 104.5 35.7454 -10.0067 -6.2729
5 105.8 52.7061 -12.109 -9.8681
6 107.66 39.641 -12.921 -2.4318
7 108.728 58.5446 -10.8088 -12.4006
8 108.728 58.5446 -10.8088 -12.4006

BondBond Coeffs

1 3.3872 1.53 1.101
2 11.4318 1.53 1.42
3 11.4318 1.53 1.42
4 -7.1131 1.42 1.42
5 -9.6879 1.42 0.965
6 5.3316 1.101 1.101
7 23.1979 1.101 1.42
8 23.1979 1.101 1.42

BondAngle Coeffs

1 20.754 11.421 1.53 1.101
2 2.6868 20.4033 1.53 1.42
3 2.6868 20.4033 1.53 1.42
4 -2.8112 -2.8112 1.42 1.42
5 28.58 18.9277 1.42 0.965
6 18.103 18.103 1.101 1.101
7 4.6189 55.327 1.101 1.42
8 4.6189 55.327 1.101 1.42

Dihedral Coeffs # class2/kk

1 -0.5203 0 -0.3028 0 -0.345 0
2 -0.6732 0 -0.4778 0 -0.167 0
3 0.5302 0 0 0 -0.3966 0
4 -0.1432 0 0.0617 0 -0.1083 0
5 -0.1435 0 0.253 0 -0.0905 0
6 -0.1435 0 0.253 0 -0.0905 0
7 0.1863 0 -0.4338 0 -0.2121 0
8 -0.182 0 -0.1084 0 -0.7047 0
9 -0.182 0 -0.1084 0 -0.7047 0

AngleAngleTorsion Coeffs

1 -19.0059 111.27 104.5
2 -12.1038 111.27 105.8
3 -16.4438 104.5 108.728
4 -12.564 110.77 110.77
5 -20.2006 110.77 111.27
6 -20.2006 110.77 111.27
7 -10.5093 108.728 105.8
8 -14.0484 111.27 111.27
9 -14.0484 111.27 111.27

EndBondTorsion Coeffs

1 -0.2456 1.0517 -0.7795 0.4741 1.2635 0.5576 1.53 1.42
2 -0.58 0.9004 0 0 0.5343 0.9025 1.53 0.965
3 -0.162 0.1564 -1.1408 -0.6054 1.3339 0.9648 1.42 1.101
4 0.213 0.312 0.0777 0.213 0.312 0.0777 1.101 1.101
5 0.9681 0.9551 0.0436 0.5903 0.6669 0.8584 1.101 1.42
6 0.9681 0.9551 0.0436 0.5903 0.6669 0.8584 1.101 1.42
7 -1.7554 1.3145 0.2263 0.2493 0.6803 0 1.101 0.965
8 1.0165 0.7553 -0.4609 1.0165 0.7553 -0.4609 1.42 1.42
9 1.0165 0.7553 -0.4609 1.0165 0.7553 -0.4609 1.42 1.42

MiddleBondTorsion Coeffs

1 -5.9288 -2.7007 -0.3175 1.42
2 1.2472 0 0.7485 1.42
3 -6.8007 -4.6546 -1.4101 1.42
4 -14.261 -0.5322 -0.4864 1.53
5 -16.7975 -1.2296 -0.275 1.53
6 -16.7975 -1.2296 -0.275 1.53
7 0 0.9241 -0.5889 1.42
8 -17.2585 -3.6157 -0.8364 1.53
9 -17.2585 -3.6157 -0.8364 1.53

BondBond13 Coeffs

1 0 1.53 1.42
2 0 1.53 0.965
3 0 1.42 1.101
4 0 1.101 1.101
5 0 1.101 1.42
6 0 1.101 1.42
7 0 1.101 0.965
8 0 1.42 1.42
9 0 1.42 1.42

AngleTorsion Coeffs

1 -2.7466 1.4877 -0.8955 0.5676 0.945 0.0703 111.27 104.5
2 -3.5903 2.5225 0.4888 0.8726 -0.3577 0.3888 111.27 105.8
3 -0.7777 0.434 -0.6653 -1.8234 1.6393 0.5144 104.5 108.728
4 -0.8085 0.5569 -0.2466 -0.8085 0.5569 -0.2466 110.77 110.77
5 2.3668 2.492 -1.0122 -0.1892 0.4918 0.7273 110.77 111.27
6 2.3668 2.492 -1.0122 -0.1892 0.4918 0.7273 110.77 111.27
7 -3.406 1.6396 0.0737 0 -0.281 -0.5944 108.728 105.8
8 0.5511 0.9737 -0.6673 0.5511 0.9737 -0.6673 111.27 111.27
9 0.5511 0.9737 -0.6673 0.5511 0.9737 -0.6673 111.27 111.27

Improper Coeffs # class2/kk

1 0 0
2 0 0
3 0 0
4 0 0
5 0 0
6 0 0
7 0 0

AngleAngle Coeffs

1 0.2738 -0.4825 0.2738 110.77 110.77 107.66
2 3.9177 2.5926 0.1689 110.77 111.27 108.728
3 0.1689 2.5926 3.9177 111.27 110.77 108.728
4 0.1689 2.5926 3.9177 111.27 110.77 108.728
5 -0.3157 -0.3157 -0.3157 107.66 107.66 107.66
6 2.4259 2.4259 2.1283 107.66 108.728 108.728
7 2.4259 2.4259 2.1283 107.66 108.728 108.728

Atoms # full/kk

153 1 2 0.053 7.648558197406784 4.637280924349439 7.245964343635762 1 1 1
151 1 1 0.027 7.452510082636678 4.394987640420053 8.322832390553739 1 1 1
158 1 1 0.027 4.649805590569105 5.701837270632982 7.269886773018484 1 1 1
164 1 2 0.053 5.063494833076502 8.441312876644488 7.352912026931925 1 1 1
152 1 2 0.053 7.483775670631328 5.399934188852445 8.797806358839969 1 1 1
163 1 2 0.053 6.367972458141235 7.451614694539209 8.34605759724856 1 1 1
165 1 1 0.027 7.064823276389297 8.368379478654244 6.6327893347999956 1 1 1
168 1 4 -0.266 8.296104154698064 7.591566609011706 6.664992605295884 1 1 1
169 1 1 0.027 8.643483732850775 6.852824452965095 5.490443657659349 1 1 1
166 1 2 0.053 7.390507089810788 9.316271076641232 7.164252827981537 1 1 1
162 1 1 0.027 5.908001603966728 7.706680063689494 7.360982698128316 1 1 1
161 1 4 -0.266 5.5554705762276395 6.580128706232152 6.585623161249638 1 1 1
171 1 2 0.053 7.782836671782077 6.224262264298941 5.211141130660853 1 1 1
167 1 2 0.053 6.884190105470368 8.818931012010708 5.568532840092303 1 1 1
155 1 1 0.027 5.1305202024462595 4.9366111102000705 8.606967101130236 1 1 1
157 1 2 0.053 5.286775702753995 5.594692010395896 9.457738828771587 1 1 1
173 1 2 0.053 9.728028651810522 5.348490759866061 6.439837073674107 1 1 1
4831 7 2 0.053 10.30354044484741 7.54999571347374 8.068081425642276 1 -1 0
172 1 1 0.027 9.919487135882243 6.051258345730288 5.654332563424654 1 1 1
174 1 2 0.053 10.657394388510404 6.7369966975456705 5.975383403359856 1 1 1
170 1 2 0.053 8.69816675481836 7.464817340542913 4.625999331305959 1 1 1
3308 5 2 0.053 10.024860752876078 10.520317070941868 7.462277059321393 0 0 0
3316 5 1 0.027 14.41154005339192 10.015783573392591 9.175876823426684 0 0 0
4830 7 2 0.053 11.104438849371627 8.62527689889719 9.059419902774392 1 -1 0
4829 7 1 0.027 10.944847170599544 7.54843328800723 8.956632648532693 1 -1 0
175 1 4 -0.266 10.34318426719565 5.508556262333578 4.418488332863169 1 1 1
4872 7 2 0.053 12.398200051647278 9.086923302717526 5.985428570912595 1 -1 0
4870 7 4 -0.266 14.152784654866528 8.604787143997605 5.004975264316503 1 -1 0
3317 5 2 0.053 14.630536610518208 9.751239536570441 8.061683188039286 0 0 0
178 1 2 0.053 12.108050310126487 4.944552761874917 5.437586437691749 1 1 1
4834 7 2 0.053 12.67035905095587 7.277158338094083 7.907983175406129 1 -1 0
176 1 1 0.027 11.403298054177341 4.553181313019497 4.707231805087833 1 1 1
4835 7 4 -0.266 12.130125178514021 5.408748609308051 8.517331263229405 1 -1 0
4837 7 2 0.053 14.144606301355255 4.889776317309433 8.652690529872368 1 -1 0
4832 7 1 0.027 12.250729188197708 6.804308122734138 8.814026080372711 1 -1 0
4836 7 1 0.027 13.138053928893898 4.4999891899016635 8.97594995381249 1 -1 0
4869 7 2 0.053 13.432780760273227 6.703889567579293 5.00840718896383 1 -1 0
401 1 2 0.053 16.372913313173242 7.316303441680125 8.54940227061762 0 1 1
4833 7 2 0.053 12.892578929050934 7.005415002983973 9.647759314968669 1 -1 0
3318 5 2 0.053 14.109894969454414 9.122094610123723 9.685433853340397 0 0 0
4838 7 2 0.053 13.149677018995487 4.281311998470118 10.075331862228724 1 -1 0
3203 5 2 0.053 17.2780637292236 9.165766178103471 5.57398026627937 0 0 0
397 1 2 0.053 16.0627095102504 4.909666573775935 6.1561367474537825 0 1 1
390 1 2 0.053 19.973181844610103 7.230763218545099 4.3215895476064 0 1 1
398 1 2 0.053 16.468999911693693 6.5365198195705805 6.449264424414521 0 1 1
318 1 2 0.053 19.94615605702872 4.649747024603827 8.134486261391112 0 1 1
402 1 2 0.053 18.07390677624973 6.857388595458969 8.484592502592106 0 1 1
395 1 2 0.053 18.70332138906276 4.510362290846107 6.0527861098983005 0 1 1
391 1 2 0.053 20.890394411380516 6.087909874267607 5.29371994705275 0 1 1
394 1 2 0.053 18.02347299992273 5.77324365329306 4.749855819993917 0 1 1
399 1 4 -0.266 16.83696083472585 5.307829923073596 8.036281974868192 0 1 1
396 1 1 0.027 16.832752040217628 5.5663422399529825 6.595659983228977 0 1 1
400 1 1 0.027 17.080392711892262 6.506023104184517 8.815273214713756 0 1 1
393 1 1 0.027 18.19117291425642 5.5021876518269135 5.845459705943138 0 1 1
392 1 4 -0.266 19.081379792322732 6.587475472255255 6.273207821727091 0 1 1
389 1 1 0.027 20.210915777338954 6.974721846115915 5.423855469780183 0 1 1
386 1 1 0.027 21.021018500070266 8.126305727197867 6.1288232025102936 0 1 1
387 1 2 0.053 20.421568445645782 8.994050412741181 6.26868070641893 0 1 1
388 1 2 0.053 21.546033282949022 7.841208992088428 7.068787537298738 0 1 1
4750 7 2 0.053 20.845720568727515 7.294933532146459 9.474364208086438 0 -1 0
385 1 4 -0.266 22.10259515560952 8.422732630591712 5.198799464695775 0 1 1
6053 9 2 0.053 22.78882146747674 4.815549712818281 4.191434690329485 0 1 1
324 1 2 0.053 24.677427271042657 45.19947530589742 7.895703420320779 0 0 1
4752 7 1 0.027 22.941787891244505 8.704728679179482 9.472603981904674 0 -1 0
4753 7 2 0.053 22.6900903553914 8.852581502393676 8.395358413918988 0 -1 0
4754 7 2 0.053 23.437879651132768 7.758798237442215 9.629800206948856 0 -1 0
325 1 2 0.053 24.132271271044903 5.367019729987497 9.015148808622607 0 1 1
322 1 4 -0.266 22.685636021046577 4.821356745082621 7.696156840500451 0 1 1
335 1 2 0.053 25.900813252211105 9.390409965154468 6.888270835301372 0 1 1
323 1 1 0.027 24.087645138826318 5.084010047922904 7.967377785865894 0 1 1
328 1 2 0.053 24.365337354665236 6.05789609573056 6.0492200650907 0 1 1
327 1 2 0.053 23.843016831893124 7.176949991294445 7.234365517783192 0 1 1
326 1 1 0.027 24.49687105207307 6.252455574470772 7.096151283470982 0 1 1
329 1 4 -0.266 25.873644881478338 6.516991146331744 7.301162992750394 0 1 1
331 1 2 0.053 26.289839287754894 7.43753596878048 5.398719260207684 0 1 1
330 1 1 0.027 26.654293170581774 7.3564527017548595 6.447139854851624 0 1 1
320 1 2 0.053 21.919401432692855 4.63499032634539 9.541625487666979 0 1 1
6132 9 2 0.053 27.439176228512917 45.18430068962823 8.743848414552984 0 0 1
333 1 1 0.027 26.81582263129332 8.815379546889396 7.001134036740054 0 1 1
334 1 2 0.053 27.327898221962673 8.764878601680973 7.934810247146528 0 1 1
6113 9 4 -0.266 31.581364376921425 9.68000442331686 44.65284097543993 0 1 0
269 1 2 0.053 30.420292409030964 9.684632756779841 8.924446284660343 0 1 1
6114 9 1 0.027 31.449017512664287 8.406815609590776 4.21891145075844 0 1 1
6115 9 2 0.053 30.449175296911523 8.427780755031204 4.634249664042922 0 1 1
1348 2 2 0.053 30.821699273360707 4.749190435415207 45.068860067000614 1 1 1
6129 9 2 0.053 28.558635513880933 44.86043644978034 6.534229208427174 0 0 1
332 1 2 0.053 27.649236225554823 6.871159460127853 6.4950665934983345 0 1 1
336 1 4 -0.266 27.857354380730392 9.561588378011285 6.193469536584664 0 1 1
6126 9 2 0.053 31.651387414792012 4.602631490855975 7.295724088740454 0 1 1
6120 9 4 -0.266 32.252705466926926 6.8147798618305995 5.7922756890951606 0 1 1
6118 9 2 0.053 32.57641868295112 8.903545207851234 6.136473206715405 0 1 1
6123 9 2 0.053 30.56319645134873 7.525906977169951 6.704756390424603 0 1 1
6117 9 1 0.027 32.475902125132436 8.117565177398196 5.333570381128989 0 1 1
6122 9 2 0.053 31.792097931113886 7.186371854693379 7.823520541108907 0 1 1
6121 9 1 0.027 31.32771421325885 6.82758441321016 6.9245929156526635 0 1 1
6127 9 4 -0.266 29.713514588726905 5.025870593887144 7.868181117686579 0 1 1
6124 9 1 0.027 30.834149842928678 5.3196623760078365 6.984687216163098 0 1 1
6125 9 2 0.053 30.708833037144203 5.060622815015269 5.9281114437969125 0 1 1
6119 9 2 0.053 33.50684920977764 8.124048609185014 4.8584332126610255 0 1 1
234 1 2 0.053 34.731433715940156 4.173034126065735 9.105150159611423 0 1 1
241 1 2 0.053 34.365081303220116 8.812038227103432 9.92975397580079 0 1 1
245 1 4 -0.266 35.63305651174757 10.290574158938938 8.073449217778867 0 1 1
235 1 1 0.027 35.94210929067292 5.989540115613266 8.996914144587224 0 1 1
242 1 1 0.027 35.2697815806757 8.935075225422885 7.973158795549019 0 1 1
240 1 2 0.053 36.06510518669269 8.524080856316148 9.897269183817345 0 1 1
5975 9 2 0.053 39.068194541973966 45.204622030676106 7.469095683022294 -1 0 1
232 1 1 0.027 35.73437090259293 4.568151478098472 9.414288952895518 0 1 1
5965 9 2 0.053 38.351308201337716 8.285901700278895 9.351947190168513 -1 1 1
238 1 4 -0.266 34.860914986211924 6.877050048647579 9.324374510070536 0 1 1
239 1 1 0.027 35.15800647064317 8.266562620427303 9.386900655341037 0 1 1
243 1 2 0.053 34.28621464898331 8.69764472686964 7.5039229207514735 0 1 1
244 1 2 0.053 36.04436206131221 8.424390299558237 7.405859019925439 0 1 1
236 1 2 0.053 36.077831492082915 6.0603595783148485 7.936235727079351 0 1 1
5974 9 1 0.027 39.87388036840379 4.437756849371291 6.618172515021443 -1 1 1
5971 9 2 0.053 39.05844645994718 6.483182034496142 8.231834021613736 -1 1 1
5963 9 1 0.027 39.084841758099515 9.096231399944706 9.359436175837999 -1 1 1
3718 6 2 0.053 42.0810793211662 6.86727405833589 5.386070136519921 0 0 1
3723 6 2 0.053 44.01089832737574 8.144053593894412 5.391541486420229 0 0 1
3722 6 2 0.053 44.88560704659345 7.125926517776071 4.275212729329038 0 0 1
3721 6 1 0.027 44.184026716334344 8.047484426383289 4.326734927528956 0 0 1
5425 8 4 -0.266 44.01971384774379 9.834848007359177 9.042607837484992 0 -1 1
5973 9 4 -0.266 40.63272098116049 5.58662476644583 7.132357843864393 -1 1 1
5431 8 2 0.053 44.17509594671412 7.465419286089558 9.9713872717845 0 -1 1
5428 8 2 0.053 42.66244909816207 9.416944585291533 10.513695236479045 0 -1 1
160 1 2 0.053 44.84404517303689 6.262608618308791 7.463914968396439 0 1 1
5976 9 2 0.053 39.243937946884486 4.7112092570947315 5.74870894626478 -1 1 1
5972 9 2 0.053 39.167082032521975 6.938064548966777 6.508409439020808 -1 1 1
5970 9 1 0.027 39.766514523077944 6.696857568260757 7.397687151282089 -1 1 1
5967 9 1 0.027 40.54960345718149 7.971377325028607 7.858585650577841 -1 1 1
5969 9 2 0.053 41.23043884838988 8.377629302799889 7.130930209578617 -1 1 1
5966 9 4 -0.266 39.71033939354351 9.111209880679075 8.044312688149313 -1 1 1
5968 9 2 0.053 41.09344007327509 7.759634707010859 8.798545329034548 -1 1 1
5878 9 2 0.053 40.540270576537225 6.062246845615783 10.00101027516571 -1 1 1
901 2 2 0.053 4.256769531943052 15.780640242830641 6.0129406144081115 1 0 1
5418 8 4 -0.266 4.274373982315527 12.46245407888799 7.887994515514279 1 -1 1
1505 3 2 0.053 8.998953543418335 16.209957324852464 8.581864093407457 1 0 0
5415 8 1 0.027 5.106448929826712 12.822882716470625 6.789955405276229 1 -1 1
5412 8 1 0.027 6.0739486010214865 11.738184454553338 6.1963436746467835 1 -1 1
5416 8 2 0.053 5.900354521931103 13.487884752471885 7.171594136657743 1 -1 1
3305 5 4 -0.266 9.185305201396368 11.355738008420904 9.056497861897604 0 0 0
3302 5 1 0.027 8.421589178219948 12.506809922101601 9.351475622169728 0 0 0
3304 5 2 0.053 7.708769050615418 12.759042034784136 8.587661438529508 0 0 0
5413 8 2 0.053 6.754216125204071 11.387657145284575 7.072728569519151 1 -1 1
5414 8 2 0.053 5.470916962105847 10.964470570283641 5.712454824681904 1 -1 1
5411 8 4 -0.266 6.846463103399152 12.369657035299022 5.164460940331018 1 -1 1
3301 5 2 0.053 6.965917541581334 11.351509633416914 10.335230407846877 0 0 0
5417 8 2 0.053 4.567791512775815 13.376282529863936 6.034661129329071 1 -1 1
5408 8 1 0.027 7.673269306931098 11.569916398816304 4.403009866478835 1 -1 1
5410 8 2 0.053 8.037471990557629 10.70259681615656 4.999663220710979 1 -1 1
1504 3 2 0.053 8.394410718289002 14.965442631280357 7.517168898745447 1 0 0
3307 5 2 0.053 9.46897111454659 12.184499098684146 7.192641386897735 0 0 0
3303 5 2 0.053 9.062070813578668 13.3705509565538 9.536489361755761 0 0 0
3299 5 1 0.027 7.534278133027378 12.207858396009053 10.589420406370497 0 0 0
4875 7 2 0.053 12.092943894748679 11.32266189565634 4.973018909723532 1 -1 0
4874 7 1 0.027 12.608636701840455 10.539109334981807 4.327751483273727 1 -1 0
1522 3 2 0.053 12.5363840425684 15.869536913502708 8.69529652063753 1 0 0
3306 5 1 0.027 9.941020005897624 11.50460516292328 7.901624256759772 0 0 0
3319 5 4 -0.266 15.655822146279299 10.41256923291035 9.831744983977368 0 0 0
1509 3 4 -0.266 10.477542450082096 15.727885777075377 6.317585590829077 1 0 0
1515 3 2 0.053 12.52653845862244 14.131945690474028 5.685914886775134 1 0 0
1517 3 1 0.027 14.145918756819569 15.056395092188673 7.318972014563582 1 0 0
3310 5 2 0.053 11.355337255523665 12.89711838353662 8.87914131425661 0 0 0
1520 3 1 0.027 13.6213914105059 15.62499768001132 8.697873454915879 1 0 0
3311 5 2 0.053 11.684978008841178 12.445919432238748 7.110956883071727 0 0 0
3309 5 1 0.027 11.379259875370185 12.05372089803847 8.115085588332674 0 0 0
1516 3 4 -0.266 13.67932428939589 15.809047810000934 6.16119119156235 1 0 0
3314 5 2 0.053 13.91604245070845 12.137952774324203 8.926507870931562 0 0 0
1519 3 2 0.053 13.938470050977218 13.973252977659353 7.2921655422644935 1 0 0
3312 5 4 -0.266 12.253330044379634 10.967079988472868 8.41178367869364 0 0 0
3313 5 1 0.027 13.388315262608547 11.204408368599701 9.236696130248015 0 0 0
1518 3 2 0.053 15.236251776621602 15.152205759667424 7.172507471960211 1 0 0
1523 3 4 -0.266 13.69328865786887 14.755964419219065 9.838872440708137 1 0 0
4873 7 2 0.053 13.61224442236713 10.20772351507214 6.11773308640697 1 -1 0
1513 3 1 0.027 12.658338233868477 15.153424811153908 5.366039729065364 1 0 0
4871 7 1 0.027 13.192882271140222 9.58948487637403 5.333708069370854 1 -1 0
3209 5 2 0.053 16.167559866350118 13.865975612700156 4.9329560048055 0 0 0
3208 5 1 0.027 17.280169671236543 13.681437940027983 4.999508642187162 0 0 0
3325 5 2 0.053 17.980422002612045 12.129215329585012 10.094766383743615 0 0 0
3205 5 2 0.053 15.854059004904949 11.298924455205476 5.2579041613580655 0 0 0
3321 5 2 0.053 16.08760700812541 12.14631003124068 8.565947031558343 0 0 0
3328 5 2 0.053 20.492194271590225 11.327321048871799 9.488202883679648 0 0 0
3204 5 1 0.027 16.9345041176137 11.334547814708674 5.170108332237175 0 0 0
3206 5 2 0.053 17.316511203687867 11.43271476148432 6.146198313808651 0 0 0
1551 3 4 -0.266 22.25240485315897 15.019559009700718 10.34727424601352 1 0 0
3210 5 2 0.053 17.70375736401182 13.710648683018393 6.076201318596054 0 0 0
3326 5 4 -0.266 18.755362729571072 11.673644800502402 8.38820289297227 0 0 0
3327 5 1 0.027 20.129349028942855 11.231018563682136 8.458567332796727 0 0 0
3330 5 1 0.027 20.935931727636994 12.026969295075792 7.42431018938286 0 0 0
3331 5 2 0.053 20.502073423541308 11.997947661676175 6.386294341307472 0 0 0
3332 5 2 0.053 20.76767834633276 13.102157458328875 7.759511807832905 0 0 0
3323 5 1 0.027 17.902382876977157 11.247914291507868 9.447855093886513 0 0 0
3320 5 1 0.027 16.512744341650684 11.08018928425467 8.853434890432704 0 0 0
3329 5 2 0.053 20.123781750990485 10.125967101046772 8.243317587306652 0 0 0
3201 5 1 0.027 17.559564181543553 9.950388647753465 4.7959485777596615 0 0 0
3322 5 2 0.053 16.588288419137854 10.369141361011387 7.9238348526956175 0 0 0
3202 5 2 0.053 18.652143196578688 10.046309468853334 4.865764704050626 0 0 0
384 1 2 0.053 22.39355379535027 10.45994714443566 5.72613966821816 0 1 1
3324 5 2 0.053 18.14706860661684 10.365643081464185 9.95646504693922 0 0 0
1549 3 2 0.053 22.826397816448562 13.00046943826226 10.262219119622197 1 0 0
374 1 2 0.053 26.64169483740325 12.405922163514438 44.61074481937793 0 1 0
3346 5 2 0.053 25.91916029944995 13.852061401533463 10.64482394966193 0 0 0
3344 5 1 0.027 26.592969873717 14.05514196251974 9.7894108536841 0 0 0
3333 5 4 -0.266 22.35739899395204 11.795700658325817 7.443439435517117 0 0 0
3335 5 2 0.053 22.84496446221068 12.731334770251678 5.741461997118966 0 0 0
3343 5 2 0.053 26.870565829783104 13.393719217772036 7.76104843546946 0 0 0
3336 5 2 0.053 22.909510508074888 13.721457299541926 7.17548863839098 0 0 0
3334 5 1 0.027 23.126143456466803 12.740079795916182 6.7939642641589 0 0 0
3339 5 2 0.053 25.12099188731702 13.040262430835723 6.26986899611528 0 0 0
3337 5 1 0.027 24.581913590896757 12.452536150765457 7.054827704909154 0 0 0
3345 5 2 0.053 26.497423783629795 15.07053568692609 9.437739689793311 0 0 0
3340 5 4 -0.266 24.953704025757723 13.051229933999986 8.285749946277825 0 0 0
3338 5 2 0.053 24.840407134281858 11.372101072002346 7.019782652131965 0 0 0
3341 5 1 0.027 26.32194802475117 13.066275990654523 8.639919868051791 0 0 0
3342 5 2 0.053 26.63947507366328 12.026881787254386 8.854529424764978 0 0 0
4757 7 2 0.053 24.796331211142242 9.876330933016101 9.018855897072644 0 -1 0
3347 5 4 -0.266 27.899174204625428 13.980804696000476 10.333444438382823 0 0 0
338 1 2 0.053 27.296702780186582 11.576427586282572 6.4558081512352254 0 1 1
383 1 2 0.053 23.724411304948152 9.256139094920506 6.3051589012148135 0 1 1
382 1 1 0.027 22.983267999606348 9.501090310167992 5.542500341105511 0 1 1
6109 9 2 0.053 33.90432586777003 10.227764497530963 4.482813621439253 0 1 1
266 1 4 -0.266 30.86233280421433 11.443391649829074 10.025045431232364 0 1 1
267 1 1 0.027 30.66093534233138 10.04047165075437 9.974737592694726 0 1 1
262 1 2 0.053 32.11427508941157 13.818093977013778 10.131777375268179 0 1 1
348 1 2 0.053 30.131731793838036 15.30859462054492 6.678359880349127 0 1 1
337 1 1 0.027 28.147588886577523 10.88595605602702 6.718107131287972 0 1 1
339 1 2 0.053 28.349873180477815 11.003257803971803 7.7788646661308025 0 1 1
264 1 2 0.053 31.779969744053492 11.561175085462281 8.12837343820635 0 1 1
342 1 2 0.053 29.013630240807316 11.356049113649933 4.921763075355155 0 1 1
346 1 2 0.053 31.0175050422497 13.546775269525442 5.219726884809702 0 1 1
341 1 2 0.053 30.304754099675254 11.059084137021724 6.066424094469142 0 1 1
345 1 2 0.053 29.5775591886656 13.685240471872705 4.241703281301124 0 1 1
344 1 1 0.027 29.9698288706866 13.686597535526838 5.29685026666752 0 1 1
349 1 2 0.053 28.500710544767966 15.005881922096403 6.026051404778607 0 1 1
340 1 1 0.027 29.338903309724227 11.485965484864993 5.9330469503303105 0 1 1
343 1 4 -0.266 29.330022533337356 12.882375274797397 6.251516941993022 0 1 1
347 1 1 0.027 29.579701984045965 15.101262741990999 5.77318720497079 0 1 1
261 1 2 0.053 31.171960726126773 13.919745485642677 8.611216392972121 0 1 1
260 1 1 0.027 32.0103721307627 13.446983821209143 9.088721144917974 0 1 1
263 1 1 0.027 31.87704604461938 11.8471849068173 9.188830479591312 0 1 1
258 1 2 0.053 32.77905312217251 13.812731366480161 6.445110556193193 0 1 1
257 1 2 0.053 32.698806884949235 15.477219256703773 7.233329996168413 0 1 1
252 1 4 -0.266 35.405778191022975 13.647189887290228 6.377266497614656 0 1 1
3744 6 2 0.053 38.288816043586536 14.196882398440934 7.260090326893047 0 0 1
259 1 4 -0.266 33.21911005102754 13.802777511618677 8.435979114507697 0 1 1
265 1 2 0.053 32.938696927039985 11.476444033073147 9.455022619577457 0 1 1
3746 6 2 0.053 38.20508122939745 16.638612327416034 7.617367342025725 0 0 1
251 1 2 0.053 36.82174591247146 12.737312084384705 7.635091223766688 0 1 1
5962 9 2 0.053 37.85077791437833 10.79252749034345 8.838341377151398 -1 1 1
248 1 2 0.053 34.06224319872177 11.225918214099984 6.930698393325114 0 1 1
246 1 1 0.027 35.15967573417706 11.208894669229563 7.088433134538489 0 1 1
3705 6 2 0.053 38.19260756404621 12.552354656540217 45.1649537826619 0 0 0
3741 6 4 -0.266 40.26471980786093 14.884698111474263 7.048348739199341 0 0 1
249 1 1 0.027 35.79160474911046 12.676883174133144 7.384406838118094 0 1 1
256 1 1 0.027 33.203257663110314 14.488960253272873 7.1899783114450635 0 1 1
253 1 1 0.027 34.64298178121036 14.818185154908212 6.763296056634955 0 1 1
254 1 2 0.053 35.180597848772095 15.39042187970094 7.515876626456784 0 1 1
5960 9 1 0.027 38.50227533886046 10.466047221847882 9.650390252290292 -1 1 1
255 1 2 0.053 34.57977961836512 15.389352122287532 5.791432286073647 0 1 1
250 1 2 0.053 35.36825389039814 12.907036100229547 8.343959434269344 0 1 1
3742 6 1 0.027 39.07891174698203 14.664621573580192 7.913722647393376 0 0 1
247 1 2 0.053 35.56676688471585 11.051518994135172 6.086873029241782 0 1 1
3743 6 2 0.053 39.3331486478819 14.034353932332746 8.805682103338992 0 0 1
3286 5 2 0.053 42.34835587222665 14.373694972857821 9.853157141747518 -1 0 0
5424 8 2 0.053 42.3731607080815 10.949195225799144 8.39257010332155 0 -1 1
3287 5 2 0.053 43.382097684807675 15.445450965486412 8.878855940282737 -1 0 0
5422 8 1 0.027 43.454948552106714 11.102652590293904 8.685516574347934 0 -1 1
5420 8 2 0.053 43.62689163896604 12.241361281998115 6.800997003078616 0 -1 1
5423 8 2 0.053 43.48764056302308 11.853645881056828 9.481690980394589 0 -1 1
5421 8 2 0.053 44.49445193382641 10.831973100620923 6.766707305051091 0 -1 1
3736 6 2 0.053 42.34561684334358 14.706460568780638 5.017788784521561 0 0 1
3737 6 2 0.053 40.8481055186617 14.097002374419143 4.532977690109843 0 0 1
3738 6 1 0.027 40.94985166046588 13.696264788078631 6.62578150720951 0 0 1
5961 9 2 0.053 39.36205407016209 11.230546528477571 9.533831738117694 -1 1 1
3735 6 1 0.027 41.57773731666768 13.896727499124138 5.212005308144062 0 0 1
5419 8 1 0.027 44.28617240975335 11.640397505742403 7.451111247481777 0 -1 1
3734 6 4 -0.266 42.203410372094226 12.637626915319828 4.91575620252961 0 0 1
3285 5 1 0.027 42.91721087562114 15.266007934745566 9.882555238011689 -1 0 0
3739 6 2 0.053 41.64379127978792 13.408086942207104 7.372279617479205 0 0 1
3732 6 2 0.053 43.75593908960887 13.107376802223712 44.759269899782105 0 0 0
3740 6 2 0.053 40.25808057519866 12.862243317959145 6.518145854794101 0 0 1
1499 3 1 0.027 6.427610287436309 16.46984970288899 8.62447217809037 1 0 0
1503 3 1 0.027 8.556992465637027 16.04566420211528 7.599436921475013 1 0 0
1501 3 2 0.053 6.115360991537414 15.419310912269152 8.627783771942443 1 0 0
1500 3 2 0.053 5.569524475562001 17.12029107078735 8.361458954179952 1 0 0
918 2 2 0.053 8.179560229835573 22.11786745665269 6.387760869139189 1 0 1
899 2 1 0.027 4.566799587467361 16.516275232138693 5.20500530376372 1 0 1
915 2 2 0.053 6.748354478119569 19.407864639996646 6.3843204335353585 1 0 1
1502 3 4 -0.266 7.336627079330904 16.761385995366982 7.58146051976774 1 0 0
1496 3 1 0.027 6.898417901321324 16.83956808915895 10.03681752486118 1 0 0
910 2 2 0.053 5.390529095204736 19.42215404521891 8.66211461961752 1 0 1
905 2 4 -0.266 4.4583872240056435 18.45292453178437 6.639396007919163 1 0 1
916 2 1 0.027 8.046529070032511 21.170806562170384 5.935117101932452 1 0 1
914 2 2 0.053 7.574674195870441 19.932134614762745 7.698705280861665 1 0 1
913 2 1 0.027 7.046859820283887 20.361159046330958 6.831986412313252 1 0 1
909 2 1 0.027 4.979428813668275 20.251753026857337 8.028493397072923 1 0 1
3241 5 2 0.053 8.823046410350267 19.451533676744383 9.451448323180742 0 0 0
919 2 4 -0.266 9.289461387033313 20.493933082671038 5.7779472789778925 1 0 1
1508 3 2 0.053 8.720358707670725 16.51475026877865 5.570216520310156 1 0 0
912 2 4 -0.266 5.8720821609225196 21.05902019889081 7.236423020852687 1 0 1
900 2 2 0.053 5.6753302565393655 16.576192764431724 5.229720857926099 1 0 1
920 2 1 0.027 10.068833370624468 20.87546526876884 4.701803668282546 1 0 1
1506 3 1 0.027 9.355111386352986 16.55984270576758 6.437241275697525 1 0 0
921 2 2 0.053 9.557437395436448 21.00339871799787 44.801729048955096 1 0 0
3237 5 2 0.053 10.188977569410104 21.701670118462225 8.75362789120409 0 0 0
1510 3 1 0.027 11.34169717656971 15.991104544454881 5.2341985494861705 1 0 0
1521 3 2 0.053 14.13213124565303 16.608700263466794 8.936584069324866 1 0 0
1507 3 2 0.053 9.701210428210407 17.556832720565176 6.832751527930625 1 0 0
3236 5 1 0.027 10.579715670407131 20.900014259766948 9.377439033443942 0 0 0
3232 5 1 0.027 12.399781610713614 20.533445909290222 7.908976398582914 0 0 0
3229 5 1 0.027 13.428648001529854 19.41607351656024 7.653400616288241 0 0 0
3231 5 2 0.053 13.91120978413632 19.09965195910427 8.591921262348272 0 0 0
3233 5 2 0.053 12.152653543311752 21.021628093626674 6.936284200885227 0 0 0
3230 5 2 0.053 12.783849675557336 18.559295708285312 7.426669482068181 0 0 0
3235 5 4 -0.266 11.279446422519293 20.00777880637775 8.552151907990929 0 0 0
1511 3 2 0.053 11.484670092422991 17.046646380892383 4.994845182370463 1 0 0
3234 5 2 0.053 12.948261705392188 21.27657178646942 8.53569112958164 0 0 0
3228 5 4 -0.266 14.385948637600478 19.85699888272486 6.7531022597635255 0 0 0
3227 5 2 0.053 14.966806559547722 18.189650147600197 5.594339522319404 0 0 0
3225 5 1 0.027 15.432677127586095 18.94178045183999 6.320226123661096 0 0 0
925 2 2 0.053 11.71312590528304 19.422946024894507 5.2357985466731956 1 0 1
923 2 1 0.027 11.065492331793546 19.761611035037014 4.428324496372119 1 0 1
3224 5 2 0.053 16.16565570073583 20.401690540020823 4.862841659887903 0 0 0
1512 3 2 0.053 10.891617220802281 15.598843020941688 4.353820806503156 1 0 0
924 2 2 0.053 10.704309323863036 18.754317167031544 4.138704409386352 1 0 1
6758 10 2 0.053 19.41700930989755 20.840579364550347 5.171388091177474 1 0 1
6760 10 1 0.027 19.70894650878209 20.753218625754236 7.525188276509016 1 0 1
3226 5 2 0.053 15.807101740495145 18.305019600892685 7.133604505826754 0 0 0
3222 5 1 0.027 16.55837701932701 19.741752683335584 5.655729825506892 0 0 0
2806 4 5 -0.5571 21.421582070361648 15.757401529775183 6.346038095079374 2 0 0
2802 4 2 0.053 19.979613694158033 15.818460437294931 8.793617520891924 2 0 0
2797 4 2 0.053 17.922023521988606 16.60668227814263 10.060057477335326 2 0 0
2793 4 1 0.027 16.831913899873395 18.394149188891696 9.52782406498592 2 0 0
2801 4 2 0.053 19.00306525621197 15.254573938382816 7.490521307485306 2 0 0
3223 5 2 0.053 17.16875212677845 20.309505360123467 6.350184688774568 0 0 0
6759 10 4 -0.266 20.84505415787518 20.755330062846205 6.583734577667287 1 0 1
6757 10 2 0.053 20.230596985413232 19.240487792446384 5.253332752342492 1 0 1
6762 10 2 0.053 19.156897123849184 19.79511109542465 7.587715753763424 1 0 1
6756 10 1 0.027 20.414751909171915 20.35136101609568 5.342288234992316 1 0 1
2794 4 2 0.053 16.552916258643045 19.113084138867237 8.713855299250746 2 0 0
2800 4 1 0.027 19.428168103258265 16.146539086474583 7.944241152133999 2 0 0
2796 4 1 0.027 17.459462191376907 17.045008416880123 9.081376682592513 2 0 0
2805 4 2 0.053 19.842317338641813 17.100386158332874 6.007852524772154 2 0 0
2798 4 2 0.053 16.647201125422846 16.396184007009374 8.63156510753725 2 0 0
2803 4 1 0.027 20.428543669222254 16.698044311049856 6.8816406217201145 2 0 0