units real
atom_style full
boundary p p p

# --- Force Field Styles ---
pair_style lj/class2/coul/long 9.5 9.5
kspace_style pppm 1e-6
dielectric 1.000000
bond_style class2
angle_style class2
dihedral_style class2
improper_style class2
special_bonds lj/coul 0 0 1
pair_modify mix sixthpower tail yes
neighbor 2.0 bin
neigh_modify delay 0 every 1 check yes
neigh_modify one 4000
# KOKKOS: package loaded via -pk kokkos on the command line

read_data /home/alexzhao/PolyJarvis/data/PEG3/lammps/equil/nvt_production/nvt_production_out.data
Reading data file ...
  orthogonal box = (4.108814 4.108814 4.108814) to (45.212319 45.212319 45.212319)
  1 by 1 by 1 MPI processor grid
  reading atoms ...
  7020 atoms
  reading velocities ...
  7020 velocities
  scanning bonds ...
  4 = max bonds/atom
  scanning angles ...
  10 = max angles/atom
  scanning dihedrals ...
  16 = max dihedrals/atom
  scanning impropers ...
  7 = max impropers/atom
  orthogonal box = (4.108814 4.108814 4.108814) to (45.212319 45.212319 45.212319)
  1 by 1 by 1 MPI processor grid
  reading bonds ...
  7010 bonds
  reading angles ...
  13000 angles
  reading dihedrals ...
  14970 dihedrals
  reading impropers ...
  8000 impropers
Finding 1-2 1-3 1-4 neighbors ...
  special bond factors lj:    0        0        1       
  special bond factors coul:  0        0        1       
     4 = max # of 1-2 neighbors
     6 = max # of 1-3 neighbors
     8 = max # of special neighbors
  special bonds CPU = 0.003 seconds
  read_data CPU = 0.183 seconds
include /home/alexzhao/PolyJarvis/data/PEG3/lammps/cell/emc_build.params
# LAMMPS parameters created by EMC v9.4.4, build Jul 31 2025 20:33:44

# Variables

variable	seed		index	830011
variable	ntotal		index	7020
variable	fshape		index	1
variable	output		index	emc_build
variable	field		index	pcff/pcff
variable	location1	index	~/emc/field/
variable	nav		index	0.6022141179
variable	temperature	index	300
variable	radius		index	5
variable	nrelax		index	100
variable	weight_nonbond	index	0.0001
variable	weight_bond	index	0.0001
variable	weight_focus	index	1
variable	cutoff		index	9.5
variable	charge_cutoff	index	9.5
variable	kappa		index	4
variable	density1	index	0.61
variable	lprevious	index	0
variable	lphase		index	49.3211329242
variable	f_poly		index	10
variable	chem_repeat	index	*CCO*
variable	chem_cap	index	*[H]
variable	lg_repeat	index	7
variable	lg_cap		index	1
variable	norm_poly	index	100
variable	l_poly		index	702
variable	mg_repeat	index	16.04303
variable	mg_cap		index	0
variable	m_poly		index	1604.303
variable	n_poly		index	10
variable	mtotal		index	44073.7394
variable	nphase1		index	7020
variable	mphase1		index	44073.7394
variable	vphase1		index	119977.313144
variable	lbox		index	49.3211329242
variable	lphase1		index	49.3211329242
variable	lxx		index	49.3211329242
variable	lyy		index	49.3211329242
variable	lzz		index	49.3211329242
variable	lzy		index	0
variable	lzx		index	0
variable	lyx		index	0
variable	vtotal		index	119977.313144
variable	nl_poly		index	10

# Types

variable	type_c		index	1
variable	type_hc		index	2
variable	type_ho		index	3
variable	type_oc		index	4
variable	type_oh		index	5

variable	type_bond_c_c	index	1
variable	type_bond_c_hc	index	2
variable	type_bond_c_oc	index	3
variable	type_bond_c_oh	index	4
variable	type_bond_ho_oh	index	5

variable	type_angle_c_c_hc index	1
variable	type_angle_c_c_oc index	2
variable	type_angle_c_c_oh index	3
variable	type_angle_c_oc_c index	4
variable	type_angle_c_oh_ho index	5
variable	type_angle_hc_c_hc index	6
variable	type_angle_hc_c_oc index	7
variable	type_angle_hc_c_oh index	8

# Clusters

variable	n0_poly		index	1
variable	n1_poly		index	10
variable	nl_poly		index	10

# Flags

variable	flag_charged	index	1

# Masses

mass		1    12.01115  # c
mass		2     1.00797  # hc
mass		3     1.00797  # ho
mass		4    15.99940  # oc
mass		5    15.99940  # oh

# Potentials

pair_modify	mix sixthpower tail yes
special_bonds	lj/coul 0 0 1

# Pair Coeffs

pair_coeff	 1  1    0.05400    4.01000  # c,c
pair_coeff	 2  2    0.02000    2.99500  # hc,hc
pair_coeff	 3  3    0.01300    1.09800  # ho,ho
pair_coeff	 4  4    0.24000    3.53500  # oc,oc
pair_coeff	 5  5    0.24000    3.53500  # oh,oh

# Bond Coeffs

bond_coeff	1    1.53000  299.67000 -501.77000  679.81000  # c,c
bond_coeff	2    1.10100  345.00000 -691.89000  844.60000  # c,hc
bond_coeff	3    1.42000  400.39540 -835.19510 1313.01420  # c,oc
bond_coeff	4    1.42000  400.39540 -835.19510 1313.01420  # c,oh
bond_coeff	5    0.96500  532.50620 -1282.90500 2004.76580  # ho,oh

# Angle Coeffs

angle_coeff	1  110.77000   41.45300  -10.60400    5.12900  # c,c,hc
angle_coeff	2  111.27000   54.53810   -8.36420  -13.08380  # c,c,oc
angle_coeff	3  111.27000   54.53810   -8.36420  -13.08380  # c,c,oh
angle_coeff	4  104.50000   35.74540  -10.00670   -6.27290  # c,oc,c
angle_coeff	5  105.80000   52.70610  -12.10900   -9.86810  # c,oh,ho
angle_coeff	6  107.66000   39.64100  -12.92100   -2.43180  # hc,c,hc
angle_coeff	7  108.72800   58.54460  -10.80880  -12.40060  # hc,c,oc
angle_coeff	8  108.72800   58.54460  -10.80880  -12.40060  # hc,c,oh

# BondBond Coeffs

angle_coeff	1 bb    3.38720    1.53000    1.10100  # c,c,hc
angle_coeff	2 bb   11.43180    1.53000    1.42000  # c,c,oc
angle_coeff	3 bb   11.43180    1.53000    1.42000  # c,c,oh
angle_coeff	4 bb   -7.11310    1.42000    1.42000  # c,oc,c
angle_coeff	5 bb   -9.68790    1.42000    0.96500  # c,oh,ho
angle_coeff	6 bb    5.33160    1.10100    1.10100  # hc,c,hc
angle_coeff	7 bb   23.19790    1.10100    1.42000  # hc,c,oc
angle_coeff	8 bb   23.19790    1.10100    1.42000  # hc,c,oh

# BondAngle Coeffs

angle_coeff	1 ba   20.75400   11.42100    1.53000    1.10100  # c,c,hc
angle_coeff	2 ba    2.68680   20.40330    1.53000    1.42000  # c,c,oc
angle_coeff	3 ba    2.68680   20.40330    1.53000    1.42000  # c,c,oh
angle_coeff	4 ba   -2.81120   -2.81120    1.42000    1.42000  # c,oc,c
angle_coeff	5 ba   28.58000   18.92770    1.42000    0.96500  # c,oh,ho
angle_coeff	6 ba   18.10300   18.10300    1.10100    1.10100  # hc,c,hc
angle_coeff	7 ba    4.61890   55.32700    1.10100    1.42000  # hc,c,oc
angle_coeff	8 ba    4.61890   55.32700    1.10100    1.42000  # hc,c,oh

# Dihedral Coeffs

dihedral_coeff	1   -0.52030    0.00000   -0.30280    0.00000   -0.34500    0.00000  # c,c,oc,c
dihedral_coeff	2   -0.67320    0.00000   -0.47780    0.00000   -0.16700    0.00000  # c,c,oh,ho
dihedral_coeff	3    0.53020    0.00000    0.00000    0.00000   -0.39660    0.00000  # c,oc,c,hc
dihedral_coeff	4   -0.14320    0.00000    0.06170    0.00000   -0.10830    0.00000  # hc,c,c,hc
dihedral_coeff	5   -0.14350    0.00000    0.25300    0.00000   -0.09050    0.00000  # hc,c,c,oc
dihedral_coeff	6   -0.14350    0.00000    0.25300    0.00000   -0.09050    0.00000  # hc,c,c,oh
dihedral_coeff	7    0.18630    0.00000   -0.43380    0.00000   -0.21210    0.00000  # hc,c,oh,ho
dihedral_coeff	8   -0.18200    0.00000   -0.10840    0.00000   -0.70470    0.00000  # oc,c,c,oc
dihedral_coeff	9   -0.18200    0.00000   -0.10840    0.00000   -0.70470    0.00000  # oc,c,c,oh

# MiddleBondTorsion Coeffs

dihedral_coeff	1 mbt   -5.92880   -2.70070   -0.31750    1.42000  # c,c,oc,c
dihedral_coeff	2 mbt    1.24720    0.00000    0.74850    1.42000  # c,c,oh,ho
dihedral_coeff	3 mbt   -6.80070   -4.65460   -1.41010    1.42000  # c,oc,c,hc
dihedral_coeff	4 mbt  -14.26100   -0.53220   -0.48640    1.53000  # hc,c,c,hc
dihedral_coeff	5 mbt  -16.79750   -1.22960   -0.27500    1.53000  # hc,c,c,oc
dihedral_coeff	6 mbt  -16.79750   -1.22960   -0.27500    1.53000  # hc,c,c,oh
dihedral_coeff	7 mbt    0.00000    0.92410   -0.58890    1.42000  # hc,c,oh,ho
dihedral_coeff	8 mbt  -17.25850   -3.61570   -0.83640    1.53000  # oc,c,c,oc
dihedral_coeff	9 mbt  -17.25850   -3.61570   -0.83640    1.53000  # oc,c,c,oh

# EndBondTorsion Coeffs

dihedral_coeff	1 ebt   -0.24560    1.05170   -0.77950    0.47410    1.26350    0.55760    1.53000    1.42000  # c,c,oc,c
dihedral_coeff	2 ebt   -0.58000    0.90040    0.00000    0.00000    0.53430    0.90250    1.53000    0.96500  # c,c,oh,ho
dihedral_coeff	3 ebt   -0.16200    0.15640   -1.14080   -0.60540    1.33390    0.96480    1.42000    1.10100  # c,oc,c,hc
dihedral_coeff	4 ebt    0.21300    0.31200    0.07770    0.21300    0.31200    0.07770    1.10100    1.10100  # hc,c,c,hc
dihedral_coeff	5 ebt    0.96810    0.95510    0.04360    0.59030    0.66690    0.85840    1.10100    1.42000  # hc,c,c,oc
dihedral_coeff	6 ebt    0.96810    0.95510    0.04360    0.59030    0.66690    0.85840    1.10100    1.42000  # hc,c,c,oh
dihedral_coeff	7 ebt   -1.75540    1.31450    0.22630    0.24930    0.68030    0.00000    1.10100    0.96500  # hc,c,oh,ho
dihedral_coeff	8 ebt    1.01650    0.75530   -0.46090    1.01650    0.75530   -0.46090    1.42000    1.42000  # oc,c,c,oc
dihedral_coeff	9 ebt    1.01650    0.75530   -0.46090    1.01650    0.75530   -0.46090    1.42000    1.42000  # oc,c,c,oh

# AngleTorsion Coeffs

dihedral_coeff	1 at   -2.74660    1.48770   -0.89550    0.56760    0.94500    0.07030  111.27000  104.50000  # c,c,oc,c
dihedral_coeff	2 at   -3.59030    2.52250    0.48880    0.87260   -0.35770    0.38880  111.27000  105.80000  # c,c,oh,ho
dihedral_coeff	3 at   -0.77770    0.43400   -0.66530   -1.82340    1.63930    0.51440  104.50000  108.72800  # c,oc,c,hc
dihedral_coeff	4 at   -0.80850    0.55690   -0.24660   -0.80850    0.55690   -0.24660  110.77000  110.77000  # hc,c,c,hc
dihedral_coeff	5 at    2.36680    2.49200   -1.01220   -0.18920    0.49180    0.72730  110.77000  111.27000  # hc,c,c,oc
dihedral_coeff	6 at    2.36680    2.49200   -1.01220   -0.18920    0.49180    0.72730  110.77000  111.27000  # hc,c,c,oh
dihedral_coeff	7 at   -3.40600    1.63960    0.07370    0.00000   -0.28100   -0.59440  108.72800  105.80000  # hc,c,oh,ho
dihedral_coeff	8 at    0.55110    0.97370   -0.66730    0.55110    0.97370   -0.66730  111.27000  111.27000  # oc,c,c,oc
dihedral_coeff	9 at    0.55110    0.97370   -0.66730    0.55110    0.97370   -0.66730  111.27000  111.27000  # oc,c,c,oh

# AngleAngleTorsion Coeffs

dihedral_coeff	1 aat  -19.00590  111.27000  104.50000  # c,c,oc,c
dihedral_coeff	2 aat  -12.10380  111.27000  105.80000  # c,c,oh,ho
dihedral_coeff	3 aat  -16.44380  104.50000  108.72800  # c,oc,c,hc
dihedral_coeff	4 aat  -12.56400  110.77000  110.77000  # hc,c,c,hc
dihedral_coeff	5 aat  -20.20060  110.77000  111.27000  # hc,c,c,oc
dihedral_coeff	6 aat  -20.20060  110.77000  111.27000  # hc,c,c,oh
dihedral_coeff	7 aat  -10.50930  108.72800  105.80000  # hc,c,oh,ho
dihedral_coeff	8 aat  -14.04840  111.27000  111.27000  # oc,c,c,oc
dihedral_coeff	9 aat  -14.04840  111.27000  111.27000  # oc,c,c,oh

# BondBond13 Coeffs

dihedral_coeff	1 bb13    0.00000    1.53000    1.42000  # c,c,oc,c
dihedral_coeff	2 bb13    0.00000    1.53000    0.96500  # c,c,oh,ho
dihedral_coeff	3 bb13    0.00000    1.42000    1.10100  # c,oc,c,hc
dihedral_coeff	4 bb13    0.00000    1.10100    1.10100  # hc,c,c,hc
dihedral_coeff	5 bb13    0.00000    1.10100    1.42000  # hc,c,c,oc
dihedral_coeff	6 bb13    0.00000    1.10100    1.42000  # hc,c,c,oh
dihedral_coeff	7 bb13    0.00000    1.10100    0.96500  # hc,c,oh,ho
dihedral_coeff	8 bb13    0.00000    1.42000    1.42000  # oc,c,c,oc
dihedral_coeff	9 bb13    0.00000    1.42000    1.42000  # oc,c,c,oh

# Improper Coeffs

improper_coeff	1    0.00000    0.00000  # c,c,hc,hc
improper_coeff	2    0.00000    0.00000  # c,c,hc,oc
improper_coeff	3    0.00000    0.00000  # c,c,oc,hc
improper_coeff	4    0.00000    0.00000  # c,c,oh,hc
improper_coeff	5    0.00000    0.00000  # c,hc,hc,hc
improper_coeff	6    0.00000    0.00000  # c,hc,hc,oc
improper_coeff	7    0.00000    0.00000  # c,hc,hc,oh

# AngleAngle Coeffs

improper_coeff	1 aa    0.27380   -0.48250    0.27380  110.77000  110.77000  107.66000  # c,c,hc,hc
improper_coeff	2 aa    3.91770    2.59260    0.16890  110.77000  111.27000  108.72800  # c,c,hc,oc
improper_coeff	3 aa    0.16890    2.59260    3.91770  111.27000  110.77000  108.72800  # c,c,oc,hc
improper_coeff	4 aa    0.16890    2.59260    3.91770  111.27000  110.77000  108.72800  # c,c,oh,hc
improper_coeff	5 aa   -0.31570   -0.31570   -0.31570  107.66000  107.66000  107.66000  # c,hc,hc,hc
improper_coeff	6 aa    2.42590    2.42590    2.12830  107.66000  108.72800  108.72800  # c,hc,hc,oc
improper_coeff	7 aa    2.42590    2.42590    2.12830  107.66000  108.72800  108.72800  # c,hc,hc,oh


# --- Thermo Output ---
thermo_style custom step time temp press enthalpy etotal ke pe ebond eangle edihed eimp evdwl ecoul elong etail vol lx ly lz density pxx pyy pzz
thermo_modify flush yes
thermo 1000

# --- Trajectory ---
dump dump_npt all custom 1000 npt_production.dump id type mol x y z ix iy iz vx vy vz

# --- Restart Checkpointing ---
# No restart checkpointing

# --- Initial Velocities (optional) ---
# Velocities read from data file

# --- SHAKE Constraints ---
# SHAKE disabled

# --- NPT Thermostat + Barostat (Nose-Hoover) ---
# T_damp = 100.0 fs  (heat bath coupling)
# P_damp = 1000.0 fs  (pressure bath coupling, ~10x T_damp typical)
# Ramp: T=300.0->300.0K  P=1.0->1.0atm
timestep 1.0
fix npt_fix all npt temp 300.0 300.0 100.0 iso 1.0 1.0 1000.0

run 2000000
PPPM Kokkos initialization ...
  using 12-bit tables for long-range coulomb
  G vector (1/distance) = 0.30293484
  grid = 30 30 30
  stencil order = 5
  estimated absolute RMS force accuracy = 0.00030678637
  estimated relative force accuracy = 9.2387805e-07
  using double precision cuFFT
  3d grid and FFT values/proc = 50653 27000
Generated 10 of 10 mixed pair_coeff terms from sixthpower/sixthpower mixing rule
Neighbor list info ...
  update: every = 1 steps, delay = 0 steps, check = yes
  max neighbors/atom: 4000, page size: 100000
  master list distance cutoff = 11.5
  ghost atom cutoff = 11.5
  binsize = 11.5, bins = 4 4 4
  1 neighbor lists, perpetual/occasional/extra = 1 0 0
  (1) pair lj/class2/coul/long/kk, perpetual
      attributes: full, newton off, kokkos_device
      pair build: full/bin/kk/device
      stencil: full/bin/3d
      bin: kk/device
Per MPI rank memory allocation (min/avg/max) = 32.46 | 32.46 | 32.46 Mbytes
   Step          Time           Temp          Press         Enthalpy        TotEng         KinEng         PotEng         E_bond        E_angle        E_dihed        E_impro         E_vdwl         E_coul         E_long         E_tail         Volume           Lx             Ly             Lz          Density          Pxx            Pyy            Pzz      
         0   0              300.84394     -202.15154      3870.3647      4075.0985      6294.3489     -2219.2504      2367.2036      4904.3127     -8567.9837     -51.081629     -2957.4278      6963.4077     -4877.6813     -462.28008      69444.294      41.103505      41.103505      41.103505      1.053883      -681.78865      889.28659     -813.95256    
      1000   1000           297.66203     -1058.9911      2791.584       3864.8557      6227.7759     -2362.9202      2334.6183      4884.1733     -8608.6407     -51.5291       -3004.4484      6961.6973     -4878.7908     -461.95564      69493.065      41.113125      41.113125      41.113125      1.0531434     -1630.3214     -904.07774     -642.5743     
      2000   2000           301.47619      1553.0209      5517.0489      3962.2972      6307.577      -2345.2798      2311.0302      4905.3217     -8575.4537     -56.310141     -3006.3389      6955.5423     -4879.0713     -467.66397      68644.83       40.945164      40.945164      40.945164      1.0661569      2022.0486      1915.8391      721.17503    
      3000   3000           301.86021      1011.1543      5074.0593      4058.1467      6315.6115     -2257.4648      2417.6876      4882.1113     -8575.7146     -54.61633      -3012.1852      6965.2555     -4880.0031     -465.99225      68891.089      40.994068      40.994068      40.994068      1.0623458      356.31935      932.6501       1744.4933    
      4000   4000           296.53883     -1142.802       2746.4056      3900.9335      6204.276      -2303.3425      2357.4         4785.3988     -8512.04       -55.108213     -2959.3026      6960.3061     -4879.9965     -463.43004      69271.975      41.069479      41.069479      41.069479      1.0565046     -1511.002      -607.39855     -1310.0056    
      5000   5000           303.61754     -498.81626      3512.2899      4013.7018      6352.379      -2338.6772      2337.7846      4921.7194     -8580.7729     -55.926352     -3021.5169      6944.1946     -4884.1597     -465.76151      68925.218      41.000836      41.000836      41.000836      1.0618198     -1737.4408      226.41839      14.573676    
      6000   6000           298.72741     -707.12869      3282.1477      4000.1892      6250.0661     -2249.877       2382.4353      4832.919      -8550.2148     -54.486789     -2932.7494      6951.6242     -4879.4044     -461.06969      69626.598      41.139441      41.139441      41.139441      1.0511236     -743.85018     -268.09385     -1109.4421    
      7000   7000           300.56356      1497.1218      5534.7887      4032.5327      6288.4827     -2255.95        2390.9439      4876.9804     -8571.9183     -52.66299      -2975.5753      6956.9157     -4880.6335     -466.58506      68803.561      40.976699      40.976699      40.976699      1.0636973      2428.1186      1246.678       816.56886    
      8000   8000           300.60144     -422.33674      3507.7189      3930.0561      6289.2752     -2359.2191      2334.7176      4908.8146     -8545.0407     -55.24795      -3080.5287      6955.3972     -4877.3312     -468.18467      68568.485      40.929979      40.929979      40.929979      1.067344      -244.63769     -1305.3853      283.01278    
      9000   9000           300.81523      491.13158      4576.1794      4082.0001      6293.7483     -2211.7483      2402.807       4879.5599     -8593.8485     -52.462587     -2934.0765      6964.2983     -4878.0259     -465.29767      68993.927      41.014456      41.014456      41.014456      1.0607623      1991.3548     -207.62984     -310.33026    
     10000   10000          306.69973     -528.00489      3641.0093      4171.5982      6416.8654     -2245.2673      2363.7977      4937.5494     -8549.3575     -55.91768      -3019.5527      6958.9347     -4880.7213     -465.9051       68903.976      40.996624      40.996624      40.996624      1.0621471     -331.24349     -1035.9508     -216.8204     
     11000   11000          301.16442      236.5066       4184.4514      3946.0693      6301.0542     -2354.9848      2287.0007      4963.9378     -8606.2383     -53.457018     -3037.4595      6971.6988     -4880.4673     -464.50183      69112.136      41.037866      41.037866      41.037866      1.058948       569.90849     -358.10153      497.71285    
     12000   12000          302.41489      785.06926      4879.3416      4089.7635      6327.2168     -2237.4533      2338.5804      4964.3336     -8549.4776     -54.192602     -3033.9557      6973.0678     -4875.8092     -465.51158      68962.224      41.008173      41.008173      41.008173      1.06125        1098.3839      472.46166      784.36221    
     13000   13000          305.11328     -1522.2799      2546.3901      4081.9208      6383.6733     -2301.7525      2338.5135      4921.2182     -8573.5058     -57.604364     -3016.18        6966.2525     -4880.4465     -464.14496      69165.275      41.048381      41.048381      41.048381      1.0581344     -1982.3429     -1861.1913     -723.30535    
     14000   14000          300.60621     -80.637078      3941.4548      4022.6759      6289.375      -2266.6991      2352.4154      4862.0908     -8541.3919     -54.745838     -2975.1748      6967.8588     -4877.7515     -464.81842      69065.064      41.028547      41.028547      41.028547      1.0596698      351.27492     -174.90678     -418.27938    
     15000   15000          297.51226      1224.0497      5141.0998      3906.675       6224.6424     -2317.9674      2357.383       4818.2729     -8567.1001     -53.10443      -2951.3819      6955.0763     -4877.1132     -464.25014      69149.605      41.045281      41.045281      41.045281      1.0583742      216.27145      2981.9766      473.90093    
     16000   16000          300.14109      318.1471       4381.9147      4063.3421      6279.6436     -2216.3015      2388.5575      4926.9153     -8588.9365     -54.886445     -2969.7703      6960.6363     -4878.8172     -467.5598       68660.124      40.948204      40.948204      40.948204      1.0659194      749.7037       1213.5673     -1008.8297    
     17000   17000          297.52163      778.75399      4757.4039      3978.5711      6224.8385     -2246.2674      2356.1362      4871.419      -8539.393      -49.78724      -2976.8623      6968.7844     -4876.5644     -468.13781      68575.349      40.931344      40.931344      40.931344      1.0672371     -108.62455      487.12555      1957.761     
     18000   18000          303.08004     -143.76218      4019.3298      4164.0198      6341.1332     -2177.1133      2358.0232      5009.5974     -8548.3292     -51.441625     -3035.7486      6966.65       -4875.8644     -465.18271      69010.978      41.017834      41.017834      41.017834      1.0605003     -507.80975     -453.53432      530.05753    
     19000   19000          299.26348      57.077363      4116.8067      4059.1882      6261.2821     -2202.0939      2364.0559      4914.736      -8522.4585     -52.772248     -2986.0363      6957.6254     -4877.2442     -463.78845      69218.441      41.058896      41.058896      41.058896      1.0573217      447.37904      747.3772      -1023.5242    
     20000   20000          301.92986      988.17852      5027.4937      4031.5201      6317.0689     -2285.5488      2347.8204      4941.1188     -8608.523      -56.252224     -3010.721       6981.1753     -4880.1671     -464.52086      69109.305      41.037306      41.037306      41.037306      1.0589914      682.08787      10.443796      2272.0039    
     21000   21000          296.7182       73.210808      3986.094       3912.618       6208.0289     -2295.4109      2375.0297      4843.9786     -8555.1747     -55.422404     -2981.6225      6958.1413     -4880.3411     -466.49526      68816.806      40.979328      40.979328      40.979328      1.0634925      1976.9171     -176.15719     -1581.1275    
     22000   22000          302.04006      154.90406      4236.8415      4080.275       6319.3745     -2239.0995      2383.0733      4976.7582     -8628.1352     -52.4668       -2984.3507      6947.9185     -4881.8966     -463.21385      69304.305      41.075867      41.075867      41.075867      1.0560117     -420.25168      744.69258      140.27128    
     23000   23000          298.89853     -1061.7501      2899.3715      3970.7763      6253.6464     -2282.87        2330.2787      4940.4518     -8593.1899     -53.160635     -2989.2095      6958.9162     -4876.9567     -463.96623      69191.919      41.053652      41.053652      41.053652      1.057727      -1228.6172     -1254.4456     -702.18758    
     24000   24000          302.45568     -222.66639      3923.5308      4146.8844      6328.0703     -2181.1859      2387.8516      4860.708      -8503.9158     -53.015396     -2954.718       6963.8052     -4881.9015     -466.74472      68780.026      40.972026      40.972026      40.972026      1.0640612     -2386.4639      281.03989      1437.4249    
     25000   25000          299.5662       1159.9791      5100.6271      3940.309       6267.6156     -2327.3066      2354.6845      4936.8134     -8643.8422     -52.691467     -3003.902       6960.3992     -4878.7681     -468.04832      68588.46       40.933953      40.933953      40.933953      1.0670331      2977.4415      1015.3625     -512.86688    
     26000   26000          302.1093       616.92032      4674.9642      4056.4235      6320.8232     -2264.3998      2375.3545      4886.6369     -8598.7719     -52.801834     -2963.8292      6964.3698     -4875.358      -466.95861      68748.52       40.96577       40.96577       40.96577       1.0645489      754.31063      198.85786      897.59248    
     27000   27000          298.2931      -653.08388      3252.1679      3909.6949      6240.9794     -2331.2845      2341.8892      4852.8086     -8579.6871     -54.211305     -2984.5613      6967.0524     -4874.5751     -465.02148      69034.905      41.022574      41.022574      41.022574      1.0601327     -487.4032      -632.42755     -839.42088    
     28000   28000          303.15287     -215.05574      3809.6675      4024.306       6342.657      -2318.351       2361.3845      4949.1714     -8639.0908     -49.967749     -3029.8879      6969.2874     -4879.2477     -469.09515      68435.398      40.903481      40.903481      40.903481      1.0694196      1491.1249     -716.52248     -1419.7697    
     29000   29000          295.5391       8.0065966      3739.0298      3730.9664      6183.3594     -2452.3931      2278.3586      4770.7443     -8549.9092     -50.499894     -2981.2748      6959.4526     -4879.2646     -464.88767      69054.776      41.02651       41.02651       41.02651       1.0598276      498.64849     -829.96243      355.33373    
     30000   30000          302.82933      768.17737      4865.0494      4093.0536      6335.8879     -2242.8343      2335.6235      4969.3317     -8587.1194     -57.545299     -2965.6645      6943.6453     -4881.1055     -465.86938      68909.259      40.997672      40.997672      40.997672      1.0620657      1019.2854     -101.88396      1387.1307    
     31000   31000          299.32059     -590.94047      3337.3864      3935.1018      6262.477      -2327.3752      2343.6054      4836.3284     -8547.2792     -53.305681     -2979.9884      6954.5294     -4881.2651     -462.87841      69354.527      41.085787      41.085787      41.085787      1.055247      -1297.8655     -285.14305     -189.8128     
     32000   32000          303.88573     -165.92289      3929.681       4097.9526      6357.9902     -2260.0376      2366.9653      4898.1963     -8589.3228     -50.609502     -2967.0633      6964.6859     -4882.8895     -461.65024      69539.038      41.122189      41.122189      41.122189      1.0524471     -160.41374     -551.34953      213.99461    
     33000   33000          304.07367     -114.07445      4042.0006      4156.8866      6361.9224     -2205.0358      2329.0806      4976.5085     -8556.3186     -52.661337     -2962.5419      6945.248      -4884.3511     -464.87807      69056.201      41.026792      41.026792      41.026792      1.0598058     -142.03879      162.27875     -362.46333    
     34000   34000          303.2878       272.61534      4255.4741      3980.7613      6345.48       -2364.7187      2302.3678      4898.4172     -8600.6579     -51.18918      -2983.778       6953.5589     -4883.4375     -464.61039      69095.987      41.03467       41.03467       41.03467       1.0591955      637.23806      552.92791     -372.31996    
     35000   35000          297.6827      -708.94707      3307.7146      4025.3997      6228.2084     -2202.8087      2330.2887      5000.0938     -8586.7718     -52.814359     -2967.5452      6956.0296     -4882.0894     -462.48483      69413.549      41.097438      41.097438      41.097438      1.0543498     -617.10528     -865.01752     -644.71841    
     36000   36000          298.62442      409.78924      4457.5326      4041.6179      6247.9114     -2206.2934      2355.8456      4955.274      -8641.3989     -54.289809     -2898.878       6956.9118     -4879.7582     -461.28985      69593.366      41.132895      41.132895      41.132895      1.0516255      1384.6074      109.46184     -264.70156    
     37000   37000          298.15335      757.69209      4700.0703      3939.7804      6238.0555     -2298.2751      2342.2746      4955.5124     -8606.7268     -53.741343     -2996.1282      6942.5414     -4882.0071     -466.5854       68803.511      40.976689      40.976689      40.976689      1.063698       486.056        75.867906      1711.1524    
     38000   38000          301.54557     -535.69366      3453.7118      3996.672       6309.0286     -2312.3566      2316.7729      4896.9842     -8559.7067     -54.248536     -2972.0504      6941.9127     -4882.0207     -461.91936      69498.524      41.114202      41.114202      41.114202      1.0530606      82.606239     -1273.9913     -415.69595    
     39000   39000          300.58647      29.193632      4179.6029      4150.2226      6288.962      -2138.7393      2382.3186      4992.0948     -8547.5618     -54.167032     -2969.6415      6940.8143     -4882.5968     -465.21193      69006.644      41.016976      41.016976      41.016976      1.0605669      943.11383     -706.35721     -149.17572    
     40000   40000          301.63005     -275.03958      3886.9138      4166.1268      6310.7962     -2144.6693      2406.9498      4907.9033     -8484.8358     -51.472823     -2972.7952      6936.0891     -4886.5078     -461.18708      69608.874      41.135951      41.135951      41.135951      1.0513912     -402.92716     -747.29831      325.10674    
     41000   41000          297.43887      412.26454      4502.2874      4088.4014      6223.107      -2134.7056      2361.5874      4992.8981     -8527.3379     -56.965275     -2966.0835      6944.081      -4882.8856     -466.35093      68838.103      40.983555      40.983555      40.983555      1.0631635      390.99057      317.26182      528.54123    
     42000   42000          297.74327      1034.173       4987.8115      3948.4373      6229.4757     -2281.0384      2374.0174      4926.5048     -8608.4427     -53.709861     -3003.1601      6966.0634     -4882.3115     -465.84229      68913.267      40.998466      40.998466      40.998466      1.0620039      966.48723      2004.7458      131.28592    
     43000   43000          302.07578      219.5488       4245.0127      4024.688       6320.1219     -2295.4339      2324.9584      4874.7811     -8560.8585     -53.346475     -2964.7377      6961.9758     -4878.2065     -466.53632      68810.749      40.978126      40.978126      40.978126      1.0635862      1611.607      -1094.6144      141.65386    
     44000   44000          305.12115      278.60627      4416.8577      4136.1172      6383.838      -2247.7208      2384.6223      4861.1318     -8508.627      -51.238685     -3009.2834      6958.0074     -4882.3334     -464.62587      69093.685      41.034214      41.034214      41.034214      1.0592308      1232.7572     -686.75339      289.815      
     45000   45000          297.68711     -1230.0534      2736.1157      3976.1877      6228.3008     -2252.1131      2322.8567      5017.2985     -8612.184      -50.954518     -3002.5306      6959.9569     -4886.5561     -464.40265      69126.896      41.040787      41.040787      41.040787      1.0587219     -1432.8468     -780.88066     -1476.4327    
     46000   46000          302.12058     -221.31263      3845.6095      4068.1723      6321.0592     -2252.8869      2389.6799      4838.9821     -8530.0663     -57.079851     -2965.1031      6952.4647     -4881.7644     -465.55531      68955.746      41.006889      41.006889      41.006889      1.0613497     -1377.9015     -128.35811      842.32171    
     47000   47000          299.10767     -1475.2547      2720.9528      4222.9899      6258.0221     -2035.0322      2437.8083      5001.7573     -8545.113      -56.589071     -2957.0658      6964.2934     -4880.1232     -459.83708      69813.233      41.176167      41.176167      41.176167      1.0483136     -2982.2126     -1943.1258      499.5742     
     48000   48000          302.90884     -2027.4855      2022.0377      4066.4195      6337.5514     -2271.1318      2376.8901      4785.7643     -8451.7305     -52.851075     -2997.5566      6952.713      -4884.3611     -464.31573      69139.837      41.043348      41.043348      41.043348      1.0585238     -1441.7899     -1885.1695     -2755.4972    
     49000   49000          301.05519     -1301.6273      2737.5612      4050.945       6298.7687     -2247.8237      2383.1936      4850.6463     -8494.9182     -54.313377     -3019.9298      6965.8972     -4878.3995     -463.99426      69187.739      41.052825      41.052825      41.052825      1.0577909     -1178.8443     -983.34641     -1742.6912    
     50000   50000          299.31656     -1742.6231      2258.894       4012.5099      6262.3926     -2249.8828      2416.1337      4911.5452     -8555.7871     -54.04496      -3029.0261      6943.3492     -4882.0529     -465.25029      69000.954      41.015848      41.015848      41.015848      1.0606543     -3614.2798     -1910.9839      297.39423    
     51000   51000          303.95884      517.59817      4689.2271      4167.2468      6359.5198     -2192.2729      2358.2291      4921.849      -8495.4138     -54.938788     -2986.5594      6945.8508     -4881.2899     -464.25471      69148.924      41.045146      41.045146      41.045146      1.0583846      1057.6874      185.7926       309.31452    
     52000   52000          300.83773      819.51816      4902.7109      4079.3881      6294.219      -2214.8309      2340.6376      4917.0606     -8543.4819     -50.973393     -2932.3728      6938.4274     -4884.1284     -466.02163      68886.745      40.993206      40.993206      40.993206      1.0624128      1129.7707      364.77033      964.01347    
     53000   53000          301.08692      1062.4431      5099.4154      4026.0822      6299.4326     -2273.3504      2344.9408      4906.7973     -8604.7007     -50.107035     -2947.4999      6959.4401     -4882.221      -463.43489      69271.249      41.069335      41.069335      41.069335      1.0565157      1557.6862      445.35508      1184.2879    
     54000   54000          302.06784      540.44714      4692.8388      4151.1003      6319.9558     -2168.8555      2369.978       4942.4846     -8476.016      -54.170565     -3015.4007      6947.718      -4883.4488     -467.06915      68732.251      40.962538      40.962538      40.962538      1.0648009      435.2848       716.24252      469.81409    
     55000   55000          301.02781     -586.0219       3457.5098      4050.2012      6298.1958     -2247.9946      2373.1878      4957.7693     -8611.4992     -51.367369     -2978.7224      6945.5327     -4882.8954     -462.91678      69348.78       41.084652      41.084652      41.084652      1.0553345      113.27827      12.777011     -1884.121     
     56000   56000          294.01503      159.93818      4094.3424      3931.6751      6151.4723     -2219.7972      2380.5862      4861.3391     -8547.7994     -53.759735     -2936.6862      6960.9736     -4884.4508     -460.33014      69738.457      41.161461      41.161461      41.161461      1.0494376      437.95345     -378.32616      420.18724    
     57000   57000          300.96374      96.177028      4182.9995      4086.1007      6296.8554     -2210.7547      2327.4584      4906.7139     -8532.3988     -54.302979     -2917.5394      6941.5961     -4882.282      -464.69758      69083.023      41.032103      41.032103      41.032103      1.0593943      586.28947     -1376.2763      1078.518     
     58000   58000          301.79622      276.20164      4479.5039      4198.7603      6314.2728     -2115.5125      2398.5528      4919.2252     -8538.5295     -53.753989     -2906.8967      6947.3452     -4881.4554     -460.61073      69695.974      41.153101      41.153101      41.153101      1.0500773     -691.1258       822.83624      696.89449    
     59000   59000          298.93618      1253.4599      5121.4521      3858.2567      6254.4341     -2396.1775      2276.0739      4831.9168     -8527.476      -52.579161     -2982.5292      6943.1052     -4884.6889     -464.5768       69100.983      41.035659      41.035659      41.035659      1.0591189      1916.0845     -84.778286      1929.0734    
     60000   60000          305.36814     -764.61194      3325.306       4100.1036      6389.0057     -2288.9021      2341.4133      4977.8551     -8633.3628     -50.909226     -2978.3162      6934.6012     -4880.1834     -462.03028      69481.84       41.110911      41.110911      41.110911      1.0533135      135.27988     -2828.2353      399.11961    
     61000   61000          298.42945      1731.9616      5687.3442      3943.3403      6243.8322     -2300.4919      2371.1731      4807.6385     -8529.8806     -51.177541     -2958.1621      6940.5621     -4880.6453     -464.95236      69045.168      41.024607      41.024607      41.024607      1.0599751      1977.6482      898.16181      2320.0749    
     62000   62000          296.69637      1.8091601      3982.7807      3980.955       6207.5721     -2226.6171      2295.2086      5001.6657     -8557.5737     -53.20204      -2984.5545      6950.9388     -4879.0999     -463.9668       69191.834      41.053635      41.053635      41.053635      1.0577283      529.77077     -959.45052      435.10723    
     63000   63000          299.17451     -355.79561      3522.6269      3881.4531      6259.4205     -2377.9674      2294.553       4767.5356     -8527.4808     -49.941839     -2938.7706      6958.648      -4882.5108     -464.23101      69152.454      41.045845      41.045845      41.045845      1.0583306     -405.16924     -1273.9889      611.77134    
     64000   64000          303.73341      371.78504      4432.4912      4057.1741      6354.8032     -2297.6291      2339.8152      4892.9        -8515.6912     -51.902082     -3018.2962      6938.9147     -4883.3695     -463.77913      69219.832      41.059171      41.059171      41.059171      1.0573005     -965.4844       898.59685      1182.2427    
     65000   65000          304.64443     -1541.6531      2571.5792      4121.7573      6373.8638     -2252.1065      2362.7941      4917.8436     -8512.2177     -53.703729     -3020.8985      6940.4657     -4886.3899     -465.61043      68947.582      41.00527       41.00527       41.00527       1.0614754     -615.27429     -1901.3958     -2108.2891    
     66000   66000          300.56376      850.64814      4883.7886      4028.0928      6288.4868     -2260.394       2339.5777      4908.1671     -8543.9868     -49.698115     -2982.661       6951.2202     -4883.0132     -465.42338      68975.291      41.010763      41.010763      41.010763      1.0610489      1169.1639      1355.6634      27.117091    
     67000   67000          296.21617     -259.57982      3755.058       4016.6147      6197.5252     -2180.9105      2384.2575      4923.0809     -8516.9191     -54.236906     -2986.3813      6948.9507     -4879.6624     -464.64658      69090.606      41.033604      41.033604      41.033604      1.059278      -1255.5174      1426.761      -949.98303    
     68000   68000          300.75203     -397.00817      3596.9472      3998.8913      6292.426      -2293.5347      2323.2063      4969.1833     -8589.9288     -54.981463     -2983.9437      6929.8955     -4886.9658     -462.4358       69420.909      41.098891      41.098891      41.098891      1.054238      -610.01725     -1444.6569      863.64968    
     69000   69000          301.9326      -476.51014      3640.4334      4120.9673      6317.1261     -2196.1589      2379.6097      4926.9723     -8517.215      -51.903275     -2979.8832      6931.3537     -4885.0931     -464.26488      69147.41       41.044847      41.044847      41.044847      1.0584078      126.78563     -597.17839     -959.13766    
     70000   70000          301.95798     -630.71148      3409.1493      4044.8843      6317.6572     -2272.7729      2371.8231      4920.5797     -8514.6786     -52.430557     -3054.525       6942.9504     -4886.492      -464.48565      69114.544      41.038343      41.038343      41.038343      1.0589111      273.0311      -1228.5469     -936.6186     
     71000   71000          302.2129      -2261.2452      1877.1331      4167.5599      6322.9907     -2155.4308      2364.3744      5057.1745     -8564.3669     -54.007862     -2995.1463      6924.5935     -4888.0522     -462.22014      69453.298      41.105281      41.105281      41.105281      1.0537464     -3366.2628     -1149.0872     -2268.3857    
     72000   72000          297.53724      94.16468       4015.5597      3920.3676      6225.1651     -2304.7975      2302.6831      4948.7203     -8598.821      -54.215847     -2959.6254      6940.4428     -4883.9814     -463.13213      69316.533      41.078283      41.078283      41.078283      1.0558254      263.92451     -1115.3047      1133.8743    
     73000   73000          302.2587       80.105499      4128.9114      4048.1777      6323.9489     -2275.7712      2346.1205      4907.9359     -8531.4103     -53.520537     -3006.3528      6946.5406     -4885.0847     -464.54221      69106.128      41.036677      41.036677      41.036677      1.0590401     -726.04413      623.50038      342.86025    
     74000   74000          301.29627      132.29965      4130.2146      3996.9612      6303.8127     -2306.8514      2309.6944      4990.7138     -8617.0054     -52.08963      -2987.3566      6935.9061     -4886.7141     -464.83428      69062.707      41.02808       41.02808       41.02808       1.0597059      207.22013     -49.811712      239.49053    
     75000   75000          296.09825     -202.34021      3736.175       3940.2348      6195.0582     -2254.8234      2339.0128      4860.7464     -8479.9525     -54.674234     -2990.5085      6951.525      -4880.9723     -464.23967      69151.163      41.045589      41.045589      41.045589      1.0583504     -410.03062     -103.62729     -93.362739    
     76000   76000          300.36011     -889.81094      3273.7136      4172.0507      6284.2261     -2112.1753      2399.881       4977.8544     -8522.7246     -52.694425     -2992.1566      6958.4497     -4880.7848     -463.74155      69225.441      41.06028       41.06028       41.06028       1.0572148      1090.653      -2142.5111     -1617.5747    
     77000   77000          302.10403      1941.5373      6110.1541      4143.9983      6320.7128     -2176.7145      2317.4876      5018.7484     -8569.0153     -55.541016     -2958.2483      6952.5864     -4882.7323     -462.32294      69437.855      41.102235      41.102235      41.102235      1.0539807      1131.4008      2480.6742      2212.537     
     78000   78000          294.28147     -1053.4345      2833.1385      3897.6458      6157.047      -2259.4011      2325.4492      4928.152      -8566.5816     -52.720504     -2967.4721      6950.2349     -4876.463      -463.31515      69289.151      41.072873      41.072873      41.072873      1.0562427     -1857.3003     -743.88109     -559.12208    
     79000   79000          299.2747       815.27108      4926.0105      4102.9523      6261.5168     -2158.5645      2333.3979      4956.3708     -8541.1653     -56.76894      -2921.0474      6951.7184     -4881.0699     -463.75555      69223.351      41.059867      41.059867      41.059867      1.0572467      1235.5377      1187.1397      23.135812    
     80000   80000          302.11073     -375.00132      3643.5288      4021.1023      6320.8531     -2299.7508      2328.4022      4898.7064     -8538.3076     -56.621157     -2990.951       6943.8412     -4884.8207     -464.99567      69038.736      41.023333      41.023333      41.023333      1.0600739      1843.4867     -1373.029      -1595.4617    
     81000   81000          298.81457     -197.66293      3663.4782      3863.2176      6251.8898     -2388.6723      2291.0785      4845.7307     -8582.1377     -53.315052     -2963.927       6956.1514     -4882.2531     -463.318        69288.726      41.072789      41.072789      41.072789      1.0562492      798.64534      376.4268      -1768.0609    
     82000   82000          306.08125     -865.0503       3204.764       4079.737       6403.9255     -2324.1885      2360.2322      4856.1493     -8518.6425     -52.403898     -3021.2853      6937.563      -4885.8014     -462.8757       69354.934      41.085867      41.085867      41.085867      1.0552409     -832.56227     -843.11718     -919.47146    
     83000   83000          300.3354      -1191.0392      2778.257       3976.869       6283.709      -2306.84        2317.0786      4974.3448     -8596.3504     -50.592261     -3023.4728      6949.4311     -4877.2792     -465.22719      69004.38       41.016527      41.016527      41.016527      1.0606017     -657.10504     -2892.859      -23.153609    
     84000   84000          298.485        919.20706      4896.2925      3970.3391      6244.9944     -2274.6552      2339.073       4898.4983     -8574.2171     -52.797049     -2941.4941      6940.2973     -4884.0157     -464.77404      69071.659      41.029853      41.029853      41.029853      1.0595686      765.72428      899.50561      1092.3913    
     85000   85000          301.66703     -969.03078      3184.9141      4161.0794      6311.5698     -2150.4904      2380.9635      4981.7953     -8571.4112     -54.692393     -2939.6725      6932.3621     -4879.8352     -464.7633       69073.255      41.030169      41.030169      41.030169      1.0595441     -2387.0677      49.116676     -569.14127    
     86000   86000          301.67184      509.11407      4462.9648      3953.763       6311.6705     -2357.9075      2317.2877      4890.3539     -8564.8271     -54.976509     -3010.92        6949.13       -4883.9556     -468.10442      68580.241      40.932318      40.932318      40.932318      1.067161      -173.91522      1279.594       421.66339    
     87000   87000          301.9828       63.226503      4168.2742      4104.3067      6318.1765     -2213.8698      2333.1125      4968.1594     -8558.1701     -50.692284     -2984.1846      6960.0127     -4882.1075     -462.76147      69372.053      41.089247      41.089247      41.089247      1.0549804      1164.8532     -163.24719     -811.92649    
     88000   88000          302.61299     -1499.2994      2673.2156      4182.1482      6331.3615     -2149.2133      2390.9546      5012.6089     -8518.8167     -54.760646     -3041.3209      6945.8518     -4883.7303     -465.1962       69008.977      41.017438      41.017438      41.017438      1.060531      -979.23748     -1745.5982     -1773.0626    
     89000   89000          298.83741     -1032.1469      2958.7297      3998.3113      6252.3678     -2254.0565      2358.7851      4965.1929     -8562.494      -51.053749     -3027.5897      6945.8367     -4882.7338     -464.8369       69062.317      41.028003      41.028003      41.028003      1.0597119     -1594.0894     -1499.0292     -3.3221663    
     90000   90000          296.35295      836.31464      4991.2233      4148.3977      6200.387      -2051.9893      2393.6959      5026.6856     -8538.3515     -54.289655     -2956.0567      6956.9412     -4880.6141     -464.56835      69102.24       41.035907      41.035907      41.035907      1.0590997      961.6301       758.32441      788.9894     
     91000   91000          295.79212      277.12795      4261.9883      3982.6426      6188.6532     -2206.0106      2345.9143      4922.6585     -8519.7677     -56.256826     -2969.6165      6952.6344     -4881.5768     -464.46807      69117.16       41.038861      41.038861      41.038861      1.058871       656.1782      -96.035395      271.24105    
     92000   92000          299.41709     -909.58309      3032.2464      3951.8464      6264.496      -2312.6496      2333.3596      4817.8492     -8545.492      -52.774171     -2939.1122      6953.1843     -4879.6643     -463.08533      69323.538      41.079666      41.079666      41.079666      1.0557188     -449.9548      -1061.5627     -1217.2317    
     93000   93000          300.72955     -501.14066      3608.5276      4113.1138      6291.9556     -2178.8418      2334.7879      4939.3295     -8498.9365     -55.129108     -2968.5556      6950.855      -4881.193      -464.98821      69039.845      41.023553      41.023553      41.023553      1.0600568     -1824.129      -237.70327      558.41029    
     94000   94000          298.54455     -343.99297      3605.0831      3951.2739      6246.2404     -2294.9665      2348.0848      4832.7632     -8531.8986     -53.327459     -2977.7329      6964.8438     -4877.6994     -465.21283      69006.51       41.016949      41.016949      41.016949      1.0605689      316.9273      -633.68273     -715.22348    
     95000   95000          302.65563     -619.41648      3439.2493      4063.9643      6332.2537     -2268.2894      2332.8354      4945.6622     -8527.8249     -55.063413     -3046.7867      6964.2099     -4881.3219     -464.21427      69154.949      41.046338      41.046338      41.046338      1.0582924     -822.05536     -1099.3016      63.107475    
     96000   96000          303.92599      431.60433      4383.7749      3947.7749      6358.8326     -2411.0577      2271.1434      4867.5174     -8585.2303     -52.773729     -2975.8404      6949.4201     -4885.2941     -463.46502      69266.746      41.068445      41.068445      41.068445      1.0565844      426.95159      744.96949      122.8919     
     97000   97000          294.7083      -537.88234      3412.4663      3959.3209      6165.9773     -2206.6564      2322.895       5008.8498     -8558.9352     -53.282349     -2982.6276      6937.4257     -4880.9816     -460.50365      69712.181      41.15629       41.15629       41.15629       1.0498332     -1072.1724      9.0372863     -550.51186    
     98000   98000          295.58211     -277.77007      3713.128       3993.0169      6184.2594     -2191.2425      2318.5571      4940.2038     -8496.8164     -53.587832     -2946.006       6933.1096     -4886.7027     -464.64081      69091.464      41.033774      41.033774      41.033774      1.0592649     -508.913       -444.37484      119.97763    
     99000   99000          301.77229     -944.20294      3125.0424      4078.788       6313.7721     -2234.9841      2314.8366      4942.0162     -8545.551      -53.617821     -2944.7888      6938.2417     -4886.121      -463.50073      69261.409      41.06739       41.06739       41.06739       1.0566658     -424.19695     -1241.921      -1166.4909    
    100000   100000         297.22429     -37.826508      3970.6389      4008.5648      6218.6175     -2210.0528      2354.1158      4983.9416     -8554.0666     -53.038057     -2987.389       6935.1779     -4888.7945     -466.95798      68748.613      40.965788      40.965788      40.965788      1.0645474     -451.66594      1539.9526     -1201.7662    
    101000   101000         301.98225      738.91619      4891.6972      4147.3866      6318.165      -2170.7784      2328.0654      5004.8589     -8568.3268     -55.380023     -2944.273       6949.0111     -4884.7341     -464.79194      69068.998      41.029326      41.029326      41.029326      1.0596094      942.88122      1229.0919      44.775485    
    102000   102000         297.86972      1347.561       5373.0018      4012.6011      6232.1213     -2219.5202      2282.5458      5021.9913     -8560.7377     -50.475533     -2962.6099      6937.1696     -4887.4037     -463.76637      69221.737      41.059548      41.059548      41.059548      1.0572714      1088.1117      1201.3343      1753.2371    
    103000   103000         297.35382      465.41069      4444.5636      3978.9837      6221.3275     -2242.3439      2343.0307      4912.3426     -8521.7806     -54.05011      -2961.641       6926.3515     -4886.5968     -468.01503      68593.339      40.934923      40.934923      40.934923      1.0669572      1233.5956      121.10759      41.528899    
    104000   104000         298.96317     -160.81119      3917.1082      4080.3997      6254.9989     -2174.5992      2334.4266      5002.563      -8561.6353     -51.462553     -2943.9966      6932.2691     -4886.7633     -461.07366      69625.997      41.139323      41.139323      41.139323      1.0511327      1507.4076     -824.74366     -1165.0975    
    105000   105000         294.81673     -154.73749      3737.7679      3893.8597      6168.2457     -2274.386       2373.4946      4961.6416     -8571.207      -54.862304     -3023.1518      6928.4723     -4888.7733     -464.12294      69168.556      41.04903       41.04903       41.04903       1.0580842      1717.1718     -570.54548     -1610.8388    
    106000   106000         303.24965     -929.3165       3192.8209      4132.7899      6344.6819     -2211.892       2407.3595      4819.4739     -8483.4105     -50.71585      -2957.2306      6938.0026     -4885.3712     -462.87931      69354.393      41.08576       41.08576       41.08576       1.0552491     -1344.9421     -834.65147     -608.35593    
    107000   107000         298.9422       386.71722      4409.9069      4019.0111      6254.5601     -2235.5491      2342.9853      4984.5696     -8550.3074     -53.32787      -3010.2162      6937.8435     -4887.096      -463.18029      69309.325      41.076859      41.076859      41.076859      1.0559353      675.41883      392.11266      92.620172    
    108000   108000         299.22141     -41.317355      3950.0118      3991.3761      6260.4017     -2269.0257      2343.7786      5007.4885     -8588.2828     -53.01142      -3023.9848      6934.4539     -4889.4676     -467.65395      68646.301      40.945456      40.945456      40.945456      1.0661341      1384.8179     -81.310031     -1427.4599    
    109000   109000         301.0538       393.17649      4430.4858      4033.8616      6298.7396     -2264.8779      2321.9051      4982.3326     -8538.38       -51.113262     -3019.55        6929.0137     -4889.0861     -464.11548      69169.668      41.04925       41.04925       41.04925       1.0580672     -1233.4884      471.27066      1941.7472    
    110000   110000         301.55086     -581.96093      3453.8509      4037.4562      6309.1393     -2271.6832      2344.7597      4914.8687     -8571.3878     -54.280712     -2941.0293      6927.7268     -4892.3406     -466.86603      68762.153      40.968477      40.968477      40.968477      1.0643378      892.10978     -1296.5941     -1341.3984    
    111000   111000         300.3351      -176.31251      3820.7104      3998.0136      6283.7028     -2285.6892      2317.5369      4859.5393     -8465.1206     -53.436627     -2995.0048      6933.4142     -4882.6175     -465.56938      68953.662      41.006476      41.006476      41.006476      1.0613818      85.702396     -490.68408     -123.95586    
    112000   112000         306.44983     -689.42104      3562.5565      4255.6268      6411.6371     -2156.0102      2392.7467      5052.7145     -8557.4728     -55.924117     -3039.2988      6936.3239     -4885.0996     -465.71999      68931.363      41.002055      41.002055      41.002055      1.0617251     -694.92818     -778.34818     -594.98675    
    113000   113000         300.09571      845.69572      4957.7821      4100.2273      6278.6943     -2178.4669      2350.6831      4932.3504     -8518.1255     -51.338699     -2953.6931      6945.8762     -4884.2193     -461.71068      69529.936      41.120395      41.120395      41.120395      1.0525849      1053.9818      339.81515      1143.2902    
    114000   114000         300.60533      121.93569      4228.9526      4105.469       6289.3567     -2183.8877      2364.8798      4958.4557     -8547.1785     -51.797177     -2965.6322      6945.2338     -4887.8489     -462.31648      69438.826      41.102426      41.102426      41.102426      1.053966       78.615878      343.9972      -56.806012    
    115000   115000         303.29522      1664.5193      5766.57        4091.8194      6345.6352     -2253.8158      2289.4085      4907.79       -8494.715      -54.244128     -2970.1082      6949.7681     -4881.715      -465.32493      68989.886      41.013655      41.013655      41.013655      1.0608245      2127.037       2006.7919      859.72896    
    116000   116000         302.37045      384.94835      4351.7507      3964.904       6326.287      -2361.383       2274.6853      4897.2752     -8517.1        -50.58204      -3025.0361      6946.7838     -4887.409      -465.88766      68906.555      40.997135      40.997135      40.997135      1.0621074      495.85136     -966.59643      1625.5901    
    117000   117000         301.37391     -324.14149      3703.2193      4031.0576      6305.437      -2274.3794      2319.9318      4872.2929     -8578.8895     -53.276734     -2886.8487      6939.4543     -4887.0435     -462.90572      69350.436      41.084979      41.084979      41.084979      1.0553093     -401.12891      1179.5984     -1750.894     
    118000   118000         305.099       -569.97948      3639.5487      4215.1682      6383.3746     -2168.2064      2358.3239      4960.5011     -8540.9688     -53.105245     -2956.8144      6946.8696     -4883.0125     -463.59778      69246.91       41.064525      41.064525      41.064525      1.056887      -59.990298     -696.01606     -953.93207    
    119000   119000         297.59517      261.26743      4247.5216      3984.6169      6226.3772     -2241.7603      2360.6569      4910.0517     -8571.8609     -50.406239     -2946.0542      6942.0758     -4886.2234     -465.2694       68998.119      41.015287      41.015287      41.015287      1.0606979     -1699.8168      2050.5831      433.03596    
    120000   120000         295.02553     -579.50022      3333.2287      3918.824       6172.6143     -2253.7903      2332.1279      4927.1091     -8535.2696     -53.180412     -2973.3237      6936.5587     -4887.8122     -463.31208      69289.611      41.072964      41.072964      41.072964      1.0562357     -1160.3068     -2095.1731      1516.9793    
    121000   121000         296.92699      259.3001       4419.5532      4157.8029      6212.3972     -2054.5943      2412.7092      5113.7629     -8586.8036     -57.687539     -2990.6574      6937.5373     -4883.4551     -463.80259      69216.332      41.058479      41.058479      41.058479      1.0573539      402.50788     -354.85801      730.25043    
    122000   122000         298.50814      146.00349      4175.0315      4028.0239      6245.4786     -2217.4547      2314.5759      4987.0269     -8531.2015     -55.571681     -2993.0568      6948.4683     -4887.6958     -464.9875       69039.95       41.023574      41.023574      41.023574      1.0600552     -769.58285      407.03574      800.55759    
    123000   123000         300.97426      844.29273      4867.101       4017.9708      6297.0756     -2279.1048      2347.7908      4921.896      -8550.3131     -54.210656     -2985.3724      6929.7995     -4888.695      -465.51793      68961.284      41.007986      41.007986      41.007986      1.0612645     -420.82959      1331.0281      1622.6797    
    124000   124000         304.54737     -434.34342      3757.2271      4194.2436      6371.8332     -2177.5896      2376.3514      5080.5899     -8629.5905     -54.118649     -2991.4651      6927.8029     -4887.1596     -465.32142      68990.406      41.013758      41.013758      41.013758      1.0608165      920.05423     -497.78398     -1725.3005    
    125000   125000         302.32689     -193.83105      3889.4865      4085.1647      6325.3755     -2240.2108      2341.5851      4930.3172     -8527.5004     -54.263323     -2981.2322      6940.6107     -4889.7279     -463.76551      69221.865      41.059573      41.059573      41.059573      1.0572694      258.56592      299.49953     -1139.5586    
    126000   126000         299.44895     -406.82882      3730.2748      4140.7183      6265.1625     -2124.4442      2379.2487      5052.2104     -8573.3893     -54.307296     -2978.8795      6938.5646     -4887.8919     -464.06191      69177.652      41.05083       41.05083       41.05083       1.0579451     -1292.7886      398.84563     -326.54345    
    127000   127000         303.67425      969.69205      5221.8978      4241.1346      6353.5654     -2112.4309      2373.8542      4929.5487     -8530.9859     -54.795895     -2912.502       6962.0496     -4879.5995     -462.90009      69351.279      41.085145      41.085145      41.085145      1.0552965      1901.5472     -623.26007      1630.7891    
    128000   128000         299.47683     -67.417555      3981.0824      4049.0248      6265.7457     -2216.7209      2380.2321      4931.6232     -8511.7202     -55.985468     -2997.8741      6924.0293     -4887.0257     -464.56861      69102.202      41.0359        41.0359        41.0359        1.0591003      1129.7689     -219.64659     -1112.3749    
    129000   129000         302.31889     -730.31314      3410.7615      4147.6784      6325.2083     -2177.53        2343.3541      5017.7943     -8536.2093     -53.728863     -3015.4509      6950.8367     -4884.1261     -463.98962      69188.431      41.052962      41.052962      41.052962      1.0577803     -1314.4444      620.78974     -1497.2847    
    130000   130000         303.25392     -363.84348      3730.7819      4098.0709      6344.7713     -2246.7004      2397.4755      4893.4782     -8551.8869     -55.284391     -2986.3325      6934.8304     -4878.9807     -463.79309      69217.748      41.058759      41.058759      41.058759      1.0573323     -915.87242      8.5627943     -184.22082    
    131000   131000         294.02443      641.79053      4466.9131      3819.3378      6151.6689     -2332.3311      2264.6623      4976.6538     -8609.5677     -55.830713     -2970.4109      6944.387      -4882.2249     -464.00283      69186.461      41.052572      41.052572      41.052572      1.0578104      1970.2325      85.761016     -130.62196    
    132000   132000         302.75849     -1024.8385      3078.2868      4123.1935      6334.4056     -2211.2121      2359.4213      4919.4365     -8555.2522     -53.498406     -2949.459       6949.1975     -4881.0579     -459.19333      69911.106      41.1954        41.1954        41.1954        1.046846      -963.69581     -1246.1821     -864.6377     
    133000   133000         298.20574      80.15027       4157.313       4076.4193      6239.1516     -2162.7323      2366.1909      4977.8475     -8529.09       -54.522022     -3004.2244      6960.0309     -4878.9653     -463.88201      69204.481      41.056136      41.056136      41.056136      1.057535      -306.44502      120.45863      426.4372     
    134000   134000         297.08708      364.96072      4325.0376      3958.2053      6215.7468     -2257.5415      2339.1353      4884.724      -8507.8824     -50.416229     -3003.5643      6960.6848     -4880.2227     -465.79651      68920.039      40.999809      40.999809      40.999809      1.0618996     -1162.4528     -424.42855      2681.7635    
    135000   135000         299.95403      47.949308      4152.7715      4104.4647      6275.7298     -2171.2651      2374.5743      4924.6362     -8568.0379     -53.585836     -2933.1873      6962.7056     -4878.3703     -464.72006      69079.681      41.031441      41.031441      41.031441      1.0594455      267.86043     -1603.7123      1479.6998    
    136000   136000         298.09817      124.59736      4149.6993      4023.8302      6236.9011     -2213.0709      2360.6142      4947.7018     -8605.987      -55.090798     -2931.6364      6947.9684     -4876.641      -463.45495      69268.25       41.068743      41.068743      41.068743      1.0565614      625.60634      75.377864     -327.19211    
    137000   137000         305.60006      281.52189      4466.9144      4182.617       6393.8579     -2211.2409      2355.1777      4965.4304     -8536.4507     -56.06646      -3006.9802      6948.6152     -4880.9668     -463.61445      69244.42       41.064032      41.064032      41.064032      1.056925       68.648513      1339.3614     -563.44423    
    138000   138000         300.12833     -878.03687      3084.4203      3972.6918      6279.3766     -2306.6848      2335.6665      4830.7577     -8559.7181     -51.497414     -2944.3442      6961.4298     -4878.9792     -462.79071      69367.67       41.088382      41.088382      41.088382      1.0550471     -1990.0031      199.22993     -843.33745    
    139000   139000         302.61823     -641.2259       3578.5109      4223.3179      6331.4712     -2108.1533      2381.5461      5057.9879     -8531.7066     -57.363602     -3007.2826      6932.3879     -4883.7224     -465.58497      68951.354      41.006018      41.006018      41.006018      1.0614173      171.63277     -537.13861     -1558.1719    
    140000   140000         297.44482     -1056.0327      2955.9561      4018.3871      6223.2315     -2204.8444      2349.3847      5050.6428     -8570.9567     -53.865407     -3045.1705      6944.431      -4879.3102     -465.3656       68983.857      41.01246       41.01246       41.01246       1.0609172     -500.34805     -167.74962     -2500.0004    
    141000   141000         304.10253     -66.665682      4138.3246      4205.6717      6362.5261     -2156.8544      2375.7977      5025.386      -8560.4266     -59.070639     -2990.9843      6935.0226     -4882.5793     -463.4486       69269.2        41.06893       41.06893       41.06893       1.0565469      814.64373     -839.44838     -175.19239    
    142000   142000         302.97134     -98.104681      4050.3806      4148.8765      6338.8589     -2189.9824      2387.2005      4922.184      -8488.8398     -58.020755     -3014.4493      6945.2608     -4883.3179     -466.32554      68841.851      40.984299      40.984299      40.984299      1.0631056     -174.83207     -1937.9631      1818.4811    
    143000   143000         297.03179      1486.3548      5500.9731      4009.0913      6214.5899     -2205.4986      2348.2901      4983.5613     -8577.6535     -56.397434     -2977.5633      6951.775      -4877.5108     -466.45065      68823.387      40.980635      40.980635      40.980635      1.0633909      2290.7031      1797.2952      371.06613    
    144000   144000         301.53342     -1644.9068      2389.296       4042.776       6308.7745     -2265.9985      2420.3424      4865.9383     -8540.9032     -50.769645     -3018.1927      6939.5961     -4882.0098     -465.75765      68925.789      41.00095       41.00095       41.00095       1.061811      -1642.8696     -1810.551      -1481.2999    
    145000   145000         304.21495      1000.19        5144.7404      4136.9321      6364.8782     -2227.946       2302.4959      4957.7675     -8562.5076     -55.623018     -2939.2712      6953.7779     -4884.5855     -464.64602      69090.689      41.033621      41.033621      41.033621      1.0592767      1797.6615      60.082512      1142.826     
    146000   146000         301.16768      1982.6727      5993.6901      4000.6093      6301.1224     -2300.513       2366.9793      4855.2948     -8521.8626     -54.060621     -3012.5662      6948.8317     -4883.1294     -465.74026      68928.363      41.00146       41.00146       41.00146       1.0617713      1611.2071      1034.1772      3302.6339    
    147000   147000         299.36771      639.13259      4681.8892      4042.6276      6263.4627     -2220.8352      2358.9703      4950.6132     -8506.8506     -53.124732     -3030.1997      6944.9183     -4885.1619     -468.09063      68582.26       40.932719      40.932719      40.932719      1.0671296      522.64155      95.374375      1299.3818    
    148000   148000         298.47711      43.15938       4061.4096      4017.9645      6244.8294     -2226.8648      2352.227       5010.8762     -8559.9777     -57.689286     -3031.2892      6942.1527     -4883.1646     -465.10663      69022.267      41.020071      41.020071      41.020071      1.0603268     -346.00856     -131.82429      607.31099    
    149000   149000         294.94743     -726.7693       3166.2865      3900.5122      6170.9803     -2270.4681      2310.4226      4972.5869     -8623.2825     -54.541914     -2963.3143      6967.8244     -4880.1633     -463.43055      69271.897      41.069463      41.069463      41.069463      1.0565058     -2073.2781     -1298.9635      1191.9337    
    150000   150000         297.79558     -1427.356       2613.2475      4049.0232      6230.5702     -2181.547       2448.3161      4936.3284     -8536.3635     -52.93871      -3033.6169      6940.732      -4884.0043     -465.43961      68972.886      41.010286      41.010286      41.010286      1.0610859     -1344.6474     -1019.5722     -1917.8484    
    151000   151000         301.93031      895.6298       5020.9904      4121.4295      6317.0782     -2195.6487      2370.0815      4970.1339     -8587.7247     -52.720668     -2946.4164      6935.2367     -4884.239      -466.13918      68869.374      40.98976       40.98976       40.98976       1.0626808      1776.9307      1286.2183     -376.25953    
    152000   152000         299.30165     -574.36266      3568.7359      4147.3944      6262.0806     -2114.6862      2376.995       5061.7972     -8574.1708     -55.418115     -2989.4033      6952.4684     -4886.9545     -464.7094       69081.265      41.031755      41.031755      41.031755      1.0594212     -45.859363     -668.88325     -1008.3454    
    153000   153000         300.1271       841.31222      4892.3343      4046.0649      6279.351      -2233.2861      2309.7009      5083.4417     -8606.7951     -55.815533     -3033.2538      6953.0135     -4883.5777     -465.44266      68972.435      41.010197      41.010197      41.010197      1.0610929      2024.4561      352.78367      146.6969     
    154000   154000         305.1843       477.14548      4742.9671      4259.3339      6385.1592     -2125.8254      2393.3602      5026.0018     -8582.2006     -56.684121     -2970.6613      6948.8521     -4884.4934     -461.90457      69500.749      41.11464       41.11464       41.11464       1.0530269      1009.0046      29.183501      393.24834    
    155000   155000         303.49217     -329.50806      3764.1261      4097.2556      6349.7561     -2252.5004      2298.4609      4938.825      -8500.282      -55.245597     -2998.0365      6950.1702     -4886.3924     -463.09542      69322.028      41.079368      41.079368      41.079368      1.0557418     -899.541        667.96244     -756.94563    
    156000   156000         301.03016     -44.387604      3934.9795      3979.7429      6298.2451     -2318.5022      2322.4136      4877.2725     -8534.951      -49.296357     -3006.2122      6955.4225     -4883.1513     -464.25433      69148.98       41.045157      41.045157      41.045157      1.0583838     -241.96497      373.88189     -265.07973    
    157000   157000         302.40813      293.41444      4368.1972      4072.6282      6327.0753     -2254.4471      2275.3777      5000.009      -8527.4987     -55.960107     -3005.3424      6945.5515     -4886.5842     -464.7723       69071.917      41.029904      41.029904      41.029904      1.0595646      173.07968      431.35794      275.80571    
    158000   158000         303.27038     -1661.1771      2520.0337      4204.1395      6345.1156     -2140.9761      2441.4191      4877.2063     -8538.5743     -50.276135     -2944.3545      6959.5394     -4885.936      -461.81094      69514.84       41.117419      41.117419      41.117419      1.0528135     -1823.46       -2331.2796     -828.79179    
    159000   159000         299.81778      97.297188      4136.1401      4037.7683      6272.8792     -2235.1109      2339.2341      4904.4152     -8503.4108     -54.636909     -2976.2527      6945.0481     -4889.5078     -463.07074      69325.722      41.080098      41.080098      41.080098      1.0556855      666.32947     -610.63859      236.20069    
    160000   160000         300.33058     -1097.0109      3049.4971      4157.8244      6283.6083     -2125.7839      2362.1769      4901.6306     -8460.036      -51.553955     -2933.9852      6943.6236     -4887.6398     -463.40484      69275.741      41.070223      41.070223      41.070223      1.0564472     -2354.109      -1011.782       74.858295    
    161000   161000         301.54977     -1307.9631      2762.8523      4080.5767      6309.1166     -2228.5399      2329.2476      4995.775      -8553.1602     -51.199841     -3012.7008      6951.1326     -4887.6342     -464.71698      69080.139      41.031532      41.031532      41.031532      1.0594385     -1687.325      -601.11614     -1635.4481    
    162000   162000         304.56626      732.24997      4906.4436      4169.7673      6372.2283     -2202.4611      2350.8574      4957.2845     -8546.8473     -55.147766     -2975.0102      6951.3326     -4884.9302     -465.37206      68982.899      41.012271      41.012271      41.012271      1.0609319      217.90962      950.72812      1028.1122    
    163000   163000         300.70402      159.8061       4168.7011      4007.9369      6291.4214     -2283.4846      2252.4012      4998.01       -8545.6315     -53.287365     -2997.927       6950.4963     -4887.5463     -465.39471      68979.541      41.011605      41.011605      41.011605      1.0609836      495.99915     -521.51499      504.93413    
    164000   164000         297.8324      -1038.411       3084.5353      4131.4604      6231.3405     -2099.8801      2392.5998      5058.4299     -8503.8794     -57.22172      -3049.9326      6946.8321     -4886.7082     -464.37765      69130.617      41.041524      41.041524      41.041524      1.0586649     -1588.3037     -746.88733     -780.04191    
    165000   165000         304.2129       116.33798      4176.1929      4058.5647      6364.8352     -2306.2705      2300.0039      4913.2836     -8540.8527     -55.683147     -2976.7028      6944.9999     -4891.3193     -463.04971      69328.871      41.08072       41.08072       41.08072       1.0556376      1131.6232      12.574866     -795.18415    
    166000   166000         307.93989     -186.43872      4040.5176      4228.7494      6442.8125     -2214.0631      2318.3707      4911.4424     -8502.2263     -53.207975     -2943.1848      6943.2868     -4888.5439     -463.72526      69227.873      41.060761      41.060761      41.060761      1.0571776      956.21848     -161.19867     -1354.336     
    167000   167000         302.08566     -1285.0625      2749.8293      4053.3028      6320.3285     -2267.0257      2300.0046      4877.5755     -8469.9785     -49.719663     -2971.0386      6934.9339     -4888.803      -461.57222      69550.793      41.124506      41.124506      41.124506      1.0522692     -1086.9316     -796.44468     -1971.8111    
    168000   168000         298.1604       951.65157      4925.4447      3963.6374      6238.2031     -2274.5657      2300.3306      4992.966      -8607.1635     -54.315417     -2956.5646      6931.4046     -4881.2235     -463.2416       69300.152      41.075046      41.075046      41.075046      1.056075       470.7859       2103.0562      281.11266    
    169000   169000         301.17619     -319.92424      3811.2968      4134.696       6301.3004     -2166.6045      2364.672       4939.3471     -8533.4653     -55.030758     -2958.806       6956.9166     -4880.2382     -463.15443      69313.195      41.077623      41.077623      41.077623      1.0558763      128.88329      191.2592      -1279.9152    
    170000   170000         302.94836      358.94141      4564.9611      4205.7903      6338.3783     -2132.588       2368.1969      5046.448      -8512.2398     -51.215045     -3050.154       6949.2811     -4882.9051     -467.88613      68612.236      40.938682      40.938682      40.938682      1.0666634     -349.92436      195.84442      1230.9042    
    171000   171000         300.58056      1089.128       5135.5818      4036.6238      6288.8385     -2252.2147      2315.1603      4932.8502     -8546.9157     -54.042497     -2953.9889      6938.5058     -4883.7839     -463.99729      69187.287      41.052735      41.052735      41.052735      1.0577978      1007.6699      291.70946      1968.0046    
    172000   172000         298.37435     -771.8739       3245.4316      4025.0762      6242.6793     -2217.6031      2343.7105      4946.9113     -8562.4936     -52.941607     -2979.9386      6965.4001     -4878.2512     -463.5188       69258.709      41.066857      41.066857      41.066857      1.056707      -1117.6084     -369.35487     -828.65847    
    173000   173000         297.77679      373.58187      4415.0944      4039.2232      6230.1771     -2190.9539      2368.0828      4949.1578     -8537.9019     -53.620954     -2987.4955      6952.6245     -4881.8006     -465.33366      68988.591      41.013399      41.013399      41.013399      1.0608444      1332.8569      277.3575      -489.46874    
    174000   174000         298.13232     -786.67391      3336.3593      4126.5245      6237.6156     -2111.0911      2382.7449      4979.1603     -8525.6299     -53.136817     -2963.4521      6950.1082     -4880.8858     -466.11654      68872.72       40.990424      40.990424      40.990424      1.0626291      374.7413      -2294.1573     -440.60575    
    175000   175000         298.40113      2241.8047      6284.6252      4021.8939      6243.2397     -2221.3458      2353.5467      4949.7535     -8596.2459     -57.355614     -2939.4304      6953.7763     -4885.3904     -463.85519      69208.483      41.056927      41.056927      41.056927      1.0574738      2763.7469      2908.9123      1052.7549    
    176000   176000         305.87583      273.59893      4347.1358      4071.282       6399.6275     -2328.3456      2230.4695      4898.6378     -8543.7651     -57.457199     -2933.7757      6961.1345     -4883.5894     -464.35803      69133.539      41.042102      41.042102      41.042102      1.0586202      427.19305      1112.4016     -718.79782    
    177000   177000         303.59003      299.55597      4460.8415      4160.0299      6351.8034     -2191.7736      2365.2902      4902.4246     -8486.6855     -56.491233     -2998.7541      6960.0099     -4877.5675     -466.23085      68855.833      40.987074      40.987074      40.987074      1.0628898      150.53293      1861.1049     -1112.9699    
    178000   178000         298.38083     -779.26475      3329.0592      4119.3255      6242.8149     -2123.4894      2358.9761      4978.3054     -8508.1892     -54.410448     -2977.6753      6960.0525     -4880.5484     -461.6674       69536.453      41.12168       41.12168       41.12168       1.0524862     -625.09287     -1391.2052     -321.49621    
    179000   179000         296.85459      344.83631      4333.3961      3985.228       6210.8824     -2225.6545      2348.2336      4875.2504     -8463.3405     -53.233265     -3005.2461      6958.9808     -4886.2995     -463.70476      69230.934      41.061366      41.061366      41.061366      1.0571309     -147.72641      164.37167      1017.8637    
    180000   180000         300.54425     -502.01114      3637.9205      4146.0436      6288.0788     -2142.0352      2323.6121      4956.1544     -8508.7531     -53.368919     -2954.4716      6970.5334     -4875.7414     -462.55364      69403.224      41.0954        41.0954        41.0954        1.0545066     -100.77813     -442.03557     -963.21974    
    181000   181000         296.15232     -865.47871      3087.4904      3962.2103      6196.1893     -2233.9791      2331.0133      4876.515      -8494.8863     -53.845787     -2982.91        6970.2158     -4880.0811     -463.23893      69300.553      41.075126      41.075126      41.075126      1.0560689     -819.58582     -1046.2037     -730.64664    
    182000   182000         301.36671      575.18426      4701.9348      4120.9929      6305.2864     -2184.2934      2326.4031      4898.9864     -8529.9905     -54.50307      -2914.4718      6971.4432     -4882.1607     -463.54508      69254.782      41.066081      41.066081      41.066081      1.0567669      33.781349      960.95065      730.82079    
[...]
   1955000   1955000        298.38909      1146.674       5104.9513      3961.138       6242.9878     -2281.8497      2320.8056      4983.8213     -8575.7795     -53.984462     -3049.4328      6972.2997     -4879.5795     -469.35607      68397.355      40.8959        40.8959        40.8959        1.0700145      680.16751      236.4322       2523.4221    
   1956000   1956000        297.87726      200.74777      4086.3432      3884.2632      6232.2791     -2348.0159      2304.1976      5022.7618     -8652.9665     -51.117262     -3045.4503      6958.6728     -4884.114      -465.09858      69023.461      41.020307      41.020307      41.020307      1.0603085      582.8724      -348.78673      368.15765    
   1957000   1957000        301.59038     -218.49077      3886.2953      4105.4252      6309.9661     -2204.541       2380.5726      4908.1467     -8527.1344     -53.150998     -2997.5787      6966.645      -4882.0411     -466.81959      68768.994      40.969836      40.969836      40.969836      1.0642319      531.04574      581.02436     -1767.5424    
   1958000   1958000        296.89925     -846.7416       3045.1849      3899.0258      6211.8168     -2312.7911      2286.6576      4936.5938     -8547.8701     -53.985855     -3020.1738      6965.3926     -4879.4052     -464.29242      69143.308      41.044035      41.044035      41.044035      1.0584706     -1884.5282     -245.23365     -410.46296    
   1959000   1959000        300.50234      254.51701      4240.6254      3985.5377      6287.2019     -2301.6642      2374.5259      4843.4996     -8493.8667     -49.69762      -3055.872       6959.1134     -4879.3668     -467.13777      68722.153      40.960532      40.960532      40.960532      1.0649573      1971.1587     -1163.6707     -43.936954    
   1960000   1960000        296.57995     -873.05463      3071.2074      3944.1038      6205.1363     -2261.0325      2430.711       4935.4741     -8616.6718     -53.132072     -3043.3977      6965.6672     -4879.6833     -468.27002      68555.988      40.927492      40.927492      40.927492      1.0675385     -594.66464      341.67959     -2366.1788    
   1961000   1961000        299.93947     -518.3467       3482.3381      4003.8245      6275.4252     -2271.6007      2359.5882      4860.6337     -8500.5069     -54.010098     -3007.2396      6953.6148     -4883.6809     -465.36635      68983.744      41.012438      41.012438      41.012438      1.0609189     -2732.6931      606.49963      571.15333    
   1962000   1962000        301.70425      1705.2602      5838.6018      4132.837       6312.3486     -2179.5116      2341.6322      5008.25       -8530.312      -55.319686     -3028.9923      6963.0032     -4877.7729     -468.04668      68588.701      40.934001      40.934001      40.934001      1.0670294      2303.1047      1777.7184      1034.9576    
   1963000   1963000        300.13086     -525.57073      3588.6962      4115.6126      6279.4297     -2163.8171      2318.9256      5021.699      -8521.7597     -55.076241     -3024.4637      6973.2937     -4876.4357     -466.98947      68743.978      40.964867      40.964867      40.964867      1.0646192      206.35742     -9.5454298     -1773.5242    
   1964000   1964000        302.0433       522.39395      4456.8989      3935.7503      6319.4423     -2383.692       2268.0332      4992.2678     -8594.8392     -54.118348     -3063.9488      6950.2744     -4881.3611     -469.30389      68404.96       40.897416      40.897416      40.897416      1.0698955      234.36086     -130.57147      1463.3925    
   1965000   1965000        307.71015      275.35382      4391.6241      4117.3414      6438.0058     -2320.6644      2320.2116      4908.516      -8557.8613     -55.769711     -3035.2992      6976.2247     -4876.6865     -470.01349      68301.686      40.876824      40.876824      40.876824      1.0715132     -240.96128     -80.634961      1147.6577    
   1966000   1966000        300.04792      1447.6159      5511.7676      4055.1286      6277.6944     -2222.5658      2368.9477      4902.9599     -8559.3485     -48.956003     -2986.9788      6974.8443     -4874.0344     -465.285        68995.806      41.014828      41.014828      41.014828      1.0607334      26.604932      2643.7185      1672.5244    
   1967000   1967000        296.13443      640.6373       4464.0846      3824.1692      6195.815      -2371.6459      2293.3892      4890.3302     -8570.9023     -55.411097     -3018.6112      6964.7463     -4875.1869     -468.71329      68491.153      40.914586      40.914586      40.914586      1.0685491      2193.1411     -295.22792      23.998698    
   1968000   1968000        303.2804       645.7205       4708.9576      4063.8666      6345.3252     -2281.4586      2307.1777      4952.3115     -8544.5121     -52.906988     -3038.2379      6970.6671     -4875.9579     -468.642        68501.572      40.91666       40.91666       40.91666       1.0683866      1662.5476     -616.42656      891.04041    
   1969000   1969000        295.82124      321.28587      4200.3827      3879.8174      6189.2625     -2309.4452      2374.7268      4885.3679     -8560.7978     -54.216639     -3049.0051      6970.9486     -4876.469      -469.23745      68414.644      40.899345      40.899345      40.899345      1.0697441      281.77842      542.01045      140.06873    
   1970000   1970000        297.24955     -185.77961      3752.6589      3939.088       6219.146      -2280.058       2308.4925      4893.7341     -8535.5361     -52.672064     -2990.6387      6975.6754     -4879.1131     -466.55394      68808.15       40.97761       40.97761       40.97761       1.0636263      1227.6435     -1418.3938     -366.58859    
   1971000   1971000        298.33825      217.99129      4327.9877      4109.1821      6241.924      -2132.7419      2356.3955      5086.4295     -8597.5344     -54.857419     -3004.94        6964.3056     -4882.5407     -466.44272      68824.557      40.980867      40.980867      40.980867      1.0633728      604.81994      676.45866     -627.30472    
   1972000   1972000        294.93865     -1211.1994      2802.6683      4022.9227      6170.7967     -2147.8739      2431.2067      4976.5689     -8558.4079     -56.395765     -3035.5481      6971.966      -4877.2638     -464.71096      69081.034      41.031709      41.031709      41.031709      1.0594248     -319.83984     -1924.307      -1389.4514    
   1973000   1973000        299.44441      170.81746      4164.5664      3993.3595      6265.0676     -2271.7081      2362.1017      4930.8945     -8572.0672     -52.024068     -3023.6577      6962.4341     -4879.3895     -467.12022      68724.736      40.961045      40.961045      40.961045      1.0649173      619.8675      -662.02903      554.61392    
   1974000   1974000        304.37964     -368.96199      3880.9139      4252.9866      6368.3239     -2115.3373      2394.0038      5005.4073     -8547.7538     -53.348849     -2991.6214      6958.6804     -4880.7047     -464.27086      69146.518      41.04467       41.04467       41.04467       1.0584215      755.35887     -889.18915     -973.05569    
   1975000   1975000        299.39273      895.96303      4909.2354      4009.1167      6263.9862     -2254.8695      2338.2122      4973.6891     -8599.4426     -52.8029       -2999.4019      6968.5776     -4883.701      -466.02364      68886.449      40.993148      40.993148      40.993148      1.0624174      742.86712      1942.4793      2.5426856    
   1976000   1976000        305.04844     -527.27248      3652.3423      4179.2546      6382.3168     -2203.0622      2394.8933      4989.8103     -8579.9185     -50.913986     -3030.5498      6958.0186     -4884.402      -468.50519      68521.576      40.920643      40.920643      40.920643      1.0680747     -341.48599     -701.47231     -538.85912    
   1977000   1977000        304.60991      1099.6137      5154.2704      4055.0682      6373.1416     -2318.0734      2345.5633      4929.3592     -8589.8327     -51.644308     -3035.1529      6964.8541     -4881.2201     -468.36044      68542.753      40.924858      40.924858      40.924858      1.0677447     -470.07157      1215.6304      2553.2823    
   1978000   1978000        302.09792      149.02514      4261.1626      4111.7028      6320.5851     -2208.8823      2342.0404      5014.3522     -8596.1122     -53.075284     -2995.3514      6962.6004     -4883.3365     -466.82378      68768.378      40.969713      40.969713      40.969713      1.0642415     -527.40079      669.34077      305.13543    
   1979000   1979000        301.77971     -434.09603      3575.0461      4012.3916      6313.9273     -2301.5357      2319.26        4961.3014     -8594.56       -54.515739     -3026.2788      6970.4742     -4877.2167     -464.7066       69081.682      41.031838      41.031838      41.031838      1.0594149     -350.36934     -1273.6447      321.72595    
   1980000   1980000        293.46605     -1364.792       2393.0982      3772.297       6139.9864     -2367.6894      2358.9639      4837.1247     -8554.4702     -51.922404     -3032.7052      6957.7119     -4882.3922     -463.29458      69292.228      41.073481      41.073481      41.073481      1.0561958     -1158.6755     -1557.117      -1378.5834    
   1981000   1981000        300.92482      852.17953      4902.5874      4043.8248      6296.041      -2252.2162      2367.5362      4977.8053     -8628.6027     -53.713762     -2995.0493      6959.4926     -4879.6845     -464.59616      69098.104      41.035089      41.035089      41.035089      1.0591631     -1940.9482      2859.2827      1638.2041    
   1982000   1982000        298.231        271.35542      4301.464       4029.0396      6239.6802     -2210.6407      2345.1469      4996.9993     -8552.8609     -52.561899     -3039.1034      6969.58       -4877.8407     -466.34788      68838.553      40.983645      40.983645      40.983645      1.0631566      717.38306     -1705.5598      1802.243     
   1983000   1983000        295.00924      84.699354      4018.6052      3933.8026      6172.2735     -2238.4709      2363.6561      4918.0814     -8568.9894     -51.181602     -2973.1568      6958.5419     -4885.4225     -467.61538      68651.962      40.946582      40.946582      40.946582      1.0660461      359.74566      586.83542     -692.48301    
   1984000   1984000        298.58856      30.907946      4082.1098      4050.9984      6247.1612     -2196.1628      2319.0347      4941.9089     -8528.551      -56.403275     -2931.1558      6943.9886     -4884.985      -465.12405      69019.682      41.019559      41.019559      41.019559      1.0603665     -428.14107      1303.9921     -783.12724    
   1985000   1985000        302.98125      2364.5888      6331.7102      3957.2309      6339.0663     -2381.8354      2268.0575      4908.3191     -8586.6183     -56.575449     -2986.3338      6956.6068     -4885.2913     -466.23502      68855.218      40.986952      40.986952      40.986952      1.0628993      2734.0541      2649.782       1709.9305    
   1986000   1986000        298.91733      635.82307      4535.6924      3896.4108      6254.0398     -2357.629       2287.6392      4994.5955     -8622.5249     -53.31135      -3033.0563      6954.1061     -4885.0772     -465.65221      68941.397      41.004044      41.004044      41.004044      1.0615706      92.57535       1886.0104     -71.116571    
   1987000   1987000        302.40582     -607.18004      3394.7118      4005.4036      6327.0271     -2321.6235      2311.7183      4962.2687     -8574.9718     -53.540455     -3023.2207      6937.6646     -4881.5421     -465.4929       68964.991      41.008721      41.008721      41.008721      1.0612074     -1110.6772     -597.14421     -113.71869    
   1988000   1988000        295.62377      556.48019      4402.7393      3842.0788      6185.131      -2343.0522      2279.1099      4898.5609     -8531.8741     -54.539054     -2997.5278      6949.4416     -4886.2238     -464.69432      69083.508      41.032199      41.032199      41.032199      1.0593868      109.88947      1933.972      -374.42085    
   1989000   1989000        303.14019      747.06004      4731.7703      3985.4208      6342.3918     -2356.971       2306.0675      4959.1674     -8593.2235     -55.13956      -3039.1392      6951.3257     -4886.0292     -468.6309       68503.194      40.916983      40.916983      40.916983      1.0683613      1490.8035      994.97637     -244.59976    
   1990000   1990000        298.02751      36.924239      3930.2142      3893.1675      6235.4226     -2342.2551      2314.6466      4918.5731     -8546.044      -52.356251     -3044.6021      6953.3562     -4885.8286     -466.63864      68795.66       40.975131      40.975131      40.975131      1.0638194     -506.86738      671.60085     -53.96076     
   1991000   1991000        307.6644       75.869591      4239.3953      4162.7525      6437.0486     -2274.2961      2354.3253      4931.7276     -8530.6788     -52.411934     -3054.6245      6962.3657     -4884.9995     -463.46228      69267.156      41.068526      41.068526      41.068526      1.0565781      429.88435     -731.83546      529.55989    
   1992000   1992000        301.43997     -856.84472      3210.5599      4070.7647      6306.8193     -2236.0546      2352.0515      5020.7436     -8637.083      -52.004998     -2986.3254      6952.875      -4886.3113     -466.35635      68837.303      40.983397      40.983397      40.983397      1.0631759     -161.11564     -644.85663     -1764.5619    
   1993000   1993000        303.54479     -538.43623      3483.3696      4022.4358      6350.8569     -2328.4211      2295.5442      4959.26       -8576.7721     -54.285712     -3018.5263      6951.2419     -4884.8831     -467.63803      68648.637      40.945921      40.945921      40.945921      1.0660978      1054.5923     -2159.8608     -510.04017    
   1994000   1994000        296.17598      490.72403      4311.841       3817.9484      6196.6843     -2378.7359      2271.5697      4998.8741     -8636.7785     -54.786622     -3016.9355      6947.5652     -4888.2443     -465.18149      69011.159      41.01787       41.01787       41.01787       1.0604975      480.90203      1299.5646     -308.29452    
   1995000   1995000        297.48319     -622.035        3470.2696      4095.0954      6224.0343     -2128.9389      2346.7681      5022.8928     -8536.3216     -56.079331     -2986.4515      6966.0204     -4885.7679     -466.094        68876.049      40.991085      40.991085      40.991085      1.0625778     -25.03019      -793.45925     -1047.6156    
   1996000   1996000        299.98265      243.23591      4192.1084      3949.1046      6276.3287     -2327.2241      2298.3662      4903.2892     -8540.7246     -52.218729     -2989.8141      6939.7697     -4885.8918     -468.63243      68502.971      40.916939      40.916939      40.916939      1.0683648      161.27443      594.53557     -26.102255    
   1997000   1997000        298.16784     -122.17595      3853.6307      3977.3982      6238.3587     -2260.9605      2342.7156      4900.2504     -8523.8129     -56.990744     -2978.8612      6943.9914     -4888.2531     -462.1647       69461.63       41.106925      41.106925      41.106925      1.05362       -674.23851      335.39707     -27.686425    
   1998000   1998000        301.42545     -32.538307      4030.9433      4063.7204      6306.5154     -2242.7949      2394.8577      4950.1562     -8614.5074     -53.0305       -2993.5408      6956.3217     -4883.0519     -464.77325      69071.776      41.029876      41.029876      41.029876      1.0595668      414.17177     -429.10537     -82.681323    
   1999000   1999000        298.18389     -1334.035       2702.1835      4047.9025      6238.6945     -2190.792       2347.7791      5032.7957     -8528.8709     -53.017185     -3048.8969      6943.0327     -4883.6145     -464.12024      69168.958      41.04911       41.04911       41.04911       1.0580781     -1539.987       176.01227     -2638.1304    
   2000000   2000000        300.11734     -576.69248      3326.8199      3910.4151      6279.1467     -2368.7316      2343.0688      4894.407      -8562.9082     -50.294211     -3062.7026      6954.3038     -4884.6062     -462.6475       69389.142      41.092621      41.092621      41.092621      1.0547206     -482.77599     -1118.236      -129.06542    
Loop time of 3786.04 on 1 procs for 2000000 steps with 7020 atoms

Performance: 45.641 ns/day, 0.526 hours/ns, 528.257 timesteps/s, 3.708 Matom-step/s
100.0% CPU use with 1 MPI tasks x 1 OpenMP threads

MPI task timing breakdown:
Section |  min time  |  avg time  |  max time  |%varavg| %total
---------------------------------------------------------------
Pair    | 504.48     | 504.48     | 504.48     |   0.0 | 13.32
Bond    | 432.24     | 432.24     | 432.24     |   0.0 | 11.42
Kspace  | 1812       | 1812       | 1812       |   0.0 | 47.86
Neigh   | 287.65     | 287.65     | 287.65     |   0.0 |  7.60
Comm    | 49.801     | 49.801     | 49.801     |   0.0 |  1.32
Output  | 17.846     | 17.846     | 17.846     |   0.0 |  0.47
Modify  | 603.23     | 603.23     | 603.23     |   0.0 | 15.93
Other   |            | 78.77      |            |       |  2.08

Nlocal:           7020 ave        7020 max        7020 min
Histogram: 1 0 0 0 0 0 0 0 0 0
Nghost:          19563 ave       19563 max       19563 min
Histogram: 1 0 0 0 0 0 0 0 0 0
Neighs:              0 ave           0 max           0 min
Histogram: 1 0 0 0 0 0 0 0 0 0
FullNghs:  4.51798e+06 ave 4.51798e+06 max 4.51798e+06 min
Histogram: 1 0 0 0 0 0 0 0 0 0

Total # of neighbors = 4517976
Ave neighs/atom = 643.58632
Ave special neighs/atom = 5.7008547
Neighbor list builds = 59111
Dangerous builds = 0

# --- Cleanup ---
unfix npt_fix

undump dump_npt

# --- Write Output ---
write_dump all custom npt_production_last.dump id type mol x y z xu yu zu vx vy vz modify sort id
write_data /home/alexzhao/PolyJarvis/data/PEG3/lammps/equil/npt_production/npt_production_out.data
System init for write_data ...
PPPM Kokkos initialization ...
  using 12-bit tables for long-range coulomb
  G vector (1/distance) = 0.30295659
  grid = 30 30 30
  stencil order = 5
  estimated absolute RMS force accuracy = 0.00030654209
  estimated relative force accuracy = 9.2314239e-07
  using double precision cuFFT
  3d grid and FFT values/proc = 50653 27000
Generated 10 of 10 mixed pair_coeff terms from sixthpower/sixthpower mixing rule

print "STAGE COMPLETE: NPT T=300.0->300.0K P=1.0->1.0atm steps=2000000"
STAGE COMPLETE: NPT T=300.0->300.0K P=1.0->1.0atm steps=2000000
quit
08

Nlocal:           7020 ave        7020 max        7020 min
Histogram: 1 0 0 0 0 0 0 0 0 0
Nghost:          19563 ave       19563 max       19563 min
Histogram: 1 0 0 0 0 0 0 0 0 0
Neighs:              0 ave           0 max           0 min
Histogram: 1 0 0 0 0 0 0 0 0 0
FullNghs:  4.51798e+06 ave 4.51798e+06 max 4.51798e+06 min
Histogram: 1 0 0 0 0 0 0 0 0 0

Total # of neighbors = 4517976
Ave neighs/atom = 643.58632
Ave special neighs/atom = 5.7008547
Neighbor list builds = 59111
Dangerous builds = 0
System init for write_data ...
PPPM Kokkos initialization ...
  using 12-bit tables for long-range coulomb
  G vector (1/distance) = 0.30295659
  grid = 30 30 30
  stencil order = 5
  estimated absolute RMS force accuracy = 0.00030654209
  estimated relative force accuracy = 9.2314239e-07
  using double precision cuFFT
  3d grid and FFT values/proc = 50653 27000
Generated 10 of 10 mixed pair_coeff terms from sixthpower/sixthpower mixing rule
STAGE COMPLETE: NPT T=300.0->300.0K P=1.0->1.0atm steps=2000000
