units real
atom_style full
boundary p p p

# --- Force Field Styles ---
pair_style lj/class2/coul/long 9.5 9.5
kspace_style pppm 1e-6
dielectric 1.000000
bond_style class2
angle_style class2
dihedral_style class2
improper_style class2
special_bonds lj/coul 0 0 1
pair_modify mix sixthpower tail yes
neighbor 2.0 bin
neigh_modify delay 0 every 1 check yes
neigh_modify one 4000
# KOKKOS: package loaded via -pk kokkos on the command line

read_data /home/alexzhao/PolyJarvis/data/PVC2/lammps/equil/npt_prod300/npt_prod300_out.data
Reading data file ...
  orthogonal box = (6.2624668 6.2624668 6.2624668) to (42.123028 42.123028 42.123028)
  1 by 1 by 1 MPI processor grid
  reading atoms ...
  3620 atoms
  reading velocities ...
  3620 velocities
  scanning bonds ...
  4 = max bonds/atom
  scanning angles ...
  12 = max angles/atom
  scanning dihedrals ...
  24 = max dihedrals/atom
  scanning impropers ...
  10 = max impropers/atom
  orthogonal box = (6.2624668 6.2624668 6.2624668) to (42.123028 42.123028 42.123028)
  1 by 1 by 1 MPI processor grid
  reading bonds ...
  3610 bonds
  reading angles ...
  7200 angles
  reading dihedrals ...
  10710 dihedrals
  reading impropers ...
  4800 impropers
Finding 1-2 1-3 1-4 neighbors ...
  special bond factors lj:    0        0        1       
  special bond factors coul:  0        0        1       
     4 = max # of 1-2 neighbors
     6 = max # of 1-3 neighbors
    10 = max # of special neighbors
  special bonds CPU = 0.002 seconds
  read_data CPU = 0.177 seconds


# --- Thermo Output ---
thermo_style custom step time temp press enthalpy etotal ke pe ebond eangle edihed eimp evdwl ecoul elong etail vol lx ly lz density pxx pyy pzz
thermo_modify flush yes
thermo 100

# --- Trajectory ---
dump dump_npt all custom 1000 /home/alexzhao/PolyJarvis/data/PVC2/lammps/mechanical/bm_series/bm_P500/bm_P500.dump id type mol x y z ix iy iz vx vy vz

# --- Restart Checkpointing ---
restart 10000 npt_1.rst npt_2.rst

# --- Initial Velocities (optional) ---
# Velocities read from data file

# --- SHAKE Constraints ---
fix shake_fix all shake 1e-4 1000 0 m 1.008
Finding SHAKE clusters ...
     590 = # of size 2 clusters
     600 = # of size 3 clusters
      10 = # of size 4 clusters
       0 = # of frozen angles
  find clusters CPU = 0.001 seconds

# --- NPT Thermostat + Barostat (Nose-Hoover) ---
# T_damp = 100.0 fs  (heat bath coupling)
# P_damp = 1000.0 fs  (pressure bath coupling, ~10x T_damp typical)
# Ramp: T=300.0->300.0K  P=500.0->500.0atm
timestep 1.0
fix npt_fix all npt temp 300.0 300.0 100.0 iso 500.0 500.0 1000.0

run 500000
PPPM Kokkos initialization ...
  using 12-bit tables for long-range coulomb
  G vector (1/distance) = 0.29543835
  grid = 24 24 24
  stencil order = 5
  estimated absolute RMS force accuracy = 0.00037623808
  estimated relative force accuracy = 1.1330298e-06
  using double precision cuFFT
  3d grid and FFT values/proc = 29791 13824
Generated 6 of 6 mixed pair_coeff terms from sixthpower/sixthpower mixing rule
Neighbor list info ...
  update: every = 1 steps, delay = 0 steps, check = yes
  max neighbors/atom: 4000, page size: 100000
  master list distance cutoff = 11.5
  ghost atom cutoff = 11.5
  binsize = 11.5, bins = 4 4 4
  1 neighbor lists, perpetual/occasional/extra = 1 0 0
  (1) pair lj/class2/coul/long/kk, perpetual
      attributes: full, newton off, kokkos_device
      pair build: full/bin/kk/device
      stencil: full/bin/3d
      bin: kk/device
Per MPI rank memory allocation (min/avg/max) = 24.92 | 24.92 | 24.92 Mbytes
   Step          Time           Temp          Press         Enthalpy        TotEng         KinEng         PotEng         E_bond        E_angle        E_dihed        E_impro         E_vdwl         E_coul         E_long         E_tail         Volume           Lx             Ly             Lz          Density          Pxx            Pyy            Pzz      
         0   0              362.13356      1962.853       251.33401     -1068.7906      3251.6673     -4320.4579      632.47098      1983.4101     -2098.1017      15.616065     -988.87862     -1613.9477     -2251.0269     -274.41597      46115.96       35.860561      35.860561      35.860561      1.3510051      1924.2025      1395.6271      2568.7294    
       100   100            300.96829     -899.13195     -2155.0883     -1551.5425      2702.4525     -4253.995       676.80818      1973.7443     -2054.0843      15.579103     -999.28732     -1615.0564     -2251.6986     -274.94747      46026.813      35.837439      35.837439      35.837439      1.3536218     -400.48104     -1558.0041     -738.91076    
       200   200            300.77161      875.64016     -967.64138     -1552.1692      2700.6864     -4252.8557      658.66737      1985.7956     -2054.2083      15.207805     -986.48737     -1617.1617     -2254.6691     -276.4757       45772.398      35.771286      35.771286      35.771286      1.3611456      3295.1165      755.12865     -1423.3247    
       300   300            300.93088      1568.6472     -550.48163     -1592.1797      2702.1166     -4294.2962      630.06632      1991.8447     -2047.7755      15.246298     -1008.8919     -1619.8979     -2254.8881     -277.9201       45534.51       35.709208      35.709208      35.709208      1.3682567      2888.9927      794.49018      1022.4587    
       400   400            295.80147      1234.8283     -838.9945      -1655.7215      2656.0587     -4311.7802      653.8916       1957.7164     -2071.7508      15.241932     -999.86446     -1613.7027     -2253.3122     -279.03981      45351.794      35.661381      35.661381      35.661381      1.3737692      638.5046       935.15959      2130.8207    
       500   500            293.97297      1333.661      -785.41759     -1667.209       2639.6402     -4306.8492      632.48041      1980.677      -2068.9265      15.115398     -999.21015     -1614.2856     -2252.6997     -279.13616      45336.14       35.657277      35.657277      35.657277      1.3742436      1998.4028      1368.4607      634.11946    
       600   600            305.57337     -850.00348     -2153.923      -1590.4017      2743.8024     -4334.2041      658.18954      1947.3689     -2049.1294      14.602466     -1042.3277     -1608.4853     -2254.4226     -278.38568      45458.358      35.68929       35.68929       35.68929       1.3705488     -810.73991      37.742495     -1777.013     
       700   700            305.86659      251.87883     -1367.0217     -1534.0342      2746.4353     -4280.4695      677.63557      1967.0672     -2048.6504      15.629421     -1028.4969     -1609.3535     -2254.3009     -278.34223      45465.454      35.691147      35.691147      35.691147      1.3703349     -244.14867     -67.333259      1067.1184    
       800   800            298.71861      994.21758     -892.10313     -1549.8138      2682.2522     -4232.066       663.78668      2013.0209     -2052.5114      14.477804     -999.30681     -1615.9752     -2255.558      -278.98642      45360.473      35.663656      35.663656      35.663656      1.3735064      2842.6985     -67.81489       207.76917    
       900   900            303.10331      1172.0233     -800.91397     -1575.6505      2721.6233     -4297.2738      666.17589      1936.5259     -2051.4519      14.617364     -993.01281     -1613.6035     -2256.5248     -279.20215      45325.424      35.654468      35.654468      35.654468      1.3745684      2168.7171      953.83882      393.51397    
      1000   1000           299.74819      609.54793     -1192.6265     -1596.522       2691.497      -4288.019       682.3654       1948.7342     -2048.9327      14.985562     -1012.9939     -1616.9137     -2255.264      -278.53213      45434.456      35.683034      35.683034      35.683034      1.3712698     -1161.7136     -412.84962      3403.2071    
      1100   1100           293.8611       687.41566     -1224.5794     -1681.1291      2638.6357     -4319.7648      673.90801      1942.5686     -2059.5604      15.261722     -1026.6274     -1611.8777     -2253.4376     -277.88675      45539.975      35.710637      35.710637      35.710637      1.3680925      408.97313     -250.6675       1903.9413    
      1200   1200           291.69648      1188.0992     -948.28911     -1737.435       2619.1991     -4356.6342      636.59333      1926.4612     -2063.0625      15.819647     -1006.2933     -1611.8707     -2254.2819     -277.86375      45543.745      35.711622      35.711622      35.711622      1.3679792      704.93702      841.71315      2017.6473    
      1300   1300           291.10652      1473.9708     -671.50721     -1648.5858      2613.9018     -4262.4875      664.01561      2030.2833     -2084.5504      15.564095     -1017.6748     -1615.0414     -2255.084      -278.41711      45453.225      35.687947      35.687947      35.687947      1.3707036      1580.1164      707.80634      2133.9898    
      1400   1400           296.5564       736.47966     -1102.6155     -1590.9431      2662.8373     -4253.7804      667.07434      2008.229      -2070.0408      15.895889     -1002.9488     -1617.6947     -2254.2954     -278.34668      45464.727      35.690957      35.690957      35.690957      1.3703568      824.81001     -190.67563      1575.3046    
      1500   1500           303.24428      594.12645     -1177.5251     -1571.4132      2722.8891     -4294.3023      677.00012      2001.1595     -2080.6155      15.918889     -1034.7161     -1618.3079     -2254.7413     -278.3829       45458.812      35.689409      35.689409      35.689409      1.3705351      1354.9362      540.90221     -113.45901    
      1600   1600           302.73354      973.36983     -952.21545     -1596.8107      2718.303      -4315.1137      657.38597      1955.9491     -2062.9051      15.133759     -1007.2715     -1618.607      -2254.7991     -278.6938       45408.099      35.676133      35.676133      35.676133      1.3720658      937.74975      1634.424       347.9358     
      1700   1700           291.81737     -190.13737     -1813.9267     -1688.0033      2620.2846     -4308.2879      699.3659       1935.165      -2061.7567      15.454261     -1030.5055     -1609.5629     -2256.448      -278.67486      45411.186      35.676941      35.676941      35.676941      1.3719725      2156.0944     -151.45952     -2575.047     
      1800   1800           298.52297     -33.172783     -1718.5533     -1696.6064      2680.4955     -4377.1019      652.44926      1925.266      -2065.3272      15.735477     -1040.6094     -1610.1158     -2254.5002     -278.9627       45364.33       35.664666      35.664666      35.664666      1.3733896      78.422713      517.00251     -694.94357    
      1900   1900           296.81523      428.0702      -1334.7465     -1617.8611      2665.1614     -4283.0225      666.76868      1997.343      -2071.277       16.092219     -1030.8603     -1608.5983     -2252.4908     -279.05467      45349.379      35.660748      35.660748      35.660748      1.3738424      3.4126336      1297.7583     -16.960386    
      2000   2000           298.66317      1118.7506     -848.91051     -1588.5345      2681.7544     -4270.2889      666.12891      1974.6846     -2068.4742      16.181584     -994.56474     -1611.809      -2252.436      -279.16362      45331.68       35.656108      35.656108      35.656108      1.3743787      206.38392      2009.1916      1140.6762    
      2100   2100           303.34693      1101.0583     -851.25698     -1579.4486      2723.8108     -4303.2595      681.08332      1980.4357     -2070.5478      15.784075     -1051.6032     -1606.6157     -2251.7959     -279.06227      45348.143      35.660424      35.660424      35.660424      1.3738798      501.89841      1754.3869      1046.8895    
      2200   2200           301.71482     -9.5359899     -1602.1548     -1595.8505      2709.1557     -4305.0062      716.84099      1912.417      -2053.0866      15.373647     -1037.1119     -1607.3091     -2252.1302     -279.16829      45330.921      35.655909      35.655909      35.655909      1.3744018      1195.7431     -952.16341     -272.18769    
      2300   2300           298.67171      119.20518     -1581.9753     -1660.6968      2681.8311     -4342.5279      665.53127      1908.5177     -2057.645       14.688343     -1007.0201     -1612.7332     -2253.8669     -279.47177      45281.696      35.642998      35.642998      35.642998      1.3758959     -372.90031     -541.63853      1272.1544    
      2400   2400           296.61902     -37.062378     -1731.6459     -1707.1284      2663.3995     -4370.528       666.50162      1908.0391     -2054.5267      14.558547     -1031.8551     -1617.3237     -2255.9218     -278.99394      45359.25       35.663335      35.663335      35.663335      1.3735434      410.4845      -975.16907      453.49744    
      2500   2500           301.82288      844.6151      -1072.0432     -1631.3443      2710.1261     -4341.4703      669.36816      1909.5377     -2072.4689      15.048611     -990.60254     -1617.9974     -2254.356      -278.7082       45405.753      35.675519      35.675519      35.675519      1.3721366      1259.1826      274.28607      1000.3766    
      2600   2600           303.51955      487.46116     -1224.0037     -1547.3006      2725.3608     -4272.6613      689.73038      1962.5041     -2057.5561      15.802066     -1014.4089     -1616.9942     -2251.7386     -278.27559      45476.342      35.693996      35.693996      35.693996      1.3700068     -624.91841      1959.5156      127.78626    
      2700   2700           300.01178      81.987212     -1502.309      -1556.6568      2693.8638     -4250.5206      687.95366      1996.5633     -2046.6759      14.933845     -1034.9286     -1617.8498     -2250.5171     -278.42036      45452.695      35.687809      35.687809      35.687809      1.3707195      70.950371      707.02072     -532.00945    
      2800   2800           298.76749      104.92922     -1552.239      -1621.575       2682.6911     -4304.2661      662.72875      1967.0431     -2051.6835      15.893337     -1026.1861     -1619.7589     -2252.3028     -279.30224      45309.181      35.650208      35.650208      35.650208      1.3750612      122.74374      26.429542      165.61438    
      2900   2900           298.00229      1410.1934     -724.02442     -1652.449       2675.8202     -4328.2692      651.8843       1943.6268     -2060.4881      15.775892     -1003.072      -1623.3387     -2252.6574     -280.32935      45143.171      35.606615      35.606615      35.606615      1.3801179      964.16966      1793.6126      1472.7979    
      3000   3000           297.74005      2103.0777     -213.53335     -1596.2751      2673.4655     -4269.7406      642.96752      1979.6483     -2058.306       15.816945     -983.219       -1615.0354     -2251.613      -280.70539      45082.696      35.590708      35.590708      35.590708      1.3819692      2666.3893      1440.1995      2202.6443    
      3100   3100           295.92047     -479.55675     -1827.8318     -1512.0162      2657.1272     -4169.1433      727.82775      2030.7075     -2053.1245      16.513976     -1029.0313     -1608.6351     -2253.4016     -280.24826      45156.234      35.610049      35.610049      35.610049      1.3797187     -776.56206     -385.75764     -276.35056    
      3200   3200           304.83047      539.87868     -1182.7582     -1538.5307      2737.1318     -4275.6624      701.87274      1933.6095     -2059.5258      14.561571     -1006.0107     -1610.2182     -2249.9515     -280.06598      45185.623      35.617773      35.617773      35.617773      1.3788213      896.09316      1362.3541     -638.81121    
      3300   3300           298.1318      -141.15431     -1700.4805     -1607.2326      2676.9831     -4284.2157      649.43998      2011.872      -2042.2371      15.118844     -1057.3714     -1610.2383     -2250.7996     -279.37767      45296.949      35.647         35.647         35.647         1.3754326      740.69811     -96.838502     -1067.3225    
      3400   3400           292.17744      652.80316     -1227.7313     -1659.4793      2623.5178     -4282.9971      658.81574      1978.5903     -2068.8163      15.089584     -996.4445      -1615.0233     -2255.2087     -279.0541       45349.471      35.660772      35.660772      35.660772      1.3738396      1408.3377      320.30658      229.76522    
      3500   3500           294.62754      1464.774      -686.23281     -1657.7276      2645.5177     -4303.2453      686.7655       1956.5692     -2057.7014      16.127162     -1034.0179     -1615.7087     -2255.2792     -278.27018      45477.225      35.694227      35.694227      35.694227      1.3699802      1898.8386      770.82741      1724.6561    
      3600   3600           303.79714      685.28402     -1112.9349     -1568.8019      2727.8533     -4296.6551      688.89451      1924.086      -2044.8031      14.75532      -1011.6995     -1612.6212     -2255.2672     -277.43997      45613.311      35.729796      35.729796      35.729796      1.3658929      1519.6474      1023.3262     -487.12148    
      3700   3700           305.11851      493.18006     -1208.0561     -1537.22        2739.7182     -4276.9381      681.60418      1968.6853     -2086.5468      15.41407      -982.37598     -1618.7719     -2254.947      -276.52211      45764.716      35.769285      35.769285      35.769285      1.3613741      858.11175     -411.61541      1033.0438    
      3800   3800           302.87147     -1001.4651     -2218.7328     -1548.929       2719.5416     -4268.4705      667.85885      2015.6442     -2083.4029      16.165525     -1019.3954     -1610.6992     -2254.6416     -275.94637      45860.2        35.794144      35.794144      35.794144      1.3585396     -42.84403      -822.89354     -2138.6578    
      3900   3900           301.66117     -784.90223     -2108.5656     -1584.7662      2708.6741     -4293.4403      675.61775      1964.1955     -2059.0736      15.247704     -1013.5197     -1617.765      -2258.1428     -276.55858      45758.68       35.767712      35.767712      35.767712      1.3615536     -1238.039      -411.0582      -705.60951    
      4000   4000           294.9517       566.32442     -1263.7811     -1639.6522      2648.4283     -4288.0805      667.01084      1985.8866     -2077.8235      16.305454     -1002.5325     -1619.9055     -2257.0218     -278.07562      45509.044      35.70255       35.70255       35.70255       1.3690223     -178.71383      2421.8389     -544.15184    
      4100   4100           300.25645      1415.5038     -724.90102     -1659.1639      2696.0608     -4355.2247      666.04613      1925.2375     -2084.4162      15.199524     -998.82834     -1621.13       -2257.3332     -279.62659      45256.625      35.636419      35.636419      35.636419      1.3766581      221.66452      972.63018      3052.2166    
      4200   4200           292.71771      740.41552     -1240.5354     -1728.958       2628.369      -4357.327       652.05747      1956.5893     -2082.7678      15.696348     -1022.3609     -1619.6822     -2256.8592     -279.77974      45231.852      35.629915      35.629915      35.629915      1.3774121      76.696661      597.14918      1547.4007    
      4300   4300           292.00592      1400.5654     -822.59152     -1746.0596      2621.9777     -4368.0373      645.1106       1915.4197     -2071.7458      15.388548     -997.59041     -1619.303      -2255.3169     -279.90976      45210.842      35.624398      35.624398      35.624398      1.3780522      324.25005      1677.0328      2200.4134    
      4400   4400           300.16186      993.65474     -995.51698     -1650.8724      2695.2114     -4346.0838      665.59363      1935.066      -2059.8293      15.470099     -1026.0856     -1621.5062     -2254.7926     -279.83055      45223.638      35.627758      35.627758      35.627758      1.3776622      1265.9966      1961.262      -246.29438    
      4500   4500           296.42452      725.33605     -1108.0628     -1586.0103      2661.6531     -4247.6634      707.68347      1958.239      -2068.083       15.639022     -991.01043     -1618.6385     -2251.4929     -280.08869      45181.959      35.61681       35.61681       35.61681       1.3789331      1907.145       545.50318     -276.64       
      4600   4600           306.45302      3.0561026     -1558.2918     -1560.3102      2751.7009     -4312.0111      654.15707      1946.4513     -2055.042       14.939479     -1002.2677     -1616.5897     -2253.6595     -279.44615      45285.848      35.644088      35.644088      35.644088      1.3757697     -1188.8274      542.67514      655.32056    
      4700   4700           298.45287     -491.5535      -1919.8215     -1593.5265      2679.8661     -4273.3926      711.57638      1927.1541     -2063.742       14.01853      -1000.3315     -1611.0504     -2251.0178     -278.03335      45515.963      35.704359      35.704359      35.704359      1.3688142      386.76234     -820.48668     -1040.9361    
      4800   4800           291.55516     -895.81251     -2268.5413     -1670.8402      2617.9302     -4288.7703      725.95447      1936.2895     -2061.4878      15.341474     -1040.5539     -1611.3126     -2253.0015     -276.61108      45749.995      35.765449      35.765449      35.765449      1.3618121     -1385.8313     -883.57224     -418.03402    
      4900   4900           299.1771      -70.636426     -1729.012      -1681.843       2686.369      -4368.2121      655.24613      1889.1888     -2066.5478      13.887878     -990.504       -1614.9555     -2254.5276     -276.38175      45787.957      35.775339      35.775339      35.775339      1.3606831     -968.46519      941.35106     -184.79515    
      5000   5000           311.33651     -1032.5823     -2251.4275     -1561.9034      2795.5507     -4357.4541      648.95687      1918.6165     -2068.451       14.934277     -1005.2163     -1613.3672     -2252.9273     -276.38324      45787.71       35.775274      35.775274      35.775274      1.3606904     -1600.8664     -310.36898     -1186.5115    
      5100   5100           304.78323      300.33783     -1344.2447     -1544.4667      2736.7076     -4281.1742      703.6977       1923.2131     -2074.9054      15.039589     -976.87746     -1618.3382     -2253.0034     -276.84382      45711.534      35.755424      35.755424      35.755424      1.3629579      2689.0183     -1188.9749     -599.02985    
      5200   5200           301.93058     -91.455336     -1640.3978     -1579.4225      2711.0931     -4290.5156      641.8652       1976.7947     -2084.3846      15.031956     -973.7706      -1614.3221     -2251.7301     -276.81607      45716.117      35.756619      35.756619      35.756619      1.3628213      874.18326      991.05721     -2139.6065    
      5300   5300           295.23831     -782.04561     -2150.1692     -1627.9608      2651.0019     -4278.9626      684.28221      1936.6968     -2058.3973      15.604139     -993.45353     -1610.6033     -2253.0917     -276.39155      45786.334      35.774916      35.774916      35.774916      1.3607313     -1166.5562     -325.65584     -853.92479    
      5400   5400           299.98838      267.60059     -1455.9167     -1634.5616      2693.6537     -4328.2152      660.20743      1930.0526     -2066.638       15.05429      -990.31766     -1622.1556     -2254.4182     -276.46055      45774.906      35.771939      35.771939      35.771939      1.361071       469.66244      1355.8769     -1022.7376    
      5500   5500           303.43234      319.45644     -1341.8054     -1554.7163      2724.5777     -4279.2939      714.21366      1953.9317     -2074.9256      15.141236     -1009.555      -1621.0667     -2257.0332     -276.91747      45699.377      35.752254      35.752254      35.752254      1.3633205      438.5965       1016.8287     -497.05586    
      5600   5600           305.12316      1156.3086     -735.47376     -1503.8871      2739.7599     -4243.647       686.96961      1998.5833     -2069.1219      15.661467     -1001.3977     -1617.1637     -2257.1781     -277.72526      45566.456      35.717557      35.717557      35.717557      1.3672974      956.51055      776.10278      1736.3124    
      5700   5700           307.31733      1896.8512     -317.28136     -1574.7015      2759.4618     -4334.1633      638.13156      1943.6398     -2064.3003      15.08122      -991.87534     -1618.5832     -2256.257      -278.4129       45453.913      35.688127      35.688127      35.688127      1.3706828      3169.7416      1539.5071      981.30476    
      5800   5800           293.25913     -127.90925     -1712.0357     -1627.1352      2633.2305     -4260.3656      693.88036      1946.6619     -2061.4684      14.967545     -984.61048     -1614.9129     -2254.8836     -278.05346      45512.672      35.703499      35.703499      35.703499      1.3689132      1104.1337      814.14572     -2302.0071    
      5900   5900           298.59448      52.903828     -1566.4034     -1601.5797      2681.1376     -4282.7174      689.58569      1953.0192     -2062.6617      15.385888     -1007.7047     -1615.5839     -2254.7579     -277.57016      45591.918      35.724209      35.724209      35.724209      1.3665338      1297.6261     -1293.361       154.44639    
      6000   6000           305.33109     -395.32289     -1827.0046     -1563.4935      2741.6269     -4305.1204      679.95378      1949.4378     -2063.0273      15.758542     -1026.3991     -1608.0673     -2252.7768     -276.87869      45705.777      35.753923      35.753923      35.753923      1.3631296     -434.82277     -981.90498      230.75907    
      6100   6100           307.64131      512.06034     -1172.6745     -1513.4917      2762.3708     -4275.8626      685.32592      1931.3675     -2051.4259      15.796798     -1001.0359     -1606.2923     -2249.5987     -277.29122      45637.78       35.736183      35.736183      35.736183      1.3651606      396.31314      1596.0696     -456.20167    
      6200   6200           306.70948      444.29969     -1209.8893     -1505.2736      2754.0038     -4259.2774      643.75171      2018.3898     -2058.6522      15.264562     -1019.2078     -1607.8755     -2250.948      -277.60361      45586.424      35.722774      35.722774      35.722774      1.3666985      1416.2228      664.50655     -747.83029    
      6300   6300           301.24775      310.33766     -1413.443      -1619.6715      2704.9618     -4324.6334      659.15106      1930.5897     -2064.1827      15.052401     -1000.0292     -1612.629      -2252.5857     -277.72959      45565.746      35.717372      35.717372      35.717372      1.3673187      100.3559       1490.4323     -659.77523    
      6400   6400           296.31272      322.4178      -1432.6245     -1646.4491      2660.6493     -4307.0984      662.55488      1955.2935     -2071.7838      15.435138     -1002.8091     -1612.2023     -2253.5867     -278.29017      45473.959      35.693373      35.693373      35.693373      1.3700786      845.60541      806.18202     -684.53403    
      6500   6500           300.62361      66.6391       -1563.7979     -1607.8372      2699.3575     -4307.1947      726.46196      1902.6248     -2046.3631      14.877425     -1034.6965     -1614.7295     -2255.3698     -279.27075      45314.289      35.651548      35.651548      35.651548      1.3749062     -478.60069      886.65136     -208.13337    
      6600   6600           305.75077      1432.3691     -615.80075     -1559.1567      2745.3953     -4304.552       676.44149      1953.784      -2059.1453      15.545109     -1022.2853     -1614.3695     -2254.5225     -280.23082      45159.044      35.610788      35.610788      35.610788      1.3796328      1229.2822      1639.4928      1428.3324    
      6700   6700           311.86063      1742.9576     -362.02484     -1509.1947      2800.257      -4309.4517      697.06314      1955.604      -2088.0743      15.944174     -1017.4968     -1618.3488     -2254.1432     -280.41137      45129.967      35.603143      35.603143      35.603143      1.3805217      1080.887       3020.6126      1127.3733    
      6800   6800           300.53993      719.73547     -1034.1667     -1508.3493      2698.6062     -4206.9555      700.9757       2021.6632     -2079.1091      16.849186     -993.36691     -1618.3029     -2255.6647     -280.13271      45174.86       35.614944      35.614944      35.614944      1.3791498      410.71978      2157.8872     -409.40061    
      6900   6900           300.75065      127.38816     -1528.1376     -1612.1985      2700.4983     -4312.6968      685.63685      1946.5687     -2078.8795      16.058487     -1024.8762     -1606.6106     -2250.5946     -279.68627      45246.968      35.633884      35.633884      35.633884      1.3769519     -121.72616     -696.0869       1199.9775    
      7000   7000           305.14204      1891.5095     -400.29514     -1652.9085      2739.9294     -4392.8379      617.20144      1945.0807     -2092.3787      14.890425     -1004.7218     -1620.4428     -2252.4671     -278.69424      45408.028      35.676114      35.676114      35.676114      1.3720679      2449.4213      1826.7714      1398.3357    
      7100   7100           304.20559     -130.67944     -1743.1274     -1656.0635      2731.5209     -4387.5844      662.93433      1942.4053     -2088.3289      16.348525     -1062.8965     -1607.715      -2250.3321     -277.01659      45683.024      35.747989      35.747989      35.747989      1.3638085     -48.089265     -274.09739     -69.851669    
      7200   7200           296.32484      1263.4452     -759.62208     -1601.0758      2660.7581     -4261.8339      660.27163      1948.6399     -2056.6992      15.668642     -966.5565      -1612.3697     -2250.7887     -277.1167       45666.522      35.743684      35.743684      35.743684      1.3643014      1770.2092      1235.5593      784.56697    
      7300   7300           305.65277      271.32012     -1327.6978     -1508.4072      2744.5153     -4252.9225      683.08657      1990.9456     -2050.9178      15.411866     -1033.0664     -1606.2684     -2252.1139     -277.10074      45669.152      35.74437       35.74437       35.74437       1.3642228      2616.2524      736.21043     -2538.5024    
      7400   7400           303.2124       883.00862     -938.94783     -1525.4123      2722.6028     -4248.0151      678.69291      1933.2909     -2040.4245      14.837299     -968.13774     -1612.8196     -2253.4543     -277.8816       45540.819      35.710857      35.710857      35.710857      1.3680671      869.60605     -1005.7695      2785.1893    
      7500   7500           298.17223      170.47614     -1458.2171     -1571.5378      2677.3461     -4248.884       717.07877      1955.6253     -2062.3548      15.533693     -1000.8969     -1618.5588     -2255.3113     -277.64555      45579.537      35.720975      35.720975      35.720975      1.366905      -1000.7196      1781.0554     -268.90736    
      7600   7600           294.73731      951.39215     -975.72416     -1608.6188      2646.5034     -4255.1222      666.25658      1973.1022     -2056.4718      15.118338     -978.28652     -1619.0231     -2255.8178     -277.43718      45613.77       35.729915      35.729915      35.729915      1.3658792      1941.6425      92.355537      820.17842    
      7700   7700           293.30415      1248.6237     -795.79794     -1627.3712      2633.6347     -4261.0059      681.21562      1938.8228     -2048.9225      14.681775     -978.58313     -1614.0452     -2254.1753     -277.11981      45666.008      35.74355       35.74355       35.74355       1.3643167      1923.4792      1317.3654      505.02636    
      7800   7800           303.75668      607.88004     -1147.6645     -1553.2219      2727.49       -4280.7119      678.64865      1967.2126     -2067.0529      15.29237      -1007.4061     -1612.8027     -2254.6039     -276.63178      45746.573      35.764557      35.764557      35.764557      1.361914      -79.74459      -88.610798      1991.9955    
      7900   7900           304.05638      770.11432     -983.81074     -1495.7268      2730.181      -4225.9078      709.26792      1946.8571     -2043.8008      13.993843     -980.5217      -1617.9601     -2253.744      -277.64699      45579.301      35.720913      35.720913      35.720913      1.3669121     -466.66033      1595.2235      1181.7798    
      8000   8000           302.04206      635.42327     -1128.9022     -1549.4426      2712.0941     -4261.5367      677.90936      1944.6103     -2050.2478      14.359269     -983.7267      -1611.8165     -2252.6246     -278.86364      45380.443      35.668889      35.668889      35.668889      1.3729019      647.47445      468.48437      790.31098    
      8100   8100           300.89107      887.83489     -1029.9942     -1616.9038      2701.7591     -4318.6629      658.63097      1933.4724     -2045.6599      15.294432     -1004.1286     -1617.8863     -2258.386      -279.18848      45327.644      35.65505       35.65505       35.65505       1.3745011      904.56269      1386.2773      372.66464    
      8200   8200           300.43919      1552.965      -603.85631     -1631.6561      2697.7017     -4329.3578      660.0059       1939.8893     -2066.4186      14.897205     -1005.4568     -1614.6805     -2257.5944     -278.8622       45380.678      35.66895       35.66895       35.66895       1.3728948      1927.401       606.80331      2124.6908    
      8300   8300           296.49903      27.286338     -1556.0808     -1574.181       2662.3221     -4236.5032      695.74169      1971.8649     -2042.1255      15.007452     -1009.6913     -1612.3111     -2254.9894     -278.22516      45484.584      35.696153      35.696153      35.696153      1.3697585     -1630.42        872.61614      839.66288    
      8400   8400           307.71927      1019.3393     -815.59329     -1492.3731      2763.0708     -4255.444       670.6069       1985.2657     -2053.2819      15.064381     -995.95295     -1619.5444     -2257.6016     -277.97637      45525.293      35.706799      35.706799      35.706799      1.3685337      2432.9932     -379.55027      1004.575     
      8500   8500           303.93307     -21.872512     -1532.3623     -1517.8434      2729.0738     -4246.9172      689.49806      2001.8185     -2067.7408      16.191745     -1009.838      -1618.5691     -2258.2775     -278.03586      45515.553      35.704252      35.704252      35.704252      1.3688266      45.208126     -629.37107      518.54541    
      8600   8600           305.08721      576.41729     -1169.7329     -1551.6932      2739.4371     -4291.1303      649.03342      1966.5784     -2053.4571      15.762103     -994.06638     -1619.142      -2255.8387     -278.51925      45436.556      35.683584      35.683584      35.683584      1.3712064      870.10609      467.47783      391.66794    
      8700   8700           299.749        301.31361     -1391.7716     -1591.2753      2691.5043     -4282.7796      693.43122      1925.2066     -2041.076       14.904581     -1004.6716     -1616.3602     -2254.2141     -278.74319      45400.054      35.674026      35.674026      35.674026      1.3723089      240.27761      911.93521     -248.27199    
      8800   8800           296.94226      127.31741     -1527.3121     -1611.601       2666.302      -4277.903       696.04563      1993.9213     -2072.3688      16.299512     -1043.5219     -1614.8038     -2253.4748     -278.77495      45394.881      35.672671      35.672671      35.672671      1.3724653      946.86618     -1976.7891      1411.8751    
      8900   8900           300.50689     -365.9364      -1905.5387     -1663.6223      2698.3095     -4361.9318      703.34869      1863.5926     -2056.2339      14.819884     -1017.1256     -1615.2757     -2255.0577     -279.17516      45329.806      35.655617      35.655617      35.655617      1.3744356     -79.377885      254.09273     -1272.5241    
      9000   9000           295.5649      -605.98797     -2135.5003     -1736.1998      2653.9345     -4390.1342      639.80449      1925.2594     -2044.6042      15.151514     -1064.1571     -1608.3328     -2253.2556     -280.092        45181.425      35.61667       35.61667       35.61667       1.3789494     -1139.1863      179.28866     -858.06631    
      9100   9100           293.70665     -160.89259     -1803.5508     -1698.087       2637.2489     -4335.3359      686.28246      1912.3719     -2046.0546      15.644827     -1031.1222     -1617.1242     -2255.334      -281.55871      44946.064      35.554717      35.554717      35.554717      1.3861703     -366.30404      498.94282     -615.31657    
      9200   9200           297.52489      910.67141     -1010.3468     -1604.7363      2671.5336     -4276.2699      692.51703      1937.8839     -2048.1515      14.808804     -994.66254     -1621.1134     -2257.5521     -282.76595      44754.172      35.504046      35.504046      35.504046      1.3921137      1604.6209      1105.7431      21.650169    
      9300   9300           297.50979      77.572606     -1549.0146     -1599.6955      2671.3979     -4271.0935      668.2831       2013.385      -2058.803       15.597161     -1030.3331     -1623.7397     -2255.4829     -282.48823      44798.171      35.515677      35.515677      35.515677      1.3907465     -67.040492      260.70558      39.052727    
      9400   9400           298.9244       1294.9564     -767.73744     -1617.5654      2684.1001     -4301.6655      655.64399      1986.3744     -2066.7994      15.465338     -1022.5391     -1615.6854     -2254.1253     -281.22936      44998.701      35.568591      35.568591      35.568591      1.3845488      770.09398      1722.335       1392.4403    
      9500   9500           301.84588      1022.969      -982.72424     -1658.1159      2710.3326     -4368.4485      642.01117      1901.349      -2055.1458      14.763105     -1001.8643     -1614.7783     -2254.7834     -279.53957      45270.713      35.640116      35.640116      35.640116      1.3762297      1863.2477     -823.48883      2029.1482    
      9600   9600           292.67587      249.67263     -1531.6664     -1697.4591      2627.9933     -4325.4524      654.32251      1958.7007     -2054.923       15.536854     -1036.0095     -1608.2806     -2254.7995     -277.93418      45532.203      35.708605      35.708605      35.708605      1.368326      -140.95508      490.45069      399.52228    
      9700   9700           297.2109       363.08017     -1376.6946     -1618.722       2668.7142     -4287.4362      665.76808      2012.0696     -2052.255       16.053567     -1063.0832     -1607.6544     -2258.3348     -276.86912      45707.357      35.754335      35.754335      35.754335      1.3630825     -679.22781      0.51656435     1767.9518    
      9800   9800           299.0283       709.12354     -1084.5024     -1556.6972      2685.0329     -4241.7301      674.56222      1986.0769     -2043.5636      15.195577     -1011.8397     -1607.4758     -2254.6857     -277.16424      45658.688      35.74164       35.74164       35.74164       1.3645354     -282.89252      1681.1267      729.13643    
      9900   9900           300.42555      962.60566     -918.68337     -1557.5565      2697.5792     -4255.1356      681.05788      1995.7569     -2064.0105      15.234398     -1017.0661     -1612.8058     -2253.3023     -278.08037      45508.267      35.702347      35.702347      35.702347      1.3690457      1821.6771     -341.80922      1407.9491    
     10000   10000          301.52828      397.45681     -1337.2771     -1600.0204      2707.4807     -4307.5011      665.42369      1938.9524     -2054.8591      14.30462      -997.9449      -1619.8809     -2253.497      -279.18678      45327.918      35.655122      35.655122      35.655122      1.3744928      1093.4943      533.80312     -434.92701    
     10100   10100          292.06148      492.19921     -1366.5925     -1691.6222      2622.4766     -4314.0988      648.88655      1934.6077     -2038.083       15.915373     -1005.6936     -1616.8343     -2252.8975     -279.48232      45279.986      35.642549      35.642549      35.642549      1.3759478      58.161405      516.75268      901.68353    
     10200   10200          300.52502      215.80867     -1523.0589     -1665.6085      2698.4723     -4364.0807      655.81121      1904.5101     -2052.2427      14.449102     -1011.0412     -1621.9613     -2253.606      -279.40848      45291.952      35.645689      35.645689      35.645689      1.3755843      807.47179     -113.57263     -46.473154    
     10300   10300          299.08372      681.2548      -1135.4517     -1586.6416      2685.5306     -4272.1722      670.62939      1942.8367     -2040.8462      15.22353      -989.85528     -1618.9131     -2251.2471     -278.66777      45412.341      35.677244      35.677244      35.677244      1.3719376      178.12823      664.45994      1201.1762    
     10400   10400          306.08349      768.31656     -1059.4816     -1570.3631      2748.3828     -4318.7459      650.7204       1957.7883     -2049.6189      16.311121     -1031.7794     -1610.0877     -2252.0796     -277.55979      45593.621      35.724654      35.724654      35.724654      1.3664828      178.87027      1058.5042      1067.5752    
     10500   10500          300.26353      782.85842     -1041.457      -1562.3529      2696.1244     -4258.4773      698.20629      1958.6234     -2056.0655      16.282844     -1018.0275     -1603.5952     -2253.9016     -277.37594      45623.841      35.732545      35.732545      35.732545      1.3655777      360.20999      508.38203      1479.9832    
     10600   10600          301.49603      1313.9907     -663.35294     -1535.6711      2707.1911     -4242.8623      648.03616      2041.6592     -2064.7225      16.338922     -1012.8157     -1615.3237     -2256.0347     -278.00582      45520.471      35.705538      35.705538      35.705538      1.3686787      2216.6392      406.5643       1318.7686    
     10700   10700          302.80821     -303.40177     -1756.5266     -1555.5952      2718.9735     -4274.5687      698.65719      1940.3944     -2059.4383      14.922119     -1001.3344     -1614.1857     -2253.584      -278.68056      45410.256      35.676698      35.676698      35.676698      1.3720006      517.54225     -1292.1818     -135.56574    
     10800   10800          299.87164      528.69477     -1292.5034     -1641.8479      2692.6054     -4334.4534      672.1552       1931.2828     -2076.6871      15.240786     -1001.801      -1620.178      -2254.4661     -279.31074      45307.801      35.649846      35.649846      35.649846      1.3751031      1113.6649      2.1046841      470.31474    
     10900   10900          293.60898      419.00007     -1398.2126     -1675.237       2636.3718     -4311.6088      685.04573      1976.7475     -2077.7012      15.727177     -1043.7869     -1614.8827     -2252.7583     -279.14681      45334.41       35.656824      35.656824      35.656824      1.374296      -28.292666      746.57554      538.71734    
     11000   11000          292.16654      724.86503     -1137.7904     -1617.6547      2623.4199     -4241.0745      650.54102      2002.4376     -2039.5396      15.884374     -1001.2332     -1616.9112     -2252.2536     -278.78877      45392.631      35.672082      35.672082      35.672082      1.3725333      1307.0658      153.46319      714.06607    
     11100   11100          303.78359      470.15271     -1271.7591     -1582.9424      2727.7317     -4310.674       650.86476      1950.2917     -2045.8811      15.972895     -1016.319      -1612.6503     -2252.9529     -278.84269      45383.853      35.669782      35.669782      35.669782      1.3727988     -631.85722      1909.1414      133.17401    
     11200   11200          300.12561      591.52361     -1197.26       -1588.5303      2694.8859     -4283.4162      698.5526       1929.5255     -2070.5528      15.749118     -994.37895     -1611.4599     -2250.8517     -279.01768      45355.391      35.662324      35.662324      35.662324      1.3736603      1132.3895     -859.95238      1502.1337    
     11300   11300          302.13981      966.90801     -939.43933     -1579.5039      2712.9718     -4292.4757      653.23986      2004.0222     -2076.0138      17.142037     -1023.9797     -1614.4401     -2252.4462     -278.8033       45390.265      35.671462      35.671462      35.671462      1.3726049      245.88051      1272.1212      1382.7223    
     11400   11400          295.38249      1516.2768     -590.6744      -1594.6704      2652.2966     -4246.967       690.05079      1951.3582     -2062.8587      15.1921       -971.5107      -1614.9451     -2254.2536     -278.72954      45402.277      35.674608      35.674608      35.674608      1.3722417      1107.4766      1728.0731      1713.2806    
     11500   11500          292.46794     -180.44843     -1771.8979     -1652.0033      2626.1262     -4278.1295      697.22765      1984.1113     -2068.5829      15.633297     -1042.2264     -1609.3972     -2254.8952     -277.77303      45558.619      35.71551       35.71551       35.71551       1.3675326      720.95455     -2069.1163      806.81647    
     11600   11600          294.81192      682.76431     -1231.0286     -1685.4252      2647.1733     -4332.5984      692.86029      1887.392      -2070.2879      14.553036     -985.00171     -1618.0085     -2254.1056     -277.31434      45633.976      35.735191      35.735191      35.735191      1.3652744      784.16849      1924.0782     -659.95379    
     11700   11700          297.43378      624.75477     -1195.7498     -1613.1257      2670.7154     -4283.8411      691.33803      1936.7389     -2053.4772      15.220162     -1009.2917     -1612.1947     -2252.1746     -276.26043      45808.064      35.780575      35.780575      35.780575      1.3600858      166.8955       2124.61       -417.24116    
     11800   11800          306.88825      182.31778     -1413.3908     -1535.1789      2755.609      -4290.7879      702.75696      1909.2048     -2049.8488      15.585927     -1001.5641     -1615.3868     -2251.536      -276.28721      45803.625      35.779419      35.779419      35.779419      1.3602176      946.67312     -29.026801     -370.69299    
     11900   11900          304.9219       533.49906     -1177.1018     -1532.2555      2737.9527     -4270.2082      676.62218      1937.8662     -2030.5624      14.497551     -997.18078     -1617.2556     -2254.1954     -277.23869      45646.428      35.738441      35.738441      35.738441      1.3649019      762.8012       758.26141      79.434563    
     12000   12000          302.97421      717.57738     -1110.7708     -1586.8481      2720.464      -4307.3121      678.6487       1956.3546     -2065.9934      15.656197     -1018.7108     -1618.4596     -2254.8079     -278.18122      45491.769      35.698032      35.698032      35.698032      1.3695422      730.20093      663.18044      759.35077    
     12100   12100          300.30917      80.011346     -1587.6592     -1640.5855      2696.5341     -4337.1197      657.72714      1954.9973     -2049.0031      16.179339     -1051.8096     -1612.0463     -2253.1644     -279.00754      45357.039      35.662756      35.662756      35.662756      1.3736103     -140.32802      984.76273     -604.40067    
     12200   12200          298.00152      854.6286      -1087.934      -1650.696       2675.8133     -4326.5093      662.35137      1916.3658     -2049.1878      14.451952     -995.35403     -1619.0553     -2256.0813     -280.2781       45151.425      35.608785      35.608785      35.608785      1.3798656      1126.8645      462.38344      974.63782    
     12300   12300          302.68986      395.93743     -1320.5052     -1581.268       2717.9108     -4299.1787      665.86833      1981.3108     -2063.9804      15.741091     -1025.7204     -1614.8952     -2257.503      -280.23181      45158.884      35.610746      35.610746      35.610746      1.3796377      255.42849      485.70938      446.67443    
     12400   12400          301.11751      1119.3259     -777.71186     -1514.3168      2703.7924     -4218.1092      699.73611      2019.8795     -2072.7205      15.097226     -994.59169     -1627.5625     -2257.9474     -280.45192      45123.442      35.601427      35.601427      35.601427      1.3807213     -112.36498      1999.0754      1471.2672    
     12500   12500          301.65217      2344.0887      9.0774664     -1534.247       2708.5932     -4242.8401      660.70522      1986.6596     -2029.7865      14.689354     -988.4575      -1630.44       -2256.2103     -280.31952      45144.754      35.607031      35.607031      35.607031      1.3800695      1976.996       2860.1393      2195.1308    
     12600   12600          300.0293       685.7631      -1159.0529     -1611.1434      2694.0212     -4305.1645      681.6947       1950.3906     -2042.1065      15.76979      -1036.9961     -1619.8888     -2254.0282     -279.95309      45203.844      35.62256       35.62256       35.62256       1.3782655     -166.68483      1177.3544      1046.6197    
     12700   12700          294.21987      761.74883     -1136.6963     -1639.6456      2641.8572     -4281.5028      699.02697      1923.1261     -2031.35        14.637601     -1015.8146     -1616.4445     -2254.6843     -279.52719      45272.719      35.640643      35.640643      35.640643      1.3761687      871.67378      1170.559       243.01368    
     12800   12800          301.0066      -213.32994     -1748.7209     -1607.5814      2702.7965     -4310.3779      695.07042      1907.0026     -2051.2498      14.305514     -1013.7424     -1609.4481     -2252.3162     -278.95852      45365.01       35.664845      35.664845      35.664845      1.373369      -465.69712     -352.63046      178.33776    
     12900   12900          300.40992     -238.56623     -1649.5683     -1491.8458      2697.4388     -4189.2847      714.31421      2026.7603     -2056.2822      15.129006     -1023.6559     -1613.3097     -2252.2404     -279.15907      45332.418      35.656302      35.656302      35.656302      1.3743564     -219.61333      350.20514     -846.2905     
     13000   13000          304.06421     -1123.2739     -2241.1731     -1499.9217      2730.2513     -4230.173       713.53586      1998.4822     -2054.0813      15.994057     -1032.5822     -1615.9441     -2255.5776     -279.67695      45248.476      35.63428       35.63428       35.63428       1.376906      -1873.1175     -1051.5775     -445.12668    
     13100   13100          299.79287      429.728       -1279.5206     -1561.7578      2691.8982     -4253.656       667.987        1995.7572     -2041.2687      14.96229      -1020.8865     -1615.1563     -2255.051      -281.00621      45034.435      35.578003      35.578003      35.578003      1.3834502      828.96235     -340.80867      801.03032    
     13200   13200          294.63284      865.02192     -1054.0665     -1620.0749      2645.5653     -4265.6402      687.39882      1981.5184     -2045.575       15.515218     -1034.5557     -1614.4732     -2255.4686     -282.05954      44866.257      35.53366       35.53366       35.53366       1.388636       575.54924     -105.95475      2125.4713    
     13300   13300          297.48316      1070.0882     -954.26293     -1653.6333      2671.1588     -4324.7921      708.42387      1894.5187     -2035.7495      13.925357     -1033.282      -1618.4521     -2254.1765     -282.38973      44813.797      35.519806      35.519806      35.519806      1.3902615      1538.1836     -1168.6181      2840.6991    
     13400   13400          297.15825      940.3801      -1019.2698     -1635.9434      2668.2414     -4304.1847      663.33977      1968.201      -2034.2913      15.070338     -1036.9855     -1622.903      -2256.616      -281.43923      44965.145      35.559747      35.559747      35.559747      1.3855821      927.38365      1063.5007      830.256      
     13500   13500          311.91585      41.362266     -1494.7059     -1521.9619      2800.7528     -4322.7147      668.27868      1948.9476     -2049.1539      14.494439     -1025.7757     -1623.7584     -2255.7475     -280.07723      45183.808      35.617296      35.617296      35.617296      1.3788767     -1292.4843      557.98292      858.58821    
     13600   13600          304.20471     -44.537864     -1560.0818     -1530.612       2731.5129     -4262.1249      701.81724      1971.5617     -2049.5705      14.822465     -1035.8787     -1613.77       -2251.107      -278.92582      45370.327      35.666238      35.666238      35.666238      1.373208       1022.8544     -552.98093     -603.48704    
     13700   13700          302.57208      330.34776     -1371.9259     -1590.7473      2716.8533     -4307.6005      666.46776      1942.4894     -2042.5381      15.01013      -1020.6376     -1616.8017     -2251.5905     -278.62373      45419.519      35.679123      35.679123      35.679123      1.3717208      1199.8479     -141.54421     -67.260374    
     13800   13800          298.83456      709.84006     -1163.9198     -1633.4086      2683.2934     -4316.7019      663.77374      1952.6116     -2076.7158      14.753689     -999.14299     -1618.8729     -2253.1092     -279.04344      45351.204      35.661226      35.661226      35.661226      1.3737871      989.35421      1808.405      -668.23903    
     13900   13900          305.39393      797.43605     -1097.1101     -1623.9018      2742.1912     -4366.093       664.41624      1940.4025     -2083.2901      15.703656     -1034.7663     -1616.4249     -2252.1341     -279.3788       45296.764      35.646951      35.646951      35.646951      1.3754382      1439.4594      942.37794      10.470836    
     14000   14000          303.94338      528.28231     -1262.965      -1611.3286      2729.1664     -4340.495       677.91326      1941.733      -2062.8102      15.743044     -1042.1001     -1615.429      -2255.5451     -279.87866      45215.865      35.625717      35.625717      35.625717      1.3778991      1543.619       221.45194     -180.224      
     14100   14100          303.93701      2159.4728     -163.63644     -1585.2499      2729.1093     -4314.3592      659.17745      1972.4112     -2082.5936      16.435109     -1008.5816     -1618.1436     -2253.0642     -280.3514       45139.621      35.605681      35.605681      35.605681      1.3802264      2729.3277      2638.0131      1111.0775    
     14200   14200          305.55487      718.92708     -1064.2217     -1538.4162      2743.6363     -4282.0525      649.60986      2002.2231     -2058.0405      15.968954     -1027.1532     -1612.4809     -2252.1798     -279.81104      45226.792      35.628587      35.628587      35.628587      1.3775662      1493.8832      976.00871     -313.11069    
     14300   14300          299.16692      438.15847     -1244.3198     -1534.0507      2686.2776     -4220.3283      708.81314      1968.1699     -2052.2729      15.350889     -989.10687     -1617.9221     -2253.3604     -279.10836      45340.655      35.658461      35.658461      35.658461      1.3741067     -327.12566      1051.5148      590.08625    
     14400   14400          302.49646     -938.69503     -2169.8869     -1546.5854      2716.1742     -4262.7596      698.42347      1971.4521     -2055.6801      15.12568      -1031.0173     -1608.2904     -2252.7731     -277.94756      45530.013      35.708033      35.708033      35.708033      1.3683918      367.28639     -1312.3717     -1870.9998    
     14500   14500          297.66446     -413.4128      -1880.546      -1605.5727      2672.7868     -4278.3595      696.10788      1979.8739     -2058.3162      15.297672     -1042.4692     -1613.8513     -2255.0023     -277.47887      45606.916      35.728126      35.728126      35.728126      1.3660844     -1113.2342      846.15658     -973.16084    
     14600   14600          299.07908      35.285367     -1654.3531     -1677.7579      2685.4889     -4363.2468      640.53476      1963.0641     -2072.1408      14.885846     -1033.0059     -1621.1157     -2255.4692     -278.2447       45481.39       35.695317      35.695317      35.695317      1.3698547      192.75861     -329.80179      242.89928    
     14700   14700          298.71641      627.42189     -1280.0294     -1694.5493      2682.2325     -4376.7817      623.63373      1915.5834     -2066.4711      15.264474     -982.50872     -1626.7946     -2255.4889     -279.35142      45301.204      35.648116      35.648116      35.648116      1.3753034     -606.06027      1769.4315      718.89447    
     14800   14800          298.99599      382.19154     -1369.5171     -1621.2734      2684.7429     -4306.0163      673.92121      1991.2818     -2074.7942      16.450402     -1023.8685     -1633.1099     -2255.8971     -280.18003      45167.23       35.612939      35.612939      35.612939      1.3793828     -141.03983      505.28757      782.32689    
     14900   14900          302.05439      2321.2868     -17.192615     -1543.5243      2712.2048     -4255.7291      657.94874      2000.5097     -2063.8855      15.505068     -975.67186     -1633.3313     -2256.804      -280.68319      45086.262      35.591646      35.591646      35.591646      1.3818599      4032.86        1401.17        1529.8305    
     15000   15000          295.12921     -82.843279     -1619.3686     -1564.6277      2650.0222     -4214.6499      694.45319      2059.8976     -2055.7329      16.595729     -1057.702      -1615.0171     -2257.1445     -279.30693      45308.42       35.650008      35.650008      35.650008      1.3750843     -674.76097      260.8532       165.37793    
     15100   15100          299.23598      1368.9984     -703.76254     -1610.4133      2686.8978     -4297.3111      647.83394      1999.6973     -2070.9563      16.189907     -1003.9925     -1627.9158     -2258.1677     -278.6759       45411.016      35.676897      35.676897      35.676897      1.3719776      1491.2566      894.91106      1720.8275    
     15200   15200          293.62355     -1025.4987     -2334.1487     -1651.9985      2636.5027     -4288.5012      715.11311      1969.2011     -2058.9858      15.262292     -1052.9459     -1619.4022     -2256.7439     -277.4544       45610.939      35.729176      35.729176      35.729176      1.3659639     -467.9123      -1702.4265     -906.15722    
     15300   15300          295.88627      712.61975     -1141.2068     -1614.9979      2656.82       -4271.8179      659.04332      2001.5747     -2086.6532      15.476973     -980.07603     -1625.2463     -2255.9374     -277.59235      45588.272      35.723257      35.723257      35.723257      1.3666431      1876.2918     -444.80098      706.36842    
     15400   15400          298.04074     -104.80543     -1581.9994     -1512.2879      2676.1655     -4188.4534      710.1378       2052.8745     -2068.665       15.997644     -1021.4377     -1620.4856     -2256.875      -277.46997      45608.379      35.728508      35.728508      35.728508      1.3660406     -968.87651     -661.11371      1315.5739    
     15500   15500          299.13738      874.44956     -920.00176     -1499.3707      2686.0124     -4185.3832      699.93191      2061.1282     -2080.2986      16.796664     -1007.2591     -1619.6078     -2256.0744     -278.55828      45430.191      35.681918      35.681918      35.681918      1.3713986      336.41179      2611.5731     -324.63624    
     15600   15600          300.14636      788.92953     -1031.9602     -1552.8201      2695.0722     -4247.8924      689.94231      2014.4746     -2073.326       15.169459     -1025.9765     -1616.2649     -2251.9112     -279.54633      45269.619      35.639829      35.639829      35.639829      1.3762629      1555.1662      406.46409      405.15825    
     15700   15700          303.38743      1282.962      -754.82995     -1600.0954      2724.1744     -4324.2698      656.35408      1956.5991     -2062.5096      15.299485     -1023.2787     -1613.9751     -2252.759      -280.12843      45175.549      35.615126      35.615126      35.615126      1.3791287      1464.2798      1333.2156      1051.3907    
     15800   15800          295.64063     -27.398222     -1628.3931     -1610.3255      2654.6144     -4264.94        675.55269      1987.4444     -2043.6893      15.638841     -1026.2341     -1617.8262     -2255.8263     -279.87249      45216.861      35.625979      35.625979      35.625979      1.3778687      475.47984     -1113.6825      556.00802    
     15900   15900          302.42801     -732.29533     -2080.8436     -1598.3746      2715.5596     -4313.9343      689.94353      1978.6846     -2058.2491      15.295179     -1061.3031     -1620.4255     -2257.88       -280.12599      45175.944      35.615229      35.615229      35.615229      1.3791167     -1621.3479     -212.86846     -362.66961    
     16000   16000          296.8614       533.43889     -1255.5282     -1605.7841      2665.576      -4271.36        657.43156      1995.9939     -2039.7218      14.918641     -1020.1377     -1623.0347     -2256.8098     -281.08376      45022.009      35.574731      35.574731      35.574731      1.383832       45.859452     -125.48939      1679.9466    
     16100   16100          303.91403      82.607728     -1587.6754     -1641.9692      2728.9029     -4370.872       653.97641      1956.1801     -2068.4015      14.883427     -1051.0851     -1618.9067     -2257.5187     -280.80669      45066.432      35.586428      35.586428      35.586428      1.382468       1324.2631     -1421.9946      345.55467    
     16200   16200          296.10106      847.01416     -1133.629      -1691.5205      2658.7487     -4350.2693      636.0943       1975.356      -2052.8225      15.048373     -1052.1605     -1615.411      -2256.3738     -280.20597      45163.048      35.61184       35.61184       35.61184       1.3795105      542.11199      1427.3209      571.60959    
     16300   16300          292.56538      1346.4146     -777.87479     -1665.2335      2627.0011     -4292.2346      641.80058      1975.964      -2046.4894      15.707334     -1009.3713     -1616.5822     -2253.2636     -280.03746      45190.225      35.618982      35.618982      35.618982      1.3786808      2364.2486      1412.3418      262.65331    
     16400   16400          299.45428     -816.99108     -2112.5852     -1573.5013      2688.8579     -4262.3592      697.69592      1979.4137     -2049.8731      15.540994     -1041.4387     -1611.8371     -2251.861      -279.70326      45244.22       35.633162      35.633162      35.633162      1.3770355     -327.67055      367.37759     -2490.6803    
     16500   16500          300.00599      945.87528     -932.27214     -1555.9385      2693.8118     -4249.7503      677.45018      2026.6314     -2066.4011      15.81808      -1041.2697     -1612.2236     -2249.7556     -279.90979      45210.837      35.624396      35.624396      35.624396      1.3780523      431.26997      798.00496      1608.3509    
     16600   16600          299.28653      1131.6557     -843.06173     -1589.0486      2687.3517     -4276.4003      686.02043      1946.0475     -2047.6349      14.409773     -1010.1869     -1615.7724     -2249.2838     -279.97524      45200.267      35.62162       35.62162       35.62162       1.3783745      2583.0398      1179.1543     -367.22721    
     16700   16700          299.28296      250.08812     -1486.324      -1651.4481      2687.3196     -4338.7677      663.74758      1949.7517     -2052.2028      15.103813     -1044.8252     -1620.3372     -2250.0056     -279.52409      45273.221      35.640774      35.640774      35.640774      1.3761534     -52.176891      423.17814      379.26312    
     16800   16800          296.47022     -705.59283     -2201.6827     -1735.4959      2662.0634     -4397.5594      690.81513      1886.9659     -2059.1322      14.86035      -1062.2311     -1617.9204     -2250.9171     -279.33846      45303.306      35.648667      35.648667      35.648667      1.3752395     -1224.5863      981.80595     -1873.9982    
     16900   16900          295.51765     -162.25999     -1801.545      -1694.5986      2653.5101     -4348.1088      678.65655      1909.1954     -2046.5909      14.078505     -1029.3997     -1620.2678     -2253.7809     -280.01528      45193.804      35.619922      35.619922      35.619922      1.3785717      930.10704     -976.23528     -440.65172    
     17000   17000          299.36001      109.61419     -1521.7291     -1593.8747      2688.0115     -4281.8862      686.46956      1979.3497     -2069.0272      15.620814     -1029.1445     -1614.1945     -2250.9602     -280.40975      45130.227      35.603211      35.603211      35.603211      1.3805137      227.60588     -515.90227      617.13897    
     17100   17100          299.02831      746.41449     -1107.8476     -1598.6594      2685.033      -4283.6924      676.34301      1946.7474     -2049.8729      14.828737     -998.62435     -1620.7232     -2252.3912     -280.67362      45087.799      35.592051      35.592051      35.592051      1.3818128     -329.65414      832.4289       1736.4687    
     17200   17200          294.36469      466.0656      -1323.671      -1630.5794      2643.1575     -4273.737       657.08144      2041.4474     -2056.3898      15.81362      -1061.1356     -1615.9332     -2254.6209     -280.26879      45152.926      35.609179      35.609179      35.609179      1.3798197      1736.3158      850.83287     -1188.9519    
     17300   17300          301.5987       175.99257     -1541.7733     -1657.8361      2708.1131     -4365.9492      630.70025      1971.1588     -2081.107       15.47786      -1031.0515     -1617.1849     -2253.9427     -279.85805      45219.196      35.626592      35.626592      35.626592      1.3777976      86.490346      734.05775     -292.57038    
     17400   17400          301.27492      703.26983     -1232.3262     -1696.4919      2705.2058     -4401.6977      636.65512      1936.251      -2068.5637      14.895524     -1052.4335     -1614.3649     -2254.1373     -279.63108      45255.899      35.636228      35.636228      35.636228      1.3766801      421.73572      1845.4586     -157.38478    
     17500   17500          293.638        739.79743     -1210.2184     -1699.2464      2636.6324     -4335.8788      639.36672      1938.0428     -2056.5396      14.72016      -1001.8141     -1614.6915     -2254.9634     -279.20011      45325.755      35.654555      35.654555      35.654555      1.3745584      1019.2506     -102.96609      1303.1078    
     17600   17600          297.64462      1306.6804     -722.31889     -1589.687       2672.6086     -4262.2956      663.65195      1965.4289     -2055.2626      14.88792      -978.13299     -1619.302      -2253.5668     -278.0369       45515.381      35.704207      35.704207      35.704207      1.3688317      1352.3829      1266.5797      1301.0788    
     17700   17700          298.01184      198.70904     -1426.3122     -1558.8615      2675.906      -4234.7675      682.7829       2037.6565     -2080.503       16.344939     -1026.5646     -1611.6511     -2252.8331     -276.67924      45738.726      35.762512      35.762512      35.762512      1.3621476     -916.27655      1038.8684      473.53532    
     17800   17800          297.53076      982.81374     -918.43046     -1573.3498      2671.5862     -4244.9361      644.74014      2043.3567     -2085.7442      15.917256     -991.10586     -1618.177      -2253.9232     -276.96182      45692.058      35.750345      35.750345      35.750345      1.3635389      1200.8254      769.07544      978.54039    
     17900   17900          292.71282      137.32825     -1521.8245     -1613.0727      2628.325      -4241.3977      675.36124      2010.5496     -2051.3763      15.802512     -1015.578      -1618.7099     -2257.4468     -277.76157      45560.498      35.716001      35.716001      35.716001      1.3674762      600.4352       465.66601     -654.11646    
     18000   18000          296.13318      1002.0089     -984.70104     -1646.9617      2659.0371     -4305.9988      667.61402      1954.6373     -2071.151       14.828682     -990.62233     -1624.9887     -2256.3167     -279.24097      45319.122      35.652815      35.652815      35.652815      1.3747596      1619.4039      490.53984      896.08312    
     18100   18100          296.8752      -234.48601     -1815.8625     -1661.2852      2665.6999     -4326.9851      698.13314      1947.5645     -2063.5257      15.375274     -1052.7187     -1617.913      -2253.9006     -279.96758      45201.504      35.621945      35.621945      35.621945      1.3783368      175.65467     -666.31913     -212.79356    
     18200   18200          297.6913       457.10483     -1326.8295     -1627.3693      2673.0278     -4300.3971      686.45556      1938.4212     -2062.8461      15.206508     -1004.5134     -1621.9126     -2251.2082     -280.70512      45082.739      35.590719      35.590719      35.590719      1.3819679      937.55832      20.5419        413.21429    
     18300   18300          301.43274     -66.287274     -1595.1821     -1551.645       2706.6229     -4258.2679      678.56874      1997.9788     -2058.9414      15.29529      -1023.0354     -1617.4187     -2250.7153     -281.00033      45035.376      35.578251      35.578251      35.578251      1.3834213     -594.17765     -36.063252      431.37908    
     18400   18400          303.82651      394.1837      -1284.988      -1544.4816      2728.117      -4272.5986      672.66641      1966.9104     -2069.7528      14.992824     -989.29395     -1615.1928     -2252.9287     -280.35523      45139.004      35.605519      35.605519      35.605519      1.3802453      576.06574      198.12608      408.35928    
     18500   18500          293.03914      215.6375      -1491.0074     -1633.5933      2631.2552     -4264.8485      685.06525      1994.7904     -2061.2953      15.46502      -1034.8823     -1611.7375     -2252.2541     -279.11557      45339.484      35.658154      35.658154      35.658154      1.3741422      446.07078     -612.31415      813.15586    
     18600   18600          299.17335      842.03895     -1106.5269     -1663.7646      2686.3354     -4350.1001      665.88168      1954.0168     -2099.232       15.418772     -1018.4393     -1616.4214     -2251.3246     -278.88696      45376.649      35.667895      35.667895      35.667895      1.3730167      1132.4248      1356.8451      36.846944    
     18700   18700          298.50009      457.80176     -1344.8571     -1648.0149      2680.29       -4328.3049      667.86232      1990.338      -2078.1691      14.634487     -1063.4323     -1612.2893     -2247.249      -278.70531      45406.224      35.675642      35.675642      35.675642      1.3721224      1002.2343      1291.2021     -920.0311     
     18800   18800          294.90986      1022.3098     -957.07814     -1634.3464      2648.0527     -4282.3991      655.23302      1977.4492     -2076.5392      15.746142     -985.61109     -1618.8144     -2249.8628     -278.58536      45425.775      35.680762      35.680762      35.680762      1.3715319      509.4017       1376.0626      1181.465     
     18900   18900          303.81574      394.06364     -1289.2131     -1550.7255      2728.0203     -4278.7459      648.37062      2039.9998     -2085.7846      16.145857     -1031.7263     -1617.7489     -2248.0024     -278.10612      45504.053      35.701245      35.701245      35.701245      1.3691725      762.38959      851.34204     -431.54071    
     19000   19000          306.90412      590.4588      -1108.1694     -1501.0314      2755.7514     -4256.7828      685.17399      1975.4237     -2072.4421      15.554134     -1000.9246     -1612.3609     -2247.2069     -277.38703      45622.017      35.732069      35.732069      35.732069      1.3656323      768.18686      1778.543      -775.3535     
     19100   19100          296.76959      677.54412     -1081.3977     -1533.385       2664.7516     -4198.1366      693.30378      2019.3914     -2072.7795      15.40764      -989.72834     -1613.261      -2250.4706     -276.66095      45741.75       35.7633        35.7633        35.7633        1.3620576      1607.9353      259.40338      165.29369    
     19200   19200          303.72049      592.99021     -1193.7102     -1589.877       2727.165      -4317.042       704.78035      1922.9191     -2074.6814      14.669405     -1021.8525     -1611.616      -2251.261      -276.25236      45809.404      35.780924      35.780924      35.780924      1.360046      -225.62472      1165.7846      838.81072    
     19300   19300          300.55515      289.36731     -1442.8379     -1635.8077      2698.7428     -4334.5505      660.76747      1951.1787     -2071.7295      15.077985     -1017.4127     -1619.2701     -2253.1623     -276.7558       45726.073      35.759214      35.759214      35.759214      1.3625246      1118.0867      488.46783     -738.45257    
     19400   19400          294.41982      323.39062     -1426.3724     -1641.2075      2643.6525     -4284.86        677.67558      1922.0886     -2048.357       14.773944     -974.48284     -1623.1669     -2253.3914     -277.81695      45551.416      35.713627      35.713627      35.713627      1.3677489     -188.27392      673.76332      484.68246    
     19500   19500          303.54675     -76.464967     -1643.2961     -1592.5928      2725.605      -4318.1978      692.07583      1911.9049     -2068.7432      14.492408     -991.52884     -1622.4611     -2253.9378     -278.33155      45467.198      35.691604      35.691604      35.691604      1.3702823     -1001.5598     -197.76287      969.92777    
     19600   19600          301.20134      588.84372     -1189.5564     -1579.7002      2704.5451     -4284.2453      678.14889      1941.328      -2047.1579      14.254627     -994.46483     -1620.5349     -2255.8192     -278.55554      45430.638      35.682035      35.682035      35.682035      1.3713851      754.92829     -178.25079      1189.8536    
     19700   19700          300.05353     -293.89318     -1785.9129     -1590.9124      2694.2387     -4285.1511      682.736        1980.1764     -2059.5874      14.696784     -1031.5724     -1614.6488     -2256.9517     -278.15713      45495.709      35.699063      35.699063      35.699063      1.3694236      2091.7555     -624.81455     -2348.6205    
     19800   19800          295.81551      59.187421     -1577.9563     -1617.1794      2656.1847     -4273.3641      719.61677      1968.7943     -2068.8844      15.633325     -1027.9618     -1624.7773     -2255.785      -278.49867      45439.914      35.684463      35.684463      35.684463      1.3711051     -539.57406      1098.4362     -381.29991    
     19900   19900          302.39275      267.4958      -1478.2241     -1654.8017      2715.243      -4370.0447      677.66844      1922.4037     -2078.0965      15.527383     -1038.4631     -1616.0612     -2253.0234     -279.58764      45262.929      35.638074      35.638074      35.638074      1.3764663      1502.0146      69.251896     -768.77907    
     20000   20000          293.58712      1376.8597     -808.73109     -1714.4323      2636.1756     -4350.6078      624.53675      1969.9275     -2081.5667      15.424606     -1004.6849     -1620.7146     -2253.5306     -280.57003      45104.446      35.596431      35.596431      35.596431      1.3813028      883.2018       1537.1951      1710.1822    
     20100   20100          292.2749       759.77674     -1210.7482     -1710.4103      2624.3929     -4334.8032      647.66935      1972.4909     -2069.526       15.101465     -1024.9374     -1621.2158     -2254.3858     -280.63775      45093.563      35.593567      35.593567      35.593567      1.3816362      1711.7287      968.69632     -401.09483    
     20200   20200          304.03599      454.812       -1320.7692     -1621.0464      2729.998      -4351.0444      658.22244      1926.5254     -2060.7566      15.085033     -1005.8496     -1626.5074     -2257.7636     -279.54132      45270.429      35.640042      35.640042      35.640042      1.3762383      398.91824      539.47212      426.04564    
     20300   20300          304.28745      356.56753     -1331.6785     -1568.4425      2732.2559     -4300.6984      679.45344      1978.5944     -2063.1897      15.413491     -1027.152      -1626.3947     -2257.4234     -277.94743      45530.033      35.708038      35.708038      35.708038      1.3683912      1111.7596      99.35494      -141.41196    
     20400   20400          304.95272      850.50477     -992.55253     -1557.6313      2738.2295     -4295.8608      648.15766      1991.8656     -2074.5715      16.027418     -993.43038     -1626.1123     -2257.7973     -277.78211      45557.131      35.715121      35.715121      35.715121      1.3675773      1878.095      -374.2232       1047.6425    
     20500   20500          297.72684      473.92447     -1287.2617     -1602.5138      2673.3469     -4275.8608      674.57326      1982.2975     -2062.4067      15.75095      -1007.1265     -1623.6873     -2255.262      -277.45186      45611.357      35.729286      35.729286      35.729286      1.3659514     -87.98349       375.96486      1133.792     
     20600   20600          290.65451     -215.64379     -1840.5068     -1696.8612      2609.8431     -4306.7043      687.05328      1926.3884     -2060.2264      15.57875      -1001.7947     -1619.7503     -2253.9533     -277.06472      45675.089      35.745919      35.745919      35.745919      1.3640455     -521.15927      137.16521     -262.93732    
     20700   20700          295.5996       312.00457     -1484.6846     -1692.146       2654.246      -4346.392       661.82218      1937.2083     -2064.5859      15.20663      -1021.6288     -1620.456      -2253.9584     -277.56215      45593.233      35.724552      35.724552      35.724552      1.3664944      1547.8147      662.60977     -1274.4108    
     20800   20800          296.85938      1493.5226     -665.0322      -1656.0878      2665.5578     -4321.6457      665.82282      1927.3381     -2074.6568      15.453738     -982.64172     -1618.6675     -2254.2943     -278.13156      45499.891      35.700156      35.700156      35.700156      1.3692977      2652.8796     -94.229141      1921.9172    
     20900   20900          299.71197     -42.620692     -1619.8553     -1591.5229      2691.1718     -4282.6947      649.20632      2001.0016     -2080.6191      15.428102     -1007.7935     -1608.3672     -2251.5509     -277.635        45581.269      35.721427      35.721427      35.721427      1.3668531     -429.70038      92.625265      209.21304    
     21000   21000          303.51543      605.80195     -1134.6389     -1537.5668      2725.3238     -4262.8906      656.40491      1983.1668     -2061.9884      15.44381      -983.53177     -1618.9871     -2253.3987     -277.48526      45605.866      35.727852      35.727852      35.727852      1.3661159      1695.8839      535.50511     -413.9832     
     21100   21100          313.23582      444.03343     -1255.8393     -1551.0936      2812.605      -4363.6986      637.23591      1947.7552     -2067.4817      15.064587     -1027.4152     -1615.1815     -2253.676      -277.55942      45593.681      35.724669      35.724669      35.724669      1.366481      -210.21073      1238.0355      304.27551    
     21200   21200          289.15668      1127.7723     -889.83887     -1638.7372      2596.3938     -4235.131       658.81458      2028.5744     -2068.7084      15.701374     -984.45358     -1629.4449     -2255.6145     -277.92977      45532.926      35.708794      35.708794      35.708794      1.3683043      2320.9711      1314.6055     -252.25969    
[...]
    495200   495200         291.96218      984.65465     -1011.343      -1666.1248      2621.5849     -4287.7097      655.1441       1966.5491     -2058.9993      15.387165     -992.04455     -1623.0052     -2250.7409     -277.53891      45597.051      35.72555       35.72555       35.72555       1.36638        2059.2859      205.24362      689.43447    
    495300   495300         300.36568      62.180219     -1568.3465     -1609.7882      2697.0416     -4306.8298      680.68613      1906.1273     -2032.8739      14.850522     -1009.0305     -1614.9202     -2251.6692     -276.91788      45699.308      35.752236      35.752236      35.752236      1.3633226     -266.2547      -186.38809      639.18345    
    495400   495400         298.66439      1831.0271     -356.03861     -1575.2269      2681.7653     -4256.9922      639.08788      1999.4183     -2052.9022      14.847114     -986.37468     -1619.5416     -2251.527      -277.17913      45656.235      35.741         35.741         35.741         1.3646087      1667.4093      1688.2099      2137.4623    
    495500   495500         302.70272      79.383451     -1507.9751     -1560.7918      2718.0263     -4278.8181      684.30234      1977.789      -2050.2966      14.998001     -1039.312      -1614.1338     -2252.165      -277.3926       45621.101      35.731829      35.731829      35.731829      1.3656597      545.43904     -1090.5731      783.28441    
    495600   495600         302.48824      930.32974     -959.65353     -1576.0892      2716.1005     -4292.1897      661.38208      1936.2975     -2047.9695      14.090993     -979.56046     -1621.887      -2254.5433     -278.53878      45433.371      35.68275       35.68275       35.68275       1.3713026      659.84363      1638.9015      492.24405    
    495700   495700         289.8119       553.79078     -1316.1864     -1682.1153      2602.2771     -4284.3924      677.06089      1952.87       -2050.0138      15.492704     -1002.2131     -1624.0277     -2253.5614     -279.30944      45308.013      35.649902      35.649902      35.649902      1.3750967      627.09044      1489.8527     -455.57079    
    495800   495800         297.31837      647.56563     -1279.6627     -1706.1628      2669.6792     -4375.842       650.21348      1926.6981     -2065.3718      14.773192     -1025.9025     -1622.4628     -2253.7897     -280.22128      45160.58       35.611191      35.611191      35.611191      1.3795859      1047.1685     -245.65472      1141.1831    
    495900   495900         298.44798      409.45179     -1396.5515     -1665.8166      2679.8221     -4345.6388      655.79787      1897.462      -2038.3813      14.035171     -1004.4098     -1619.7868     -2250.3558     -280.64625      45092.196      35.593208      35.593208      35.593208      1.381678      -1917.487       2428.8785      716.96391    
    496000   496000         296.7409       1107.8541     -875.91757     -1603.7845      2664.494      -4268.2785      655.11358      1989.5935     -2031.2553      15.694166     -1032.5812     -1617.7957     -2247.0474     -280.90994      45049.869      35.582067      35.582067      35.582067      1.3829762      1250.885       1376.3941      696.28335    
    496100   496100         302.40096      1818.6297     -385.89613     -1580.3118      2715.3167     -4295.6285      679.349        1933.4975     -2055.4322      15.037357     -1005.3049     -1616.8028     -2245.9725     -281.0123       45033.459      35.577746      35.577746      35.577746      1.3834802      1745.4566      1419.7035      2290.7291    
    496200   496200         302.31994      1222.4857     -778.25748     -1582.1189      2714.5892     -4296.7081      682.43343      1943.9899     -2042.1708      14.924946     -1027.7127     -1619.0213     -2249.1515     -280.67204      45088.053      35.592118      35.592118      35.592118      1.381805       829.78082      595.61631      2242.0601    
    496300   496300         301.53173      377.09417     -1380.1331     -1628.8372      2707.5117     -4336.3489      685.74856      1922.3622     -2045.2511      14.241003     -1045.6143     -1615.6233     -2252.2118     -279.83588      45222.778      35.627533      35.627533      35.627533      1.3776884      3248.9476     -1315.1558     -802.50938    
    496400   496400         297.79798      1178.7769     -894.77984     -1673.3888      2673.9857     -4347.3745      673.50004      1879.9919     -2050.9933      14.044583     -994.46557     -1618.4052     -2251.047      -279.41435      45291.001      35.64544       35.64544       35.64544       1.3756132      2313.5797      1750.9666     -528.21569    
    496500   496500         298.25765      346.32438     -1422.5741     -1652.0029      2678.1132     -4330.1161      671.3233       1928.4885     -2063.9247      15.175399     -1004.0715     -1623.1751     -2253.932      -278.59393      45424.377      35.680396      35.680396      35.680396      1.3715741      1629.2968     -1093.7328      503.40904    
    496600   496600         300.17291      133.4209      -1477.9636     -1566.4976      2695.3107     -4261.8083      673.42058      2012.5006     -2071.3511      15.409283     -1007.4487     -1629.1194     -2255.2195     -278.13149      45499.903      35.70016       35.70016       35.70016       1.3692974      972.12759     -13.978128     -557.88677    
    496700   496700         306.24342      1525.2918     -491.96554     -1505.7557      2749.819      -4255.5747      675.85289      1965.8271     -2069.4454      15.246876     -957.78004     -1630.5443     -2254.7317     -277.67794      45574.221      35.719586      35.719586      35.719586      1.3670645      1681.5408      1921.3148      973.01986    
    496800   496800         293.63853      521.9976      -1185.719      -1533.8732      2636.6372     -4170.5104      696.73026      2039.5323     -2059.7298      15.848109     -991.21078     -1619.3197     -2252.3608     -276.71542      45732.746      35.760954      35.760954      35.760954      1.3623258      222.34342      727.93313      615.71626    
    496900   496900         294.55277      1253.8307     -759.62845     -1595.969       2644.8463     -4240.8153      659.71309      2025.681      -2090.0782      15.93523      -976.67068     -1623.1778     -2252.2179     -276.68925      45737.071      35.762081      35.762081      35.762081      1.3621969      224.10704      1359.131       2178.2541    
    497000   497000         291.45967     -330.37587     -1851.926      -1631.5737      2617.0728     -4248.6465      722.51972      1907.2913     -2045.5944      14.184865     -978.66289     -1618.1949     -2250.1901     -276.71153      45733.388      35.761121      35.761121      35.761121      1.3623066     -96.629062      16.49321      -910.99177    
    497100   497100         295.99354     -601.90156     -2020.4934     -1619.6401      2657.7833     -4277.4234      708.78446      1942.6793     -2072.7294      15.572307     -998.55123     -1617.6422     -2255.5366     -277.12555      45665.063      35.743303      35.743303      35.743303      1.364345      -751.99526      597.89909     -1651.6085    
    497200   497200         306.03626     -322.23637     -1757.0213     -1543.3453      2747.9588     -4291.3041      725.5684       1923.999      -2058.6863      15.126861     -1017.325      -1623.2637     -2256.7233     -278.32695      45467.95       35.691801      35.691801      35.691801      1.3702597     -285.79058     -268.10966     -412.80886    
    497300   497300         309.14944      290.5147      -1316.7255     -1508.2888      2775.9126     -4284.2014      716.2266       1911.3848     -2052.0524      14.616987     -997.64599     -1623.3742     -2253.3572     -279.89322      45213.513      35.625099      35.625099      35.625099      1.3779707     -562.95683      316.04489      1118.4561    
    497400   497400         297.35396      550.81953     -1236.8687     -1599.4404      2669.9988     -4269.4392      687.76778      1957.7405     -2034.2889      15.891877     -1024.7666     -1620.3381     -2251.4457     -280.38315      45134.508      35.604337      35.604337      35.604337      1.3803828      1359.444       1047.5876     -754.57298    
    497500   497500         300.10495      2016.3001     -330.76843     -1656.599       2694.7004     -4351.2994      647.62404      1910.4896     -2054.288       15.675218     -991.60515     -1625.2275     -2253.9675     -280.67495      45087.586      35.591995      35.591995      35.591995      1.3818193      2729.4574      1587.585       1731.8579    
    497600   497600         295.72382      1173.0162     -866.04023     -1639.7941      2655.3614     -4295.1555      653.33896      1966.7909     -2046.1529      15.747324     -1010.5471     -1621.4682     -2252.8644     -279.79357      45229.615      35.629328      35.629328      35.629328      1.3774802      430.56474      943.76273      2144.7213    
    497700   497700         294.80565      948.48396     -990.66114     -1619.306       2647.117      -4266.423       684.17525      1979.3273     -2061.6801      15.005963     -1008.2501     -1624.1132     -2250.8881     -278.45893      45446.399      35.686161      35.686161      35.686161      1.3709094      1783.7457     -35.953569      1097.6597    
    497800   497800         295.92454     -633.58566     -1987.7032     -1566.1326      2657.1637     -4223.2962      730.91032      1933.1954     -2036.9386      15.062928     -998.27317     -1616.7444     -2250.5087     -277.37769      45623.553      35.73247       35.73247       35.73247       1.3655863     -918.56308     -387.53011     -594.66378    
    497900   497900         309.00521      360.26525     -1251.9331     -1491.7025      2774.6175     -4266.32        696.29293      1983.0863     -2049.5268      15.609787     -1031.5457     -1625.4159     -2254.8207     -277.30978      45634.726      35.735386      35.735386      35.735386      1.3652519     -196.91224      53.473177      1224.2348    
    498000   498000         295.35022      1614.2883     -450.86501     -1521.2637      2652.0068     -4173.2705      676.59017      2023.5506     -2065.7999      15.359026     -948.1884      -1622.225      -2252.557      -278.33771      45466.192      35.691341      35.691341      35.691341      1.3703126      1969.811       3849.7187     -976.66478    
    498100   498100         298.79755      1696.2521     -474.13454     -1596.6032      2682.961      -4279.5642      668.29658      1958.6586     -2045.0267      15.292148     -1003.5061     -1619.7033     -2253.5753     -278.90269      45374.09       35.667224      35.667224      35.667224      1.3730942      2515.9746      1015.4683      1557.3134    
    498200   498200         291.55894      1374.8021     -767.81486     -1678.996       2617.9641     -4296.9602      683.51661      1951.295      -2075.3437      15.306898     -994.40866     -1625.3782     -2251.9481     -278.46587      45445.266      35.685864      35.685864      35.685864      1.3709436      1794.3118      2500.9794     -170.88488    
    498300   498300         300.3627      -1154.2408     -2443.9611     -1676.3839      2697.0148     -4373.3986      690.38329      1896.2974     -2058.2458      14.529499     -1040.3501     -1622.739      -2253.2739     -277.53059      45598.418      35.725906      35.725906      35.725906      1.366339      -1123.6967     -1846.1941     -492.83168    
    498400   498400         299.74177     -84.248595     -1707.2339     -1651.2942      2691.4393     -4342.7335      691.08055      1893.204      -2054.5255      15.011457     -1007.5289     -1626.0555     -2253.9196     -277.9579       45528.318      35.70759       35.70759       35.70759       1.3684428     -1272.7677      245.73085      774.29101    
    498500   498500         300.62447      907.18655     -985.33101     -1585.5665      2699.3652     -4284.9317      677.56984      1940.8785     -2058.4961      14.394427     -980.34112     -1623.7206     -2255.2167     -278.94044      45367.949      35.665615      35.665615      35.665615      1.37328        652.09878     -134.27723      2203.7381    
    498600   498600         300.9626       566.02664     -1163.6973     -1537.8096      2702.4014     -4240.2109      707.46223      1956.1196     -2041.8926      13.941515     -1000.7895     -1622.3665     -2252.6857     -279.23603      45319.925      35.653026      35.653026      35.653026      1.3747352      1329.5225      1149.9231     -781.36569    
    498700   498700         301.85126      43.876854     -1536.5731     -1565.6226      2710.3808     -4276.0034      699.34224      1916.9047     -2033.0931      14.741983     -998.37505     -1623.2831     -2252.2411     -278.76224      45396.95       35.673213      35.673213      35.673213      1.3724027     -1152.8312      1221.8428      62.61893     
    498800   498800         297.83406      729.42235     -1164.7809     -1648.327       2674.3096     -4322.6367      661.51191      1949.6523     -2063.7291      15.445768     -1012.3937     -1620.7567     -2252.3671     -278.40545      45455.129      35.688446      35.688446      35.688446      1.3706461      1032.7828      490.87912      664.60517    
    498900   498900         295.83398      788.91569     -1128.0745     -1651.1453      2656.3506     -4307.4959      639.45438      1947.2401     -2042.9888      14.531239     -990.48053     -1622.5011     -2252.7511     -278.35989      45462.569      35.690393      35.690393      35.690393      1.3704218      1394.4229      507.69007      464.63408    
    499000   499000         292.55014      336.1697      -1396.7426     -1620.0214      2626.8643     -4246.8857      669.55751      1973.995      -2030.9121      15.08398      -1006.8472     -1615.8546     -2251.9082     -277.87387      45542.087      35.711189      35.711189      35.711189      1.3680291      273.3927      -320.75561      1055.872     
    499100   499100         303.62658     -876.18783     -2161.6798     -1579.0237      2726.3218     -4305.3455      701.44096      1941.6666     -2058.2185      14.564711     -1025.8804     -1624.4533     -2254.4656     -277.53734      45597.308      35.725617      35.725617      35.725617      1.3663723     -1128.3727     -294.53731     -1205.6534    
    499200   499200         300.46873      25.137735     -1537.3713     -1554.0633      2697.9669     -4252.0302      701.34886      1956.062      -2023.4184      14.965377     -1021.7457     -1626.9868     -2252.2554     -277.94215      45530.898      35.708264      35.708264      35.708264      1.3683652      840.6986      -328.31294     -436.97245    
    499300   499300         297.19772      315.37425     -1392.7731     -1601.7357      2668.5958     -4270.3315      670.45713      1978.4359     -2055.9875      14.120689     -999.96062     -1624.9713     -2252.4258     -278.54427      45432.476      35.682516      35.682516      35.682516      1.3713296     -774.50397     -745.65356      2466.2803    
    499400   499400         295.45192      360.0232      -1457.8671     -1695.8363      2652.9199     -4348.7563      650.30832      1943.3221     -2046.4744      14.820519     -1038.2354     -1619.5435     -2252.9539     -279.2198       45322.559      35.653716      35.653716      35.653716      1.3746554      538.74413     -715.66978      1256.9952    
    499500   499500         292.06418      2065.7489     -330.59501     -1691.5127      2622.5008     -4314.0135      644.97952      1950.74       -2055.2322      15.658705     -996.00069     -1619.0516     -2255.1072     -280.14456      45172.949      35.614442      35.614442      35.614442      1.3792081      2717.9586      1460.6428      2018.6454    
    499600   499600         297.00743      1871.7836     -392.2251      -1623.8241      2666.8872     -4290.7114      629.56925      2003.1617     -2061.2955      14.959902     -999.43751     -1623.5315     -2254.1377     -280.4935       45116.752      35.599667      35.599667      35.599667      1.3809261      2711.4938      183.46349      2720.3934    
    499700   499700         299.18431      1185.4877     -790.6461      -1572.3188      2686.4338     -4258.7526      673.49264      1983.1473     -2045.6604      16.133325     -1009.2482     -1620.6382     -2255.979      -279.90369      45211.821      35.624655      35.624655      35.624655      1.3780223      1267.69        1064.274       1224.4989    
    499800   499800         302.54574      444.83781     -1277.5734     -1571.5971      2716.6167     -4288.2138      685.06691      1961.1074     -2062.0564      14.652734     -1006.802      -1622.7138     -2257.4687     -279.22599      45321.553      35.653453      35.653453      35.653453      1.3746858      1195.0628     -333.38543      472.83607    
    499900   499900         295.69258     -151.23747     -1719.366      -1619.1769      2655.0809     -4274.2578      729.13256      1915.6688     -2069.2844      14.188097     -984.29307     -1624.6604     -2255.0094     -278.59638      45423.977      35.680291      35.680291      35.680291      1.3715861     -1016.9845      742.07282     -178.80072    
    500000   500000         294.78808      118.8518      -1562.6676     -1641.4508      2646.9592     -4288.41        703.14623      1930.5068     -2054.9959      14.745417     -1008.1        -1621.338      -2252.3746     -278.42544      45451.866      35.687592      35.687592      35.687592      1.3707445      730.0181       344.36885     -717.83154    
Loop time of 1048.82 on 1 procs for 500000 steps with 3620 atoms

Performance: 41.189 ns/day, 0.583 hours/ns, 476.724 timesteps/s, 1.726 Matom-step/s
100.0% CPU use with 1 MPI tasks x 1 OpenMP threads

MPI task timing breakdown:
Section |  min time  |  avg time  |  max time  |%varavg| %total
---------------------------------------------------------------
Pair    | 66.062     | 66.062     | 66.062     |   0.0 |  6.30
Bond    | 113.6      | 113.6      | 113.6      |   0.0 | 10.83
Kspace  | 486.32     | 486.32     | 486.32     |   0.0 | 46.37
Neigh   | 39.7       | 39.7       | 39.7       |   0.0 |  3.79
Comm    | 11.311     | 11.311     | 11.311     |   0.0 |  1.08
Output  | 3.4909     | 3.4909     | 3.4909     |   0.0 |  0.33
Modify  | 298.58     | 298.58     | 298.58     |   0.0 | 28.47
Other   |            | 29.75      |            |       |  2.84

Nlocal:           3620 ave        3620 max        3620 min
Histogram: 1 0 0 0 0 0 0 0 0 0
Nghost:          12593 ave       12593 max       12593 min
Histogram: 1 0 0 0 0 0 0 0 0 0
Neighs:              0 ave           0 max           0 min
Histogram: 1 0 0 0 0 0 0 0 0 0
FullNghs:  1.82813e+06 ave 1.82813e+06 max 1.82813e+06 min
Histogram: 1 0 0 0 0 0 0 0 0 0

Total # of neighbors = 1828132
Ave neighs/atom = 505.00884
Ave special neighs/atom = 5.9723757
Neighbor list builds = 11562
Dangerous builds = 0

# --- Cleanup ---
unfix npt_fix
unfix shake_fix
undump dump_npt

# --- Write Output ---
write_dump all custom /home/alexzhao/PolyJarvis/data/PVC2/lammps/mechanical/bm_series/bm_P500/bm_P500_last.dump id type mol x y z xu yu zu vx vy vz modify sort id
write_data /home/alexzhao/PolyJarvis/data/PVC2/lammps/mechanical/bm_series/bm_P500/bm_P500_out.data
System init for write_data ...
PPPM Kokkos initialization ...
  using 12-bit tables for long-range coulomb
  G vector (1/distance) = 0.29581062
  grid = 24 24 24
  stencil order = 5
  estimated absolute RMS force accuracy = 0.00037101001
  estimated relative force accuracy = 1.1172856e-06
  using double precision cuFFT
  3d grid and FFT values/proc = 29791 13824
Generated 6 of 6 mixed pair_coeff terms from sixthpower/sixthpower mixing rule

print "STAGE COMPLETE: NPT T=300.0->300.0K P=500.0->500.0atm steps=500000"
STAGE COMPLETE: NPT T=300.0->300.0K P=500.0->500.0atm steps=500000
quit
