units real
atom_style full
boundary p p p

# --- Force Field Styles ---
pair_style lj/cut 14.0
dielectric 1.000000
bond_style harmonic
angle_style harmonic
dihedral_style multi/harmonic
improper_style none
special_bonds lj 0 0 0
pair_modify mix arithmetic tail yes
neighbor 2.0 bin
neigh_modify delay 0 every 1 check yes
neigh_modify one 4000
package gpu 1 neigh yes

read_data /home/arz2/PolyJarvis/data/cis-PBD3/lammps/cell.data
Reading data file ...
  orthogonal box = (0 0 0) to (68.178378 68.178378 68.178378)
  1 by 1 by 1 MPI processor grid
  reading atoms ...
  8040 atoms
  scanning bonds ...
  2 = max bonds/atom
  scanning angles ...
  1 = max angles/atom
  scanning dihedrals ...
  2 = max dihedrals/atom
  orthogonal box = (0 0 0) to (68.178378 68.178378 68.178378)
  1 by 1 by 1 MPI processor grid
  reading bonds ...
  8020 bonds
  reading angles ...
  8000 angles
  reading dihedrals ...
  7980 dihedrals
Finding 1-2 1-3 1-4 neighbors ...
  special bond factors lj:    0        0        0       
  special bond factors coul:  0        0        0       
     2 = max # of 1-2 neighbors
     2 = max # of 1-3 neighbors
     4 = max # of 1-4 neighbors
     6 = max # of special neighbors
  special bonds CPU = 0.002 seconds
  read_data CPU = 0.100 seconds
include /home/arz2/PolyJarvis/data/cis-PBD3/lammps/cell/emc_build.params
# LAMMPS parameters created by EMC v9.4.4, build Jul 31 2025 20:33:44

# Variables

variable	seed		index	986450
variable	ntotal		index	8040
variable	fshape		index	1
variable	output		index	emc_build
variable	field		index	trappe/2014/trappe-ua
variable	location1	index	/home/arz2/emc/field/
variable	nav		index	0.6022141179
variable	temperature	index	300
variable	radius		index	5
variable	nrelax		index	100
variable	weight_nonbond	index	0.0001
variable	weight_bond	index	0.0001
variable	weight_focus	index	1
variable	cutoff		index	14
variable	charge_cutoff	index	14
variable	kappa		index	4
variable	density1	index	0.57
variable	lprevious	index	0
variable	lphase		index	68.1783775471
variable	f_poly		index	20
variable	chem_repeat	index	*C/C=C\C*
variable	chem_cap	index	*C
variable	lg_repeat	index	4
variable	lg_cap		index	1
variable	norm_poly	index	100
variable	l_poly		index	402
variable	mg_repeat	index	54.0914
variable	mg_cap		index	15.0347
variable	m_poly		index	5439.2094
variable	n_poly		index	20
variable	mtotal		index	108784.188
variable	nphase1		index	8040
variable	mphase1		index	108784.188
variable	vphase1		index	316912.949994
variable	lbox		index	68.1783775471
variable	lphase1		index	68.1783775471
variable	lxx		index	68.1783775471
variable	lyy		index	68.1783775471
variable	lzz		index	68.1783775471
variable	lzy		index	0
variable	lzx		index	0
variable	lyx		index	0
variable	vtotal		index	316912.949994
variable	nl_poly		index	20

# Types

variable	type_c3h	index	1
variable	type_c4h2	index	2
variable	type_c4h3	index	3

variable	type_bond_c3h_c3h index	1
variable	type_bond_c3h_c4h2 index	2
variable	type_bond_c4h2_c4h2 index	3
variable	type_bond_c4h2_c4h3 index	4

variable	type_angle_c3h_c3h_c4h2 index	1
variable	type_angle_c3h_c4h2_c4h2 index	2
variable	type_angle_c3h_c4h2_c4h3 index	3

# Clusters

variable	n0_poly		index	1
variable	n1_poly		index	20
variable	nl_poly		index	20

# Flags

variable	flag_charged	index	0

# Masses

mass		1    13.01890  # c3h
mass		2    14.02680  # c4h2
mass		3    15.03470  # c4h3

# Potentials

pair_modify	mix arithmetic tail yes
special_bonds	lj 0 0 0 coul 0 0 0.5
Finding 1-2 1-3 1-4 neighbors ...
  special bond factors lj:    0        0        0       
  special bond factors coul:  0        0        0.5     
     2 = max # of 1-2 neighbors
     2 = max # of 1-3 neighbors
     4 = max # of 1-4 neighbors
     6 = max # of special neighbors
  special bonds CPU = 0.002 seconds

# Pair Coeffs

pair_coeff	1 1    0.09340    3.71000  # c3h,c3h
pair_coeff	2 2    0.09141    3.95000  # c4h2,c4h2
pair_coeff	3 3    0.19475    3.75000  # c4h3,c4h3

# Bond Coeffs

bond_coeff	1  529.99987    1.33000  # c3h,c3h
bond_coeff	2  260.00013    1.54000  # c3h,c4h2
bond_coeff	3  260.00013    1.54000  # c4h2,c4h2
bond_coeff	4  260.00013    1.54000  # c4h2,c4h3

# Angle Coeffs

angle_coeff	1   69.96954  119.70000  # c3h,c3h,c4h2
angle_coeff	2   62.10020  114.00000  # c3h,c4h2,c4h2
angle_coeff	3   62.10020  114.00000  # c3h,c4h2,c4h3

# Dihedral Coeffs

dihedral_coeff	1    1.91086    1.85422    0.43627   -2.24348    0.00000  # c3h,c3h,c4h2,c4h2
dihedral_coeff	2    1.91086    1.85422    0.43627   -2.24348    0.00000  # c3h,c3h,c4h2,c4h3
dihedral_coeff	3    2.00702   -4.01203    0.27102    6.29006    0.00000  # c3h,c4h2,c4h2,c3h
dihedral_coeff	4   25.63496    0.99360  -25.63496   -0.99360    0.00000  # c4h2,c3h,c3h,c4h2


# --- Thermo Output ---
thermo_style custom step time temp press etotal pe ebond eangle edihed eimp evdwl ecoul elong vol lx ly lz density
thermo_modify flush yes
thermo 500

# --- Trajectory ---
dump dump_min all custom 1000 minimize.dump id type mol x y z ix iy iz

# --- Minimization ---
min_style cg
minimize 1e-06 1e-06 50000 100000

CITE-CITE-CITE-CITE-CITE-CITE-CITE-CITE-CITE-CITE-CITE-CITE-CITE

Your simulation uses code contributions which should be cited:

- GPU package (short-range, long-range and three-body potentials): doi:10.1016/j.cpc.2010.12.021, doi:10.1016/j.cpc.2011.10.012, doi:10.1016/j.cpc.2013.08.002, doi:10.1016/j.commatsci.2014.10.068, doi:10.1016/j.cpc.2016.10.020, doi:10.3233/APC200086

@Article{Brown11,
 author = {W. M. Brown and P. Wang and S. J. Plimpton and A. N. Tharrington},
 title = {Implementing Molecular Dynamics on Hybrid High Performance Computers---Short Range Forces},
 journal = {Comput.\ Phys.\ Commun.},
 year =    2011,
 volume =  182,
 pages =   {898--911},
 doi =     {10.1016/j.cpc.2010.12.021}
}

@Article{Brown12,
 author = {W. M. Brown and A. Kohlmeyer and S. J. Plimpton and A. N. Tharrington},
 title = {Implementing Molecular Dynamics on Hybrid High Performance Computers - Particle-Particle Particle-Mesh},
 journal = {Comput.\ Phys.\ Commun.},
 year =    2012,
 volume =  183,
 doi =     {10.1016/j.cpc.2011.10.012},
 pages =   {449--459}
}

@Article{Brown13,
 author = {W. M. Brown and Y. Masako},
 title = {Implementing Molecular Dynamics on Hybrid High Performance Computers---Three-Body Potentials},
 journal = {Comput.\ Phys.\ Commun.},
 year =    2013,
 volume =  184,
 pages =   {2785--2793},
 doi =     {10.1016/j.cpc.2013.08.002},
}

@Article{Trung15,
 author = {T. D. Nguyen and S. J. Plimpton},
 title = {Accelerating Dissipative Particle Dynamics Simulations for Soft Matter Systems},
 journal = {Comput.\ Mater.\ Sci.},
 year =    2015,
 doi =     {10.1016/j.commatsci.2014.10.068},
 volume =  100,
 pages =   {173--180}
}

@Article{Trung17,
 author = {T. D. Nguyen},
 title = {{GPU}-Accelerated {T}ersoff Potentials for Massively Parallel
    Molecular Dynamics Simulations},
 journal = {Comput.\ Phys.\ Commun.},
 year =    2017,
 doi =     {10.1016/j.cpc.2016.10.020},
 volume =  212,
 pages =   {113--122}
}

@inproceedings{Nikolskiy19,
 author = {V. Nikolskiy and V. Stegailov},
 title = {{GPU} Acceleration of Four-Site Water Models in {LAMMPS}},
 booktitle = {Proceedings of the International Conference on Parallel
    Computing (ParCo 2019), Prague, Czech Republic},
 doi =     {10.3233/APC200086},
 year =    2019
}

CITE-CITE-CITE-CITE-CITE-CITE-CITE-CITE-CITE-CITE-CITE-CITE-CITE

Generated 3 of 3 mixed pair_coeff terms from arithmetic mixing rule
Per MPI rank memory allocation (min/avg/max) = 17.44 | 17.44 | 17.44 Mbytes
   Step          Time           Temp          Press          TotEng         PotEng         E_bond        E_angle        E_dihed        E_impro         E_vdwl         E_coul         E_long         Volume           Lx             Ly             Lz          Density    
         0   0              0              10900.498      21168.718      21168.718      3172.3232      5662.3423      10898.331      0              1435.7216      0              0              316912.95      68.178378      68.178378      68.178378      0.56999999   
       500   500            0             -551.34049      18.242858      18.242858      6.9588178      146.236        7126.8396      0             -7261.7915      0              0              316912.95      68.178378      68.178378      68.178378      0.56999999   
      1000   1000           0             -535.80583     -372.29713     -372.29713      6.781716       142.80904      7083.1655      0             -7605.0534      0              0              316912.95      68.178378      68.178378      68.178378      0.56999999   
      1500   1500           0             -519.2949      -556.49123     -556.49123      6.6835341      134.85852      7057.5959      0             -7755.6292      0              0              316912.95      68.178378      68.178378      68.178378      0.56999999   
      2000   2000           0             -501.28141     -652.81553     -652.81553      6.6933435      134.54056      7047.5304      0             -7841.5799      0              0              316912.95      68.178378      68.178378      68.178378      0.56999999   
      2500   2500           0             -504.78786     -714.56454     -714.56454      6.6833489      132.76046      7042.0656      0             -7896.074       0              0              316912.95      68.178378      68.178378      68.178378      0.56999999   
      3000   3000           0             -505.99387     -764.33657     -764.33657      6.787413       129.77945      7034.0281      0             -7934.9315      0              0              316912.95      68.178378      68.178378      68.178378      0.56999999   
      3500   3500           0             -507.92299     -820.71215     -820.71215      6.8192552      129.88937      7030.953       0             -7988.3738      0              0              316912.95      68.178378      68.178378      68.178378      0.56999999   
      4000   4000           0             -502.43714     -863.07375     -863.07375      6.9016543      131.89008      7025.8588      0             -8027.7243      0              0              316912.95      68.178378      68.178378      68.178378      0.56999999   
      4500   4500           0             -484.63885     -891.22057     -891.22057      6.9994396      130.87244      7021.6173      0             -8050.7098      0              0              316912.95      68.178378      68.178378      68.178378      0.56999999   
      5000   5000           0             -477.29898     -916.75976     -916.75976      6.998653       127.79282      7019.5843      0             -8071.1355      0              0              316912.95      68.178378      68.178378      68.178378      0.56999999   
      5500   5500           0             -484.66214     -952.65875     -952.65875      6.9596772      128.97835      7018.098       0             -8106.6948      0              0              316912.95      68.178378      68.178378      68.178378      0.56999999   
      6000   6000           0             -471.35526     -971.0455      -971.0455       7.071839       128.46039      7021.3052      0             -8127.8829      0              0              316912.95      68.178378      68.178378      68.178378      0.56999999   
      6500   6500           0             -486.08342     -999.52184     -999.52184      6.9174628      128.65633      7010.0592      0             -8145.1548      0              0              316912.95      68.178378      68.178378      68.178378      0.56999999   
      7000   7000           0             -491.14567     -1007.7012     -1007.7012      6.9078539      128.28527      7007.2687      0             -8150.163       0              0              316912.95      68.178378      68.178378      68.178378      0.56999999   
      7500   7500           0             -487.06811     -1014.3139     -1014.3139      6.9256705      127.3929       7003.569       0             -8152.2015      0              0              316912.95      68.178378      68.178378      68.178378      0.56999999   
      8000   8000           0             -486.37665     -1027.9005     -1027.9005      7.0893939      127.36215      7012.1795      0             -8174.5315      0              0              316912.95      68.178378      68.178378      68.178378      0.56999999   
      8500   8500           0             -498.74504     -1048.7446     -1048.7446      6.9683542      126.87373      7001.9316      0             -8184.5183      0              0              316912.95      68.178378      68.178378      68.178378      0.56999999   
      9000   9000           0             -496.18114     -1058.3701     -1058.3701      6.9572027      126.52744      7001.5764      0             -8193.4312      0              0              316912.95      68.178378      68.178378      68.178378      0.56999999   
      9500   9500           0             -488.99431     -1067.8282     -1067.8282      6.9997652      126.27979      6994.7882      0             -8195.8959      0              0              316912.95      68.178378      68.178378      68.178378      0.56999999   
      9983   9983           0             -488.85778     -1072.4384     -1072.4384      6.9982073      126.78965      6993.2846      0             -8199.5108      0              0              316912.95      68.178378      68.178378      68.178378      0.56999999   
Loop time of 29.424 on 1 procs for 9983 steps with 8040 atoms

99.8% CPU use with 1 MPI tasks x 1 OpenMP threads

Minimization stats:
  Stopping criterion = energy tolerance
  Energy initial, next-to-last, final = 
      21168.7181625017  -1072.43752068515  -1072.43841164773
  Force two-norm initial, final = 3045.5485 2.6813729
  Force max component initial, final = 108.61918 1.0440347
  Final line search alpha, max atom move = 0.062848649 0.065616172
  Iterations, force evaluations = 9983 19946

MPI task timing breakdown:
Section |  min time  |  avg time  |  max time  |%varavg| %total
---------------------------------------------------------------
Pair    | 2.1234     | 2.1234     | 2.1234     |   0.0 |  7.22
Bond    | 22.136     | 22.136     | 22.136     |   0.0 | 75.23
Neigh   | 0.16966    | 0.16966    | 0.16966    |   0.0 |  0.58
Comm    | 1.5786     | 1.5786     | 1.5786     |   0.0 |  5.36
Output  | 0.10253    | 0.10253    | 0.10253    |   0.0 |  0.35
Modify  | 0.0011982  | 0.0011982  | 0.0011982  |   0.0 |  0.00
Other   |            | 3.313      |            |       | 11.26

Nlocal:           8040 ave        8040 max        8040 min
Histogram: 1 0 0 0 0 0 0 0 0 0
Nghost:          17856 ave       17856 max       17856 min
Histogram: 1 0 0 0 0 0 0 0 0 0
Neighs:              0 ave           0 max           0 min
Histogram: 1 0 0 0 0 0 0 0 0 0

Total # of neighbors = 0
Ave neighs/atom = 0
Ave special neighs/atom = 5.9701493
Neighbor list builds = 118
Dangerous builds = 0

undump dump_min
reset_timestep 0

# --- Write Output ---
write_dump all custom minimize_last.dump id type mol x y z xu yu zu vx vy vz modify sort id
write_data /home/arz2/PolyJarvis/data/cis-PBD3/lammps/minimize/minimize_out.data
System init for write_data ...
Generated 3 of 3 mixed pair_coeff terms from arithmetic mixing rule

print "STAGE COMPLETE: minimization"
STAGE COMPLETE: minimization
quit
search alpha, max atom move = 0.062848649 0.065616172
  Iterations, force evaluations = 9983 19946

MPI task timing breakdown:
Section |  min time  |  avg time  |  max time  |%varavg| %total
---------------------------------------------------------------
Pair    | 2.1234     | 2.1234     | 2.1234     |   0.0 |  7.22
Bond    | 22.136     | 22.136     | 22.136     |   0.0 | 75.23
Neigh   | 0.16966    | 0.16966    | 0.16966    |   0.0 |  0.58
Comm    | 1.5786     | 1.5786     | 1.5786     |   0.0 |  5.36
Output  | 0.10253    | 0.10253    | 0.10253    |   0.0 |  0.35
Modify  | 0.0011982  | 0.0011982  | 0.0011982  |   0.0 |  0.00
Other   |            | 3.313      |            |       | 11.26

Nlocal:           8040 ave        8040 max        8040 min
Histogram: 1 0 0 0 0 0 0 0 0 0
Nghost:          17856 ave       17856 max       17856 min
Histogram: 1 0 0 0 0 0 0 0 0 0
Neighs:              0 ave           0 max           0 min
Histogram: 1 0 0 0 0 0 0 0 0 0

Total # of neighbors = 0
Ave neighs/atom = 0
Ave special neighs/atom = 5.9701493
Neighbor list builds = 118
Dangerous builds = 0
System init for write_data ...


---------------------------------------------------------------------
      Device Time Info (average): 
---------------------------------------------------------------------
Data Transfer:   1.8545 s.
Neighbor copy:   0.0183 s.
Neighbor build:  0.0685 s.
Force calc:      5.6685 s.
Device Overhead: 0.6446 s.
CPU Neighbor:    0.0258 s.
CPU Cast/Pack:   1.3953 s.
CPU Driver_Time: 0.2765 s.
CPU Idle_Time:   0.0342 s.
Average split:   1.0000.
Max Mem / Proc:  76.90 MB.
Prefetch mode:   None.
Vector width:    32.
Lanes / atom:    4.
Pair block:      256.
Neigh block:     128.
Neigh mode:      Hybrid (binning on host) with subgroup support.
Neigh sorting:   Unavailable or disabled.
---------------------------------------------------------------------


--------------------------------------------------------------------------
- Using acceleration for lj/cut:
-  with 1 proc(s) per device.
-  with 1 thread(s) per proc.
-  Horizontal vector operations: ENABLED
-  Shared memory system: No
--------------------------------------------------------------------------
Device 0: Quadro RTX 6000, 72 CUs, 23/24 GB, 1.8 GHZ (Mixed Precision)
--------------------------------------------------------------------------

Initializing Device and compiling on process 0...Done.
Initializing Device 0 on core 0...Done.

Generated 3 of 3 mixed pair_coeff terms from arithmetic mixing rule
STAGE COMPLETE: minimization
Cuda driver error 4 in call at file '/home/arz2/lammps/lib/gpu/geryon/nvd_timer.h' in line 98.
Cuda driver error 4 in call at file '/home/arz2/lammps/lib/gpu/geryon/nvd_timer.h' in line 99.
Cuda driver error 4 in call at file '/home/arz2/lammps/lib/gpu/geryon/nvd_timer.h' in line 98.
Cuda driver error 4 in call at file '/home/arz2/lammps/lib/gpu/geryon/nvd_timer.h' in line 99.
Cuda driver error 4 in call at file '/home/arz2/lammps/lib/gpu/geryon/nvd_timer.h' in line 98.
Cuda driver error 4 in call at file '/home/arz2/lammps/lib/gpu/geryon/nvd_timer.h' in line 99.
