units real
atom_style full
boundary p p p

# --- Force Field Styles ---
pair_style lj/cut 14.0
dielectric 1.000000
bond_style harmonic
angle_style harmonic
dihedral_style multi/harmonic
improper_style none
special_bonds lj 0 0 0
pair_modify mix arithmetic tail yes
neighbor 2.0 bin
neigh_modify delay 0 every 1 check yes
neigh_modify one 4000
package gpu 1 neigh yes

read_data /home/arz2/PolyJarvis/data/cis-PBD3/lammps/npt_production/npt_production_out.data
Reading data file ...
  orthogonal box = (4.7324763 4.7324763 4.7324763) to (63.445901 63.445901 63.445901)
  1 by 1 by 1 MPI processor grid
  reading atoms ...
  8040 atoms
  reading velocities ...
  8040 velocities
  scanning bonds ...
  2 = max bonds/atom
  scanning angles ...
  1 = max angles/atom
  scanning dihedrals ...
  2 = max dihedrals/atom
  orthogonal box = (4.7324763 4.7324763 4.7324763) to (63.445901 63.445901 63.445901)
  1 by 1 by 1 MPI processor grid
  reading bonds ...
  8020 bonds
  reading angles ...
  8000 angles
  reading dihedrals ...
  7980 dihedrals
Finding 1-2 1-3 1-4 neighbors ...
  special bond factors lj:    0        0        0       
  special bond factors coul:  0        0        0       
     2 = max # of 1-2 neighbors
     2 = max # of 1-3 neighbors
     4 = max # of 1-4 neighbors
     6 = max # of special neighbors
  special bonds CPU = 0.005 seconds
  read_data CPU = 0.232 seconds


# --- Thermo Output ---
thermo_style custom step time temp press enthalpy etotal ke pe ebond eangle edihed eimp evdwl ecoul elong etail vol lx ly lz density pxx pyy pzz
thermo_modify flush yes
thermo 100

# --- Trajectory ---
dump dump_npt all custom 1000 /home/arz2/PolyJarvis/data/cis-PBD3/lammps/mechanical/bm_series/bm_P100/bm_P100.dump id type mol x y z ix iy iz vx vy vz

# --- Restart Checkpointing ---
restart 10000 npt_1.rst npt_2.rst

# --- Initial Velocities (optional) ---
# Velocities read from data file

# --- SHAKE Constraints ---
# SHAKE disabled (TraPPE-UA united-atom)

# --- NPT Thermostat + Barostat (Nose-Hoover) ---
# T_damp = 100.0 fs  (heat bath coupling)
# P_damp = 1000.0 fs  (pressure bath coupling, ~10x T_damp typical)
# Ramp: T=300.0->300.0K  P=100.0->100.0atm
timestep 2.0
fix npt_fix all npt temp 300.0 300.0 100.0 iso 100.0 100.0 1000.0

run 500000

CITE-CITE-CITE-CITE-CITE-CITE-CITE-CITE-CITE-CITE-CITE-CITE-CITE

Your simulation uses code contributions which should be cited:

- GPU package (short-range, long-range and three-body potentials): doi:10.1016/j.cpc.2010.12.021, doi:10.1016/j.cpc.2011.10.012, doi:10.1016/j.cpc.2013.08.002, doi:10.1016/j.commatsci.2014.10.068, doi:10.1016/j.cpc.2016.10.020, doi:10.3233/APC200086

@Article{Brown11,
 author = {W. M. Brown and P. Wang and S. J. Plimpton and A. N. Tharrington},
 title = {Implementing Molecular Dynamics on Hybrid High Performance Computers---Short Range Forces},
 journal = {Comput.\ Phys.\ Commun.},
 year =    2011,
 volume =  182,
 pages =   {898--911},
 doi =     {10.1016/j.cpc.2010.12.021}
}

@Article{Brown12,
 author = {W. M. Brown and A. Kohlmeyer and S. J. Plimpton and A. N. Tharrington},
 title = {Implementing Molecular Dynamics on Hybrid High Performance Computers - Particle-Particle Particle-Mesh},
 journal = {Comput.\ Phys.\ Commun.},
 year =    2012,
 volume =  183,
 doi =     {10.1016/j.cpc.2011.10.012},
 pages =   {449--459}
}

@Article{Brown13,
 author = {W. M. Brown and Y. Masako},
 title = {Implementing Molecular Dynamics on Hybrid High Performance Computers---Three-Body Potentials},
 journal = {Comput.\ Phys.\ Commun.},
 year =    2013,
 volume =  184,
 pages =   {2785--2793},
 doi =     {10.1016/j.cpc.2013.08.002},
}

@Article{Trung15,
 author = {T. D. Nguyen and S. J. Plimpton},
 title = {Accelerating Dissipative Particle Dynamics Simulations for Soft Matter Systems},
 journal = {Comput.\ Mater.\ Sci.},
 year =    2015,
 doi =     {10.1016/j.commatsci.2014.10.068},
 volume =  100,
 pages =   {173--180}
}

@Article{Trung17,
 author = {T. D. Nguyen},
 title = {{GPU}-Accelerated {T}ersoff Potentials for Massively Parallel
    Molecular Dynamics Simulations},
 journal = {Comput.\ Phys.\ Commun.},
 year =    2017,
 doi =     {10.1016/j.cpc.2016.10.020},
 volume =  212,
 pages =   {113--122}
}

@inproceedings{Nikolskiy19,
 author = {V. Nikolskiy and V. Stegailov},
 title = {{GPU} Acceleration of Four-Site Water Models in {LAMMPS}},
 booktitle = {Proceedings of the International Conference on Parallel
    Computing (ParCo 2019), Prague, Czech Republic},
 doi =     {10.3233/APC200086},
 year =    2019
}

CITE-CITE-CITE-CITE-CITE-CITE-CITE-CITE-CITE-CITE-CITE-CITE-CITE

Generated 3 of 3 mixed pair_coeff terms from arithmetic mixing rule
Per MPI rank memory allocation (min/avg/max) = 15.7 | 15.7 | 15.7 Mbytes
   Step          Time           Temp          Press         Enthalpy        TotEng         KinEng         PotEng         E_bond        E_angle        E_dihed        E_impro         E_vdwl         E_coul         E_long         E_tail         Volume           Lx             Ly             Lz          Density          Pxx            Pyy            Pzz      
         0   0              300.73864     -65.61581       11434.225      11627.91       7206.5194      4421.3907      2425.9714      2393.5505      8694.9928      0             -9093.124       0              0             -287.1762       202400.81      58.713425      58.713425      58.713425      0.89248842     54.881234      44.347587     -296.07625    
       100   200            303.40222     -104.38042      11507.615      11814.93       7270.346       4544.5838      2463.513       2379.6444      8712.8674      0             -9011.441       0              0             -287.92039      201877.66      58.662795      58.662795      58.662795      0.89480123     304.34962     -284.17357     -333.3173     
       200   400            300.78308      436.60252      13037.335      11752.707      7207.5843      4545.1223      2453.2962      2415.3825      8722.7558      0             -9046.3122      0              0             -288.10138      201750.84      58.650508      58.650508      58.650508      0.89536372     675.96526      142.23389      491.60839    
       300   600            298.38352      785.05091      13951.95       11646.018      7150.0844      4495.9336      2424.1006      2449.2928      8696.3302      0             -9073.79        0              0             -288.59445      201406.14      58.617087      58.617087      58.617087      0.89689608     746.52388      786.36846      822.26039    
       400   800            293.30007     -344.12306      10543.824      11558.109      7028.2711      4529.8383      2406.765       2453.3311      8689.3989      0             -9019.6568      0              0             -287.60086      202101.95      58.684512      58.684512      58.684512      0.8938082     -345.8055      -435.20851     -251.35516    
       500   1000           302.67271     -272.09352      10904.66       11706.466      7252.8649      4453.6013      2389.6047      2393.58        8705.3991      0             -9034.9826      0              0             -287.66376      202057.76      58.680235      58.680235      58.680235      0.89400367    -627.30958     -331.64512      142.67415    
       600   1200           304.52393      3.2763772      11698.235      11688.6        7297.2253      4391.3745      2386.155       2353.2076      8683.7358      0             -9031.7239      0              0             -288.25245      201645.1       58.64026       58.64026       58.64026       0.89583322    -56.719325      376.75334     -310.20489    
       700   1400           294.18786      154.57939      11985.509      11530.413      7049.5449      4480.8684      2423.5979      2293.24        8782.2439      0             -9018.2133      0              0             -287.92931      201871.4       58.662189      58.662189      58.662189      0.89482896    -90.362556      316.09286      238.00787    
       800   1600           299.51141     -334.23518      10716.879      11699.268      7177.1117      4522.1561      2456.2583      2377.7168      8723.4357      0             -9035.2547      0              0             -288.40657      201537.34      58.629813      58.629813      58.629813      0.89631219    -387.8638      -257.31696     -357.52479    
       900   1800           302.3735       548.04857      13407.522      11805.306      7245.6952      4559.6106      2419.5548      2474.4842      8745.4658      0             -9079.8942      0              0             -289.9576       200459.29      58.525087      58.525087      58.525087      0.90113247     199.23188      1437.4094      7.5044436    
      1000   2000           303.68585      231.59142      12430.365      11750.503      7277.1426      4473.3605      2409.6647      2407.3419      8734.6149      0             -9078.2609      0              0             -288.76088      201290.06      58.605824      58.605824      58.605824      0.8974133      304.45289      51.780646      338.54072    
      1100   2200           299.84977      526.88119      13188.435      11639.77       7185.2198      4454.5498      2418.7099      2441.2672      8656.1508      0             -9061.5781      0              0             -288.39757      201543.63      58.630423      58.630423      58.630423      0.89628422     344.35017      502.06878      734.22462    
      1200   2400           301.12432      344.7577       12806.788      11794.537      7215.7614      4578.7757      2420.4696      2432.3205      8782.9037      0             -9056.9181      0              0             -288.71031      201325.32      58.609246      58.609246      58.609246      0.89725614     248.11359      408.60257      377.55693    
      1300   2600           301.52213     -79.276541      11495.729      11728.76       7225.294       4503.4659      2436.5712      2386.2063      8759.307       0             -9078.6186      0              0             -288.38148      201554.88      58.631514      58.631514      58.631514      0.89623421     100.99622     -185.4432      -153.38264    
      1400   2800           296.40979     -276.12164      10768.336      11580.543      7102.7885      4477.7547      2408.8571      2366.3668      8745.5883      0             -9043.0575      0              0             -288.18439      201692.72      58.644877      58.644877      58.644877      0.89562169    -420.11028     -201.16644     -207.0882     
      1500   3000           300.63589     -71.546668      11608.897      11819.447      7204.0572      4615.3895      2467.3791      2440.4162      8768.5726      0             -9060.9784      0              0             -288.05231      201785.21      58.653839      58.653839      58.653839      0.89521121     77.111448     -232.56597     -59.185486    
      1600   3200           296.38166     -169.26393      11121.424      11618.645      7102.1142      4516.5308      2436.3698      2373.4582      8753.0458      0             -9046.3431      0              0             -288.57028      201423.01      58.618724      58.618724      58.618724      0.89682095    -156.1478      -333.22733     -18.41665     
      1700   3400           300.29842      25.649324      11786.506      11711.314      7195.9705      4515.3435      2428.9448      2458.3537      8718.8853      0             -9090.8402      0              0             -289.16112      201011.44      58.578772      58.578772      58.578772      0.89865719    -93.435804     -17.514477      187.89825    
      1800   3600           301.9326       628.09193      13567.162      11729.573      7235.1299      4494.4432      2465.2798      2408.406       8698.0971      0             -9077.3397      0              0             -289.74199      200608.46      58.5396        58.5396        58.5396        0.9004624      1017.1858     -30.064652      897.15463    
      1900   3800           296.86331      91.291328      11795.574      11527.163      7113.656       4413.5075      2399.8173      2369.4794      8690.695       0             -9046.4842      0              0             -288.31454      201601.68      58.636051      58.636051      58.636051      0.89602615    -9.9126791      315.33681     -31.550146    
      2000   4000           303.70394     -716.02769      9602.9904      11716.577      7277.5762      4439.0006      2446.7041      2322.4256      8714.8976      0             -9045.0267      0              0             -287.17484      202401.77      58.713518      58.713518      58.713518      0.89248419    -332.96804     -1021.0034     -794.11163    
      2100   4200           298.80182      408.86954      12865.468      11662.235      7160.108       4502.127       2405.0048      2457.0588      8691.7685      0             -9051.7051      0              0             -288.05235      201785.18      58.653836      58.653836      58.653836      0.89521132     197.91345      728.21598      300.47919    
      2200   4400           297.39913      297.47829      12378.583      11506.038      7126.4956      4379.5426      2343.4577      2376.294       8708.0094      0             -9048.2184      0              0             -289.00411      201120.65      58.589378      58.589378      58.589378      0.89816923     125.68694     -349.17916      1115.9271    
      2300   4600           300.56604      310.60376      12603.576      11695.011      7202.3834      4492.6281      2411.2733      2439.9793      8756.0924      0             -9114.7169      0              0             -289.79276      200573.32      58.536181      58.536181      58.536181      0.90062019     398.83104      396.1287       136.85154    
      2400   4800           300.56024      201.98623      12236.101      11645.443      7202.2444      4443.1987      2366.5947      2455.0074      8718.1421      0             -9096.5455      0              0             -289.88269      200511.09      58.530127      58.530127      58.530127      0.90089968     222.53241      388.32558     -4.8993119    
      2500   5000           295.75832     -292.65811      10713.586      11570.71       7087.1773      4483.5324      2462.0146      2361.7098      8753.9261      0             -9094.1181      0              0             -289.43666      200820.09      58.560177      58.560177      58.560177      0.8995135     -392.22164     -689.9557       204.20299    
      2600   5200           303.21309      622.645        13568.814      11750.809      7265.814       4484.9948      2430.1982      2395.0829      8731.3007      0             -9071.587       0              0             -290.32331      200206.78      58.500502      58.500502      58.500502      0.90226905     985.3036       787.38416      95.247246    
      2700   5400           298.67962      392.52895      12762.077      11609.715      7157.1796      4452.5354      2408.1456      2365.6433      8772.7662      0             -9094.0197      0              0             -288.74812      201298.96      58.606687      58.606687      58.606687      0.89737364     422.80661      286.00778      468.77245    
      2800   5600           301.76451      390.0527       12898.104      11752.893      7231.102       4521.7909      2423.7222      2391.9853      8735.5522      0             -9029.4688      0              0             -288.71838      201319.69      58.6087        58.6087        58.6087        0.89728122     282.25101      410.72213      477.18496    
      2900   5800           304.52925      246.29164      12486.248      11761.119      7297.3529      4463.7663      2369.31        2409.7871      8736.7362      0             -9052.067       0              0             -287.91954      201878.26      58.662853      58.662853      58.662853      0.89479858     95.891906      482.03879      160.94424    
      3000   6000           301.26017      635.7211       13478.075      11605.376      7219.0168      4386.3596      2381.2727      2352.8812      8679.1129      0             -9026.9071      0              0             -287.76319      201987.94      58.673476      58.673476      58.673476      0.89431268     756.53295      1063.0905      87.539878    
      3100   6200           301.07983      271.5763       12595.855      11795.887      7214.6954      4581.1915      2469.2363      2430.8975      8703.6806      0             -9022.6229      0              0             -287.77696      201978.28      58.67254       58.67254       58.67254       0.89435548     459.54128     -19.817837      375.00545    
      3200   6400           303.84689      12.835362      11800.531      11762.787      7281.0017      4481.7857      2480.1928      2340.7072      8742.8683      0             -9081.9826      0              0             -288.26874      201633.7       58.639156      58.639156      58.639156      0.89588385     397.2476      -95.136072     -263.60544    
      3300   6600           297.02784      321.22038      12543.919      11600.032      7117.5985      4482.4333      2416.7186      2386.1967      8730.3448      0             -9050.8269      0              0             -288.4825       201484.3       58.624669      58.624669      58.624669      0.89654816     655.75538      7.2811848      300.62456    
      3400   6800           303.29734      227.26702      12364.248      11698.91       7267.8328      4431.0775      2405.5193      2390.8025      8751.7325      0             -9116.9768      0              0             -289.55497      200738.03      58.5522        58.5522        58.5522        0.8998812     -616.63402      707.17333      591.26175    
      3500   7000           300.44903     -214.63194      11042.343      11668.294      7199.5795      4468.7148      2408.6289      2412.579       8769.9429      0             -9122.436       0              0             -290.66329      199972.6       58.477684      58.477684      58.477684      0.90332564    -243.50841     -236.81434     -163.57308    
      3600   7200           300.7772       133.38796      11860.369      11471.836      7207.4434      4264.3924      2390.3558      2274.3694      8736.9699      0             -9137.3027      0              0             -291.02148      199726.47      58.453683      58.453683      58.453683      0.90443882    -126.19749      236.92858      289.43281    
      3700   7400           304.66643     -229.89111      11004.607      11677.287      7300.6401      4376.6473      2413.3599      2362.6973      8726.7951      0             -9126.205       0              0             -289.70086      200636.94      58.54237       58.54237       58.54237       0.9003346      29.63494      -504.01142     -215.29686    
      3800   7600           298.90778      532.48343      13216.776      11656.308      7162.6469      4493.6614      2442.3748      2403.8024      8737.5533      0             -9090.0691      0              0             -289.25975      200942.91      58.572113      58.572113      58.572113      0.89896369     750.77537     -57.018374      903.6933     
      3900   7800           302.47552     -134.74103      11438.796      11834.12       7248.1398      4585.9799      2475.9891      2467.0603      8727.8535      0             -9084.9229      0              0             -288.92402      201176.4       58.594791      58.594791      58.594791      0.89792033    -475.70633     -188.57817      260.0614     
      4000   8000           300.83567     -9.1225357      11607.585      11634.315      7208.8446      4425.4704      2417.3043      2320.6064      8774.8104      0             -9087.2506      0              0             -289.30154      200913.88      58.569292      58.569292      58.569292      0.89909359     100.77392      118.96569     -247.10722    
      4100   8200           300.00422      30.088196      11754.726      11666.765      7188.9207      4477.8443      2440.5269      2412.0452      8729.6117      0             -9104.3394      0              0             -289.96243      200455.95      58.524762      58.524762      58.524762      0.90114749     106.02832      97.012637     -112.77637    
      4200   8400           304.44991      507.12794      13213.063      11733.004      7295.4515      4437.5526      2388.2816      2366.0004      8779.4802      0             -9096.2096      0              0             -290.45247      200117.75      58.491829      58.491829      58.491829      0.90267046     496.1471       1009.4645      15.772164    
      4300   8600           297.32615      137.76199      11945.314      11542.47       7124.747       4417.7227      2405.2214      2374.0945      8718.9789      0             -9080.572       0              0             -289.88685      200508.21      58.529847      58.529847      58.529847      0.90091262    -180.72374      157.74824      436.26148    
      4400   8800           300.93172     -99.097821      11400.989      11691.725      7211.1461      4480.5786      2468.5623      2372.2852      8747.0663      0             -9107.3352      0              0             -288.93674      201167.55      58.593932      58.593932      58.593932      0.89795983    -23.426805     -534.86502      260.99837    
      4500   9000           303.04063     -567.76587      10133.919      11788.192      7261.6813      4526.5102      2429.1081      2428.2938      8814.3069      0             -9145.1985      0              0             -290.93681      199784.6       58.459353      58.459353      58.459353      0.90417569    -632.54676     -208.31953     -862.43131    
      4600   9200           300.96534      461.01819      13028.879      11686.1        7211.9517      4474.148       2457.1173      2404.8962      8752.4162      0             -9140.2817      0              0             -291.03824      199714.98      58.452561      58.452561      58.452561      0.9044909      823.65577      359.2914       200.1074     
      4700   9400           298.5602       413.21408      12865.426      11653.781      7154.318       4499.4633      2429.2516      2403.707       8720.9375      0             -9054.4328      0              0             -289.09216      201059.4       58.58343       58.58343       58.58343       0.89844285     728.39002      668.10194     -156.84972    
      4800   9600           297.90699      274.44299      12488.239      11681.793      7138.6655      4543.1271      2421.6115      2401.9962      8821.163       0             -9101.6436      0              0             -288.4782       201487.3       58.62496       58.62496       58.62496       0.89653479     696.6754       155.73546     -29.081896    
      4900   9800           303.03589     -242.54601      11092.329      11804.097      7261.5677      4542.5288      2458.7863      2440.4999      8704.11        0             -9060.8673      0              0             -288.86358      201218.5       58.598878      58.598878      58.598878      0.89773246    -556.25888     -199.3013       27.922152    
      5000   10000          295.06631      70.241706      11785.45       11580.501      7070.595       4509.9059      2469.5739      2429.3088      8746.4737      0             -9135.4505      0              0             -290.52689      200066.49      58.486834      58.486834      58.486834      0.90290173     355.86247      265.17197     -410.30933    
      5100   10200          301.28811      128.92091      12047.349      11671.266      7219.6863      4451.5801      2389.6745      2410.846       8816.0468      0             -9164.9871      0              0             -290.5875       200024.76      58.482768      58.482768      58.482768      0.90309009    -176.40588     -336.14146      899.31007    
      5200   10400          303.0635      -176.87573      11148.746      11663.618      7262.2293      4401.3884      2389.8543      2402.1069      8789.1284      0             -9179.7012      0              0             -291.20963      199597.43      58.441091      58.441091      58.441091      0.90502355     219.72437     -300.98623     -449.36534    
      5300   10600          295.5543       219.51555      12107.535      11468.953      7082.2885      4386.6644      2411.8856      2399.4755      8753.4512      0             -9178.1479      0              0             -291.39692      199469.14      58.428568      58.428568      58.428568      0.90560562     589.40205     -374.01325      443.15785    
      5400   10800          303.12772      250.9431       12422.858      11691.648      7263.7683      4427.8793      2390.1723      2432.7218      8795.9754      0             -9190.9902      0              0             -290.91715      199798.11      58.46067       58.46067       58.46067       0.90411457     107.14826     -167.84645      813.52749    
      5500   11000          300.62789      18.25707       11674.958      11621.68       7203.8655      4417.8147      2409.1114      2411.5964      8805.4778      0             -9208.3709      0              0             -290.48607      200094.6       58.489574      58.489574      58.489574      0.90277487     663.33003      200.77591     -809.33474    
      5600   11200          297.22378      200.70498      12087.783      11503.865      7122.2937      4381.5714      2398.8241      2342.0969      8821.9043      0             -9181.2538      0              0             -291.36854      199488.58      58.430465      58.430465      58.430465      0.9055174      846.32427     -479.97635      235.76702    
      5700   11400          300.2466       301.3303       12587.149      11711.056      7194.7288      4516.327       2456.296       2436.3196      8755.3799      0             -9131.6686      0              0             -291.56074      199357.07      58.417623      58.417623      58.417623      0.90611474     234.74583      702.22639     -32.981324    
      5800   11600          297.79573     -124.03657      11180.792      11542.55       7135.9992      4406.5504      2437.901       2355.9021      8764.4091      0             -9151.6617      0              0             -290.64895      199982.47      58.478646      58.478646      58.478646      0.90328108     199.17956     -725.98649      154.69722    
      5900   11800          300.24704      529.11788      13180.323      11637.464      7194.7393      4442.7242      2412.8851      2410.177       8718.2297      0             -9098.5676      0              0             -290.71182      199939.22      58.47443       58.47443       58.47443       0.90347646     55.633565      745.7552       785.96489    
      6000   12000          300.76488     -58.721717      11512.92       11684.722      7207.1481      4477.5739      2449.4308      2357.9937      8814.7614      0             -9144.6119      0              0             -289.73964      200610.09      58.539758      58.539758      58.539758      0.9004551      162.0366      -531.37961      193.17786    
      6100   12200          299.49567      81.257422      11772.622      11534.988      7176.7345      4358.2536      2421.0307      2408.0944      8721.5169      0             -9192.3885      0              0             -289.86232      200525.18      58.531498      58.531498      58.531498      0.90083637    -367.28822      481.03651      130.02397    
      6200   12400          301.35235      181.5932       12157.154      11626.61       7221.2257      4405.3841      2412.0126      2369.7711      8733.1752      0             -9109.5748      0              0             -290.14477      200329.97      58.512499      58.512499      58.512499      0.90171419    -240.86205      186.79387      598.84777    
      6300   12600          303.58447     -71.342249      11455.766      11663.859      7274.7133      4389.1455      2423.8829      2360.0127      8761.4932      0             -9156.2432      0              0             -290.62064      200001.95      58.480545      58.480545      58.480545      0.90319307    -32.926121      96.161241     -277.26187    
      6400   12800          298.73358      368.94573      12629.334      11554.203      7158.4728      4395.7302      2434.3656      2384.8552      8713.6799      0             -9137.1705      0              0             -290.89601      199812.63      58.462086      58.462086      58.462086      0.90404887     367.63137      1063.9694     -324.76359    
      6500   13000          302.73235     -219.54785      10970.551      11612.362      7254.2942      4358.0681      2367.8662      2368.705       8742.5283      0             -9121.0314      0              0             -289.9734       200448.36      58.524023      58.524023      58.524023      0.9011816     -282.03051     -478.01823      101.40519    
      6600   13200          299.28511     -279.82393      10815.113      11632.19       7171.689       4460.5014      2412.1567      2410.453       8737.6053      0             -9099.7135      0              0             -290.30747      200217.7       58.501566      58.501566      58.501566      0.9022198      16.303226     -621.16355     -234.61147    
      6700   13400          296.97575      495.85204      12989.918      11550.586      7116.3502      4434.2356      2417.1471      2421.0352      8739.9291      0             -9143.8759      0              0             -292.03008      199036.67      58.386311      58.386311      58.386311      0.90757334     864.81301     -177.44021      800.18331    
      6800   13600          292.87577      172.37559      11910.479      11407.073      7018.1036      4388.9691      2427.9381      2326.5587      8767.5488      0             -9133.0766      0              0             -290.26432      200247.46      58.504464      58.504464      58.504464      0.90208572     708.85185      305.93813     -497.66322    
      6900   13800          299.14454      376.23877      12754.256      11652.693      7168.3204      4484.3728      2432.681       2394.4658      8770.8101      0             -9113.5842      0              0             -289.52811      200756.66      58.554011      58.554011      58.554011      0.89979771     389.44168      471.02606      268.24857    
      7000   14000          304.56439      103.29169      12089.294      11787.2        7298.195       4489.0046      2416.1727      2445.8065      8748.0081      0             -9120.9826      0              0             -289.84035      200540.38      58.532977      58.532977      58.532977      0.90076808     335.30575      11.722819     -37.153492    
      7100   14200          298.39308     -35.794669      11459.195      11563.49       7150.3135      4413.1766      2359.0311      2422.0209      8744.8774      0             -9112.7529      0              0             -290.93139      199788.32      58.459716      58.459716      58.459716      0.90415884    -134.56299     -107.43245      134.61143    
      7200   14400          300.21514      407.16149      12844.271      11655.265      7193.9751      4461.29        2433.6841      2394.9364      8793.2484      0             -9160.5789      0              0             -290.28143      200235.66      58.503315      58.503315      58.503315      0.90213889     670.25388      10.682708      540.54789    
      7300   14600          298.61704     -91.476453      11443.975      11711.088      7155.6802      4555.4074      2458.495       2424.5266      8789.2458      0             -9116.8601      0              0             -290.30317      200220.67      58.501855      58.501855      58.501855      0.90220644    -327.75458     -58.407369      111.73259    
      7400   14800          302.24738     -28.94961       11696.318      11780.868      7242.6729      4538.1955      2377.4177      2442.261       8824.9139      0             -9106.3971      0              0             -290.24396      200261.52      58.505833      58.505833      58.505833      0.90202242    -345.48897      242.22165      16.418496    
      7500   15000          299.42676     -547.68297      9961.9599      11564.031      7175.0832      4388.9482      2415.6901      2345.2041      8755.6633      0             -9127.6094      0              0             -289.79034      200574.99      58.536344      58.536344      58.536344      0.90061268    -251.37115     -1049.4058     -342.27191    
      7600   15200          298.50443      52.23227       11773.851      11621.254      7152.9817      4468.2723      2443.4855      2414.8217      8730.2153      0             -9120.2502      0              0             -290.15567      200322.45      58.511766      58.511766      58.511766      0.90174806    -306.25662      242.58955      220.36388    
      7700   15400          301.16663     -232.31373      11003.157      11682.089      7216.7751      4465.3141      2441.9957      2426.3271      8726.5793      0             -9129.5881      0              0             -290.05808      200389.85      58.518328      58.518328      58.518328      0.90144475    -38.177859     -433.32377     -225.43957    
      7800   15600          299.26983     -149.2191       11227.825      11663.292      7171.3228      4491.9695      2436.3601      2393.1365      8756.9296      0             -9094.4568      0              0             -290.47267      200103.83      58.490473      58.490473      58.490473      0.90273322    -213.69636      251.44975     -485.41069    
      7900   15800          298.97189      467.59169      12884.953      11516.373      7164.1833      4352.1892      2417.8389      2368.7942      8660.7001      0             -9095.144       0              0             -289.623        200690.88      58.547616      58.547616      58.547616      0.9000926      470.26026      720.2447       212.27011    
      8000   16000          299.33681     -61.786317      11507.681      11688.91       7172.9279      4515.9825      2469.8827      2374.098       8733.1207      0             -9061.1189      0              0             -289.00161      201122.39      58.589547      58.589547      58.589547      0.89816145    -178.30941      201.94182     -208.99136    
      8100   16200          298.33024      493.93544      13065.477      11617.992      7148.8076      4469.1845      2452.4079      2424.6781      8694.365       0             -9102.2665      0              0             -289.26297      200940.67      58.571896      58.571896      58.571896      0.89897371     897.36995      704.68454     -120.24816    
      8200   16400          296.9639      -156.65521      11007.171      11464.167      7116.0663      4348.1011      2390.7054      2395.8741      8716.6711      0             -9155.1495      0              0             -290.58211      200028.47      58.48313       58.48313       58.48313       0.90307334    -336.92552      133.24437     -266.28449    
      8300   16600          300.83074      568.83929      13223.209      11571.555      7208.7263      4362.8284      2435.3976      2356.9319      8751.6332      0             -9181.1342      0              0             -291.94901      199091.94      58.391715      58.391715      58.391715      0.90732139     476.60892      457.3491       772.55984    
      8400   16800          294.88922      428.69127      12840.417      11592.494      7066.3512      4526.1431      2474.8981      2439.7904      8757.6117      0             -9146.1572      0              0             -291.20152      199602.99      58.441634      58.441634      58.441634      0.90499835     493.95986      91.445575      700.66838    
      8500   17000          301.40858      484.2772       13196.323      11780.408      7222.5731      4557.8351      2478.6786      2423.722       8756.5421      0             -9101.1076      0              0             -289.93021      200478.23      58.526929      58.526929      58.526929      0.90104737     503.86664      614.61979      334.34515    
      8600   17200          299.70296      86.672208      11882.227      11628.404      7181.7016      4446.702       2482.2732      2368.6533      8705.0154      0             -9109.2399      0              0             -289.45789      200805.36      58.558745      58.558745      58.558745      0.89957948    -142.04327     -110.32112      512.38101    
      8700   17400          295.63644      324.88675      12479.876      11532.044      7084.2568      4447.7873      2423.8171      2411.8719      8737.0409      0             -9124.9426      0              0             -290.56091      200043.07      58.484552      58.484552      58.484552      0.90300744     0.93148088     68.927561      904.80122    
      8800   17600          298.93308      195.61813      12289.431      11717.797      7163.2532      4554.544       2431.7898      2486.3575      8748.9003      0             -9112.5036      0              0             -290.08658      200370.16      58.516411      58.516411      58.516411      0.90153332     318.5684       9.2960686      258.98991    
      8900   17800          302.4175      -102.66965      11445.582      11746.18       7246.7496      4499.43        2483.6728      2387.0867      8727.4926      0             -9098.8221      0              0             -289.52999      200755.35      58.553884      58.553884      58.553884      0.89980355     513.21863     -888.70206      67.474475    
      9000   18000          299.06145     -22.774744      11473.035      11539.801      7166.3293      4373.4718      2415.4197      2383.673       8688.0792      0             -9113.7002      0              0             -289.15911      201012.84      58.578907      58.578907      58.578907      0.89865094    -46.081679     -234.6452       212.40265    
      9100   18200          306.09913     -282.09196      10864.551      11691.322      7334.9715      4356.3509      2388.9389      2395.2792      8693.7455      0             -9121.6128      0              0             -289.22903      200964.25      58.574187      58.574187      58.574187      0.89886822    -178.2007       52.591563     -720.66675    
      9200   18400          296.98667      70.077368      11679.465      11474.799      7116.612       4358.1872      2368.7037      2385.0119      8736.0918      0             -9131.6202      0              0             -290.24772      200258.92      58.50558       58.50558       58.50558       0.90203413    -4.0848402      38.170536      176.14641    
      9300   18600          301.7928      -149.01992      11156.578      11590.432      7231.7801      4358.6517      2371.18        2422.4993      8705.0699      0             -9140.0975      0              0             -291.16392      199628.77      58.444149      58.444149      58.444149      0.9048815     -289.4481       139.56546     -297.17711    
      9400   18800          301.34106      312.09035      12570.318      11660.199      7220.9551      4439.2437      2446.5658      2384.49        8763.0143      0             -9154.8263      0              0             -290.68232      199959.51      58.476408      58.476408      58.476408      0.90338479     185.42161      495.01697      255.83246    
      9500   19000          299.3511       120.00969      11947.148      11594.957      7173.2703      4421.687       2400.6512      2351.7967      8747.4506      0             -9078.2113      0              0             -288.85166      201226.8       58.599684      58.599684      58.599684      0.89769542     267.07209      455.72933     -362.77234    
      9600   19200          304.53033      241.56727      12583.26       11874.676      7297.3788      4577.2967      2446.8126      2462.9488      8749.9565      0             -9082.4212      0              0             -288.9901       201130.4       58.590325      58.590325      58.590325      0.89812568     232.17965      17.692485      474.82967    
      9700   19400          299.57957      206.11021      12292.36       11688.399      7178.745       4509.6539      2421.4283      2470.6903      8739.9683      0             -9122.433       0              0             -289.28579      200924.82      58.570356      58.570356      58.570356      0.89904463    -64.477354      255.4834       427.32458    
      9800   19600          300.53799      151.97132      12070.122      11625.817      7201.7112      4424.1059      2408.1871      2402.0197      8727.5032      0             -9113.6042      0              0             -289.94597      200467.33      58.525869      58.525869      58.525869      0.90109634     430.70327      192.32016     -167.10947    
      9900   19800          306.36581      32.288798      11966.693      11872.343      7341.3618      4530.9815      2471.4803      2453.274       8748.8781      0             -9142.6509      0              0             -290.09874      200361.76      58.515593      58.515593      58.515593      0.90157112     267.74524     -372.63162      201.75277    
     10000   20000          303.12616      238.9545       12380.436      11681.847      7263.7309      4418.1156      2402.8809      2391.1124      8762.0045      0             -9137.8822      0              0             -289.95445      200461.47      58.525298      58.525298      58.525298      0.90112268    -64.581548      530.52455      250.92051    
     10100   20200          299.53718      256.36292      12382.996      11633.359      7177.7293      4455.6299      2469.6225      2377.3129      8734.2143      0             -9125.5198      0              0             -289.89525      200502.41      58.529282      58.529282      58.529282      0.90093871     780.213       -247.99492      236.87068    
     10200   20400          305.11576     -134.32577      11370.146      11763.124      7311.4072      4451.7166      2521.0771      2364.7542      8689.5474      0             -9123.662       0              0             -289.75311      200600.76      58.538851      58.538851      58.538851      0.90049698    -318.55254      206.74619     -291.17097    
     10300   20600          296.67042     -117.52439      11205.6        11547.827      7109.0338      4438.7937      2416.707       2440.3429      8723.5133      0             -9141.7695      0              0             -291.10538      199668.91      58.448067      58.448067      58.448067      0.90469957    -69.727171     -289.98971      7.1437009    
     10400   20800          300.19457     -464.55827      10307.824      11661.893      7193.4821      4468.4108      2434.5981      2421.5914      8716.0704      0             -9103.8491      0              0             -290.82796      199859.38      58.466646      58.466646      58.466646      0.90383738    -842.85754     -829.01337      278.1961     
     10500   21000          303.28508      114.83181      12192.349      11856.358      7267.539       4588.8186      2537.1988      2457.6177      8733.2794      0             -9139.2773      0              0             -289.71504      200627.12      58.541415      58.541415      58.541415      0.90037865    -620.12349      550.08912      414.52979    
     10600   21200          296.5757      -433.75124      10333.775      11603.184      7106.764       4496.4205      2461.3295      2450.4329      8742.6835      0             -9158.0254      0              0             -289.65144      200671.17      58.545699      58.545699      58.545699      0.90018101    -549.74229     -390.96897     -360.54244    
     10700   21400          299.98447      494.06634      12974.468      11536.719      7188.4474      4348.272       2361.8971      2378.6653      8722.6992      0             -9114.9895      0              0             -291.29894      199536.24      58.435118      58.435118      58.435118      0.90530112    -82.214461      1087.3695      477.044      
     10800   21600          300.42641      586.19605      13256.137      11553.914      7199.0376      4354.876       2409.6159      2418.3886      8693.4805      0             -9166.6091      0              0             -291.91928      199112.22      58.393697      58.393697      58.393697      0.90722899     442.9412       1106.8592      208.7877     
     10900   21800          296.68169     -460.80357      10097.303      11444.846      7109.3039      4335.5419      2437.1095      2352.9708      8693.103       0             -9147.6414      0              0             -289.87434      200516.87      58.530689      58.530689      58.530689      0.90087373    -381.67045     -393.26277     -607.47748    
     11000   22000          301.42872      180.53811      12052.398      11525.217      7223.0556      4302.1619      2405.6303      2344.3885      8696.7531      0             -9144.61        0              0             -290.29959      200223.14      58.502095      58.502095      58.502095      0.90219533    -295.37974      77.061172      759.93288    
     11100   22200          304.21829     -31.862594      11596.011      11688.754      7289.9014      4398.853       2453.3913      2386.1553      8693.9409      0             -9134.6345      0              0             -291.2303       199583.27      58.439709      58.439709      58.439709      0.90508778     208.89257     -427.51165      123.03129    
     11200   22400          296.08232      881.06973      14099.171      11530.442      7094.9413      4435.5011      2470.1307      2414.5467      8703.2617      0             -9152.4379      0              0             -290.756        199908.84      58.471469      58.471469      58.471469      0.90361375     1112.858       598.45116      931.90003    
     11300   22600          305.74466      527.62264      13304.655      11763.94       7326.4774      4437.4629      2492.7206      2374.1514      8702.871       0             -9132.2801      0              0             -290.29371      200227.19      58.50249       58.50249       58.50249       0.90217705     755.16934      456.91721      370.78136    
     11400   22800          297.66827      445.35758      12920.226      11621.02       7132.945       4488.0745      2487.3559      2399.9526      8718.105       0             -9117.339       0              0             -290.58093      200029.28      58.483209      58.483209      58.483209      0.90306966     792.7622       289.99465      253.3159     
     11500   23000          298.44662      74.485114      11727.361      11510.152      7151.5963      4358.556       2428.6503      2374.4697      8712.9094      0             -9157.4734      0              0             -290.689        199954.92      58.47596       58.47596       58.47596       0.90340554     96.567833      242.34208     -115.45457    
     11600   23200          302.59232      204.1022       12226.28       11632.715      7250.9387      4381.7765      2426.0523      2451.0893      8657.7489      0             -9153.114       0              0             -291.48497      199408.89      58.422684      58.422684      58.422684      0.90587925     203.25515      310.8557       98.195748    
     11700   23400          304.40011      68.201672      11895.104      11696.817      7294.2583      4402.5584      2487.5843      2403.5167      8688.9638      0             -9177.5064      0              0             -291.5661       199353.41      58.417265      58.417265      58.417265      0.90613138     206.68773      125.40482     -127.48754    
     11800   23600          296.66102     -332.24934      10520.911      11489.999      7108.8086      4381.1906      2395.6468      2425.7545      8736.2859      0             -9176.4966      0              0             -290.62784      199996.99      58.480062      58.480062      58.480062      0.90321547    -107.02181     -217.85365     -671.87257    
     11900   23800          302.48829      214.58359      12247.828      11623.444      7248.4458      4374.9982      2441.3212      2381.3241      8764.359       0             -9212.0061      0              0             -291.32718      199516.89      58.43323       58.43323       58.43323       0.90538889     108.24174      452.45727      83.051746    
     12000   24000          304.58518      241.67677      12436.507      11735.429      7298.693       4436.7363      2475.7165      2432.8844      8726.0321      0             -9197.8968      0              0             -292.21679      198909.5       58.373873      58.373873      58.373873      0.90815361    -176.32385      778.95372      122.40045    
     12100   24200          293.86015      175.97882      12054.336      11541.892      7041.692       4500.2         2476.2554      2413.132       8776.6326      0             -9165.82        0              0             -291.1058       199668.62      58.448038      58.448038      58.448038      0.90470088    -59.874503      194.18461      393.62634    
     12200   24400          298.95615      192.57912      12192.688      11630.883      7163.8062      4467.0764      2472.7781      2402.8064      8769.4924      0             -9178.0006      0              0             -290.576        200032.67      58.483539      58.483539      58.483539      0.90305435     466.42876     -149.50498      260.81358    
     12300   24600          301.52069      385.79099      12809.032      11683.073      7225.2595      4457.8137      2454.2567      2434.8642      8722.84        0             -9154.1471      0              0             -290.44657      200121.81      58.492225      58.492225      58.492225      0.90265212     233.6614       447.21519      476.49637    
     12400   24800          297.22287      163.84976      11998.849      11520.519      7122.2719      4398.2468      2401.8844      2456.677       8685.2214      0             -9145.5359      0              0             -290.37169      200173.42      58.497253      58.497253      58.497253      0.90241939     208.52267     -151.728        434.75462    
     12500   25000          299.46696      186.00199      12180.382      11638.273      7176.0465      4462.227       2429.8632      2488.6652      8672.2472      0             -9128.5486      0              0             -290.84915      199844.82      58.465225      58.465225      58.465225      0.90390325     491.80358     -281.17176      347.37416    
     12600   25200          300.97081      290.8325       12606.657      11757.903      7212.0829      4545.8203      2475.3055      2458.2184      8747.4202      0             -9135.1238      0              0             -290.46758      200107.34      58.490815      58.490815      58.490815      0.9027174      494.99003     -107.20895      484.71642    
     12700   25400          297.7444       252.81323      12323.83       11587.462      7134.7692      4452.6931      2427.5045      2496.4072      8723.8269      0             -9195.0455      0              0             -291.0326       199718.84      58.452938      58.452938      58.452938      0.90447339     193.09842      250.16257      315.17868    
     12800   25600          299.80084      194.53038      12189.883      11625.647      7184.0472      4441.5995      2439.1314      2486.8979      8728.9935      0             -9213.4232      0              0             -292.25572      198883         58.371281      58.371281      58.371281      0.9082746      522.09568     -15.431889      76.92736     
     12900   25800          299.55756      49.868929      11811.699      11667.149      7178.2176      4488.9319      2497.1579      2424.7845      8749.5399      0             -9182.5504      0              0             -292.44955      198751.19      58.358382      58.358382      58.358382      0.90887697     149.42379     -245.12828      245.31128    
     13000   26000          299.24014      11.086727      11564.843      11532.476      7170.6112      4361.8645      2397.1092      2438.2696      8702.8182      0             -9176.3325      0              0             -290.36243      200179.81      58.497875      58.497875      58.497875      0.90239062    -65.537498      244.4149      -145.61722    
     13100   26200          304.76332      635.21098      13553.893      11695.421      7302.9619      4392.4588      2420.1093      2387.734       8737.3257      0             -9152.7101      0              0             -289.73341      200614.4       58.540178      58.540178      58.540178      0.90043573     711.32644      639.02499      555.28153    
     13200   26400          298.5479       154.6869       11955.526      11504.319      7154.0233      4350.2954      2371.9358      2401.0433      8724.9895      0             -9147.6732      0              0             -290.6125       200007.55      58.481091      58.481091      58.481091      0.90316779    -86.246234      239.12899      311.17794    
     13300   26600          298.61222      456.36061      12881.634      11559.515      7155.5647      4403.9505      2448.7874      2443.4047      8734.5533      0             -9222.795       0              0             -292.59989      198649.06      58.348385      58.348385      58.348385      0.90934422     676.57815      141.68971      550.81398    
     13400   26800          301.79541      625.87982      13422.563      11609.504      7231.8424      4377.6618      2401.6878      2438.2425      8760.3458      0             -9222.6144      0              0             -292.6279       198630.05      58.346524      58.346524      58.346524      0.90943126     576.34148      402.7065       898.59149    
     13500   27000          295.51396     -251.04639      10698.056      11430.089      7081.3219      4348.7671      2400.782       2409.8808      8710.3212      0             -9172.217       0              0             -290.71013      199940.38      58.474543      58.474543      58.474543      0.90347121    -859.08966     -620.5239       726.47438    
     13600   27200          300.86892      104.13473      11969.077      11663.663      7209.6412      4454.0218      2440.4824      2455.5312      8693.9699      0             -9135.9616      0              0             -289.03061      201102.21      58.587588      58.587588      58.587588      0.89825156     611.95684     -73.598858     -225.95379    
     13700   27400          300.01605     -25.904248      11560.415      11636.303      7189.2042      4447.0984      2384.6998      2443.9092      8718.9951      0             -9100.5057      0              0             -289.35946      200873.66      58.565385      58.565385      58.565385      0.89927358     261.03468     -48.919072     -289.82836    
     13800   27600          308.20454      506.7214       13273.655      11793.65       7385.4227      4408.2271      2467.8662      2330.621       8703.1886      0             -9093.4488      0              0             -290.23022      200270.99      58.506756      58.506756      58.506756      0.90197974     300.42657      1013.7801      205.95752    
     13900   27800          298.77677      21.537866      11601.682      11538.87       7159.5077      4379.3621      2427.8503      2400.8445      8698.7391      0             -9148.0718      0              0             -290.66643      199970.44      58.477474      58.477474      58.477474      0.90333539    -28.121618      134.43357     -41.698359    
     14000   28000          301.76378      101.90139      11915.959      11619.522      7231.0846      4388.4379      2350.8129      2482.0073      8720.3598      0             -9164.7421      0              0             -291.39674      199469.27      58.42858       58.42858       58.42858       0.90560507     34.048944      20.586685      251.06854    
     14100   28200          302.93561      230.63317      12347.549      11675.545      7259.1647      4416.38        2419.5862      2404.5517      8758.7047      0             -9166.4626      0              0             -290.9285       199790.31      58.45991       58.45991       58.45991       0.90414985     112.1669      -129.08228      708.8149     
     14200   28400          298.53382      147.60986      11925.176      11494.897      7153.6858      4341.2111      2413.6979      2401.1811      8680.3453      0             -9154.0132      0              0             -290.80503      199875.14      58.468182      58.468182      58.468182      0.90376612    -384.36783     -117.22019      944.4176     
     14300   28600          301.68237     -44.344324      11532.62       11661.521      7229.1338      4432.387       2445.4711      2434.9456      8701.7472      0             -9149.7769      0              0             -291.62094      199315.92      58.413603      58.413603      58.413603      0.90630182     251.05545     -302.89363     -81.194795    
     14400   28800          296.92026      460.12247      12811.558      11472.35       7115.0206      4357.3298      2432.3221      2379.6769      8699.4483      0             -9154.1175      0              0             -291.24739      199571.56      58.438566      58.438566      58.438566      0.90514089    -136.99594      674.08038      843.28296    
     14500   29000          302.07121     -36.409323      11440.02       11546.337      7238.4514      4307.8853      2382.7599      2374.5373      8694.8886      0             -9144.3006      0              0             -290.29925      200223.37      58.502118      58.502118      58.502118      0.90219427     366.18784     -125.55745     -349.85836    
     14600   29200          299.44333     -197.24458      11103.243      11678.328      7175.4802      4502.8478      2445.4251      2446.1802      8780.2988      0             -9169.0563      0              0             -290.74346      199917.46      58.472309      58.472309      58.472309      0.90357479     109.49023     -924.97498      223.751      
     14700   29400          297.92063      85.109713      11877.92       11629.931      7138.9922      4490.9385      2452.9353      2422.8642      8781.1657      0             -9166.0267      0              0             -290.92566      199792.26      58.4601        58.4601        58.4601        0.90414102    -359.34286      92.241193      522.43081    
     14800   29600          303.49969      455.864        13030.788      11704.006      7272.6818      4431.3241      2437.0396      2460.1702      8723.7799      0             -9189.6656      0              0             -291.2543       199566.82      58.438103      58.438103      58.438103      0.90516239     743.84487      527.51626      96.230884    
     14900   29800          300.01622      759.68781      13644.817      11444.992      7189.2082      4255.7835      2356.6623      2360.5639      8808.952       0             -9270.3947      0              0             -292.74101      198553.3       58.339008      58.339008      58.339008      0.90978279     453.34649      933.01515      892.7018     
     15000   30000          299.16102      193.79248      12103.074      11542.66       7168.7154      4373.945       2411.9932      2456.0001      8737.8518      0             -9231.9001      0              0             -293.13302      198287.77      58.31299       58.31299       58.31299       0.91100109     27.086411      431.17616      123.11489    
     15100   30200          300.26059      1.5289706      11620.485      11616.055      7195.0641      4420.9907      2442.6636      2427.3627      8757.7135      0             -9206.7491      0              0             -292.53533      198692.9       58.352677      58.352677      58.352677      0.90914358     15.107867      179.6077      -190.12865    
     15200   30400          293.92362      346.45056      12534.08       11529.53       7043.2128      4486.3167      2437.0329      2509.3432      8731.818       0             -9191.8773      0              0             -292.3521       198817.44      58.364866      58.364866      58.364866      0.90857412     582.99806      158.2872       298.06642    
     15300   30600          301.84549      194.43166      12201.675      11634.994      7233.0426      4401.9509      2426.0773      2396.9204      8734.409       0             -9155.4557      0              0             -290.84718      199846.17      58.465358      58.465358      58.465358      0.90389712    -74.297034      430.37602      227.21599    
     15400   30800          302.9399      -318.35597      10749.731      11678.935      7259.2677      4419.6672      2488.4337      2391.6682      8717.0107      0             -9177.4454      0              0             -290.42806      200134.57      58.493468      58.493468      58.493468      0.9025946      258.0205      -790.42845     -422.65996    
     15500   31000          298.43479      618.85521      13275.399      11481.923      7151.3129      4330.6104      2400.61        2429.5325      8683.4539      0             -9182.9861      0              0             -292.50294      198714.91      58.354831      58.354831      58.354831      0.9090429      763.9775       368.24779      724.34033    
     15600   31200          302.13657     -200.3007       10992.23       11572.988      7240.0176      4332.9701      2425.7376      2418.5109      8665.9357      0             -9177.2142      0              0             -292.364        198809.34      58.364074      58.364074      58.364074      0.90861111    -47.464358     -358.57056     -194.86717    
     15700   31400          302.72997      225.29816      12395.727      11739.601      7254.2371      4485.3639      2486.3838      2501.4432      8651.0266      0             -9153.4896      0              0             -291.07628      199688.87      58.450014      58.450014      58.450014      0.90460913     627.9634      -477.03506      524.96613    
     15800   31600          294.86205     -78.715915      11251.94       11481.929      7065.7004      4416.2283      2459.9854      2399.0015      8668.7951      0             -9111.5538      0              0             -290.1306       200339.76      58.513452      58.513452      58.513452      0.90167013    -441.31839      104.30725      100.8634     
     15900   31800          301.17571     -85.990304      11394.982      11646.702      7216.9929      4429.7094      2450.7937      2442.8493      8690.4701      0             -9154.4037      0              0             -289.57925      200721.2       58.550564      58.550564      58.550564      0.89995664    -281.62662      14.633829      9.0218806    
     16000   32000          300.38688      416.1958       12868.889      11656.426      7198.0902      4458.3354      2447.8337      2440.9075      8726.0879      0             -9156.4937      0              0             -290.98178      199753.73      58.456341      58.456341      58.456341      0.90431544     431.39973      187.11224      630.07543    
     16100   32200          298.23205      238.08133      12159.856      11467.626      7146.4548      4321.171       2384.9144      2411.4156      8730.7756      0             -9205.9345      0              0             -291.54869      199365.31      58.418428      58.418428      58.418428      0.90607727    -78.469451      729.16091      63.552514    
     16200   32400          302.91518      612.94794      13412.781      11631.419      7258.6752      4372.7441      2407.0331      2410.8502      8790.7115      0             -9235.8506      0              0             -291.68101      199274.87      58.409593      58.409593      58.409593      0.90648851     545.75447      585.31551      707.77384    
     16300   32600          296.78196      2.0720268      11516.448      11510.408      7111.7066      4398.7012      2361.9674      2474.3251      8730.0664      0             -9167.6577      0              0             -290.78717      199887.41      58.469379      58.469379      58.469379      0.90371063    -170.38906      417.33739     -240.73225    
     16400   32800          296.41369      974.55958      14365.756      11527.473      7102.8819      4424.5909      2458.4024      2490.1825      8660.2557      0             -9184.2498      0              0             -291.06454      199696.93      58.4508        58.4508        58.4508        0.90457265     804.85028      1467.643       651.18546    
     16500   33000          298.13645     -131.23081      11251.336      11633.38       7144.1639      4489.2158      2502.5239      2396.2694      8740.9446      0             -9150.5221      0              0             -291.17885      199618.54      58.443151      58.443151      58.443151      0.90492788    -111.843       -740.60951      458.76008    
     16600   33200          298.48525     -2.7094816      11558.329      11566.224      7152.5221      4413.702       2425.9687      2422.5464      8714.0801      0             -9148.8932      0              0             -290.92104      199795.43      58.460409      58.460409      58.460409      0.90412668     14.264841      52.218629     -74.611915    
     16700   33400          297.0593      -53.81939       11329.493      11486.746      7118.3524      4368.3935      2393.1583      2373.0114      8738.5413      0             -9136.3175      0              0             -290.11908      200347.72      58.514226      58.514226      58.514226      0.90163432     36.43383       129.81662     -327.70862    
     16800   33600          297.89976      137.27431      12103.268      11702.632      7138.492       4564.1399      2484.5825      2433.6764      8797.0782      0             -9151.1972      0              0             -290.45273      200117.57      58.491812      58.491812      58.491812      0.90267124     494.7286      -153.67954      70.773868    
     16900   33800          298.4949       83.139435      11846.125      11605.11       7152.7532      4452.3569      2463.0659      2457.5642      8766.4719      0             -9234.745       0              0             -292.41481      198774.8       58.360693      58.360693      58.360693      0.90876901     180.79029     -313.89718      382.52519    
     17000   34000          295.8969       154.70097      11904.706      11455.739      7090.4981      4365.2406      2442.4881      2408.0225      8742.169       0             -9227.439       0              0             -292.08892      198996.57      58.382389      58.382389      58.382389      0.90775623     83.989284     -170.57422      550.68783    
     17100   34200          301.30363      203.06509      12209.419      11618.586      7220.0581      4398.5279      2469.9975      2343.9304      8736.7947      0             -9152.1947      0              0             -291.34463      199504.94      58.432063      58.432063      58.432063      0.90544311     624.84404     -537.21816      521.5694     
     17200   34400          302.91848     -25.136743      11762.068      11835.668      7258.7543      4576.9139      2519.7125      2447.5701      8720.594       0             -9110.9626      0              0             -289.51216      200767.71      58.555086      58.555086      58.555086      0.89974815    -187.03127      84.035793      27.585251    
     17300   34600          297.60545      689.74995      13661.235      11639.004      7131.4395      4507.565       2447.8639      2422.7118      8709.7444      0             -9072.7552      0              0             -289.13295      201031.03      58.580674      58.580674      58.580674      0.89856962     370.2331       934.99645      764.0203     
     17400   34800          304.20605      135.33268      12076.819      11679.362      7289.608       4389.7538      2383.4663      2378.7433      8681.3487      0             -9053.8044      0              0             -288.63472      201378.04      58.614362      58.614362      58.614362      0.89702121     552.17094      255.10773     -401.28062    
     17500   35000          301.03799      105.53754      12123.411      11814.81       7213.6926      4601.1171      2433.9628      2515.8223      8768.9835      0             -9117.6514      0              0             -289.89813      200500.41      58.529088      58.529088      58.529088      0.90094766     3.4812875     -89.559666      402.69099    
     17600   35200          299.62758      185.67501      12132.747      11590.865      7179.8955      4410.9691      2423.0847      2390.3006      8719.6031      0             -9122.0193      0              0             -290.45912      200113.17      58.491383      58.491383      58.491383      0.9026911      61.979217      444.90565      50.140172    
     17700   35400          297.10581      530.1747       13069.591      11521.489      7119.467       4402.0223      2453.0723      2391.5009      8672.5905      0             -9115.1414      0              0             -290.30612      200218.63      58.501657      58.501657      58.501657      0.90221562     616.78852      557.97083      415.76474    
     17800   35600          304.19113     -281.82485      10912.365      11736.681      7289.2505      4447.43        2459.9017      2381.973       8734.4008      0             -9128.8455      0              0             -289.81616      200557.12      58.534605      58.534605      58.534605      0.90069292    -125.78551     -666.07912     -53.609928    
     17900   35800          300.18395      775.31703      13870.057      11601.68       7193.2275      4408.4524      2420.8286      2393.8216      8674.1957      0             -9080.3935      0              0             -289.73482      200613.43      58.540083      58.540083      58.540083      0.90044011     546.92661      680.27465      1098.7498    
     18000   36000          296.84247     -129.05251      11171.238      11548.519      7113.1565      4435.3629      2476.2948      2416.7831      8658.8973      0             -9116.6123      0              0             -289.95986      200457.73      58.524934      58.524934      58.524934      0.90113951    -395.76528     -71.741866      80.349606    
     18100   36200          302.6453      -255.09981      11026.673      11769.592      7252.2082      4517.3839      2489.3377      2369.8631      8774.5316      0             -9116.3485      0              0             -291.07539      199689.48      58.450074      58.450074      58.450074      0.90460636     593.18187     -851.55185     -506.92944    
     18200   36400          297.74762      339.53181      12521.502      11532.89       7134.8465      4398.043       2469.3319      2432.8606      8677.3022      0             -9181.4518      0              0             -291.13261      199650.24      58.446245      58.446245      58.446245      0.90478418     530.60384      329.88277      158.1088     
     18300   36600          302.63195     -210.849        10989.165      11606.341      7251.8882      4354.4523      2417.8088      2333.668       8756.672       0             -9153.6965      0              0             -289.6005       200706.47      58.549132      58.549132      58.549132      0.90002268    -379.68457     -19.597197     -233.26522    
     18400   36800          305.70556     -285.89767      10891.019      11727.577      7325.5403      4402.0365      2406.3938      2419.746       8704.5905      0             -9128.6938      0              0             -289.70183      200636.27      58.542305      58.542305      58.542305      0.90033759     569.32675     -865.75384     -561.26591    
     18500   37000          301.4729       277.47825      12330.384      11522.96       7224.1143      4298.8452      2367.5933      2369.7771      8714.0026      0             -9152.5277      0              0             -291.31551      199524.89      58.43401       58.43401       58.43401       0.9053526      388.98769      121.76014      321.68692    
     18600   37200          298.11574      162.61013      12028.029      11555.149      7143.6675      4411.4818      2527.9783      2352.4042      8711.4809      0             -9180.3816      0              0             -291.49678      199400.81      58.421895      58.421895      58.421895      0.90591597     384.424        333.91881     -230.51241    
     18700   37400          305.14095     -15.484812      11806.552      11851.612      7312.0107      4539.6012      2516.1206      2417.0315      8791.1928      0             -9184.7437      0              0             -291.30738      199530.46      58.434554      58.434554      58.434554      0.90532733     132.99403     -394.00357      214.5551     
     18800   37600          302.26148      645.05882      13530.57       11655.936      7243.0108      4412.9252      2441.1266      2406.6353      8735.2057      0             -9170.0425      0              0             -291.68863      199269.66      58.409084      58.409084      58.409084      0.90651218     873.52273      601.69657      459.95717    
     18900   37800          294.81514      57.282425      11720.162      11552.766      7064.5762      4488.1895      2428.4016      2434.6302      8762.1126      0             -9136.9549      0              0             -290.07572      200377.67      58.517142      58.517142      58.517142      0.90149957     314.63095      232.39618     -375.17986    
     19000   38000          299.88131      219.75649      12409.052      11767.391      7185.9755      4581.4158      2497.6197      2446.7686      8785.419       0             -9148.3915      0              0             -290.31709      200211.07      58.50092       58.50092       58.50092       0.90224971     499.05157      577.89924     -417.68133    
     19100   38200          301.78891      370.08287      12746.734      11668.096      7231.6868      4436.4094      2437.5644      2405.9661      8760.5797      0             -9167.7007      0              0             -290.84402      199848.34      58.465569      58.465569      58.465569      0.9038873      524.35579      151.91521      433.97761    
     19200   38400          300.84812      374.23341      12683.286      11594.294      7209.1428      4385.1509      2388.1169      2412.1193      8754.2359      0             -9169.3213      0              0             -291.30914      199529.25      58.434436      58.434436      58.434436      0.90533282     362.13694      276.47845      484.08483    
     19300   38600          300.36008      227.29627      12291.427      11630.479      7197.448       4433.0309      2457.9212      2389.7851      8744.1646      0             -9158.84        0              0             -291.51562      199387.93      58.420637      58.420637      58.420637      0.9059745      129.76214     -58.200583      610.32725    
     19400   38800          298.4855      -192.14403      11051.303      11612.385      7152.5281      4459.8574      2488.2101      2429.0344      8656.3754      0             -9113.7626      0              0             -290.29294      200227.72      58.502542      58.502542      58.502542      0.90217466    -108.44368     -267.92027     -200.06816    
     19500   39000          299.94445      84.824583      11862.067      11613.559      7187.4886      4426.0708      2509.5463      2347.8131      8700.8192      0             -9132.1078      0              0             -289.34686      200882.41      58.566235      58.566235      58.566235      0.89923442     176.42835     -35.29265       113.33805    
     19600   39200          304.26544     -194.38686      11190.811      11758.774      7291.0312      4467.7432      2432.2233      2422.3202      8725.36        0             -9112.1603      0              0             -290.12385      200344.42      58.513905      58.513905      58.513905      0.90164915    -494.26633      364.46694     -453.36118    
     19700   39400          296.48239      102.06816      11815.932      11518.069      7104.5279      4413.5409      2427.2497      2374.6831      8751.1029      0             -9139.4949      0              0             -290.47587      200101.63      58.490258      58.490258      58.490258      0.90274318    -20.808451     -60.379894      387.39284    
     19800   39600          300.61138      340.83667      12563.66       11571.744      7203.47        4368.274       2446.3518      2362.5056      8731.6497      0             -9172.233       0              0             -291.27831      199550.37      58.436497      58.436497      58.436497      0.90523701     454.94107      600.19325     -32.624307    
     19900   39800          301.27715      484.45981      13084.183      11673.862      7219.4235      4454.4383      2484.3252      2346.5772      8771.0517      0             -9147.5158      0              0             -291.18994      199610.93      58.442408      58.442408      58.442408      0.90496237     617.48002      54.614502      781.28492    
     20000   40000          305.36508     -69.167624      11607.011      11808.623      7317.3816      4491.2415      2469.2468      2420.5953      8754.1666      0             -9152.7672      0              0             -290.81958      199865.13      58.467207      58.467207      58.467207      0.90381137     681.53249     -293.58148     -595.45388    
     20100   40200          299.01259      461.66219      12916.518      11569.813      7165.1587      4404.6541      2448.3802      2373.4859      8750.78        0             -9167.9919      0              0             -290.59524      200019.43      58.482249      58.482249      58.482249      0.90311414     814.56836      66.861887      503.55634    
     20200   40400          294.52472      314.6055       12461.461      11542.698      7057.617       4485.0815      2502.2837      2330.8762      8828.9676      0             -9177.046       0              0             -290.26846      200244.61      58.504186      58.504186      58.504186      0.90209859     774.88441     -36.885227      205.81732    
     20300   40600          303.49113     -228.11801      11090.334      11756.279      7272.4767      4483.8022      2477.9844      2423.3271      8720.5447      0             -9138.054       0              0             -290.37426      200171.65      58.49708       58.49708       58.49708       0.90242739    -420.69765     -96.886056     -166.77034    
     20400   40800          301.10318      753.22614      13796.365      11600.475      7215.2548      4385.22        2415.2972      2434.1927      8693.3553      0             -9157.6253      0              0             -290.77111      199898.45      58.470455      58.470455      58.470455      0.90366072     1170.7796      405.43074      683.46808    
     20500   41000          299.95303     -74.081699      11395.272      11611.716      7187.694       4424.0224      2475.7747      2347.019       8734.9948      0             -9133.766       0              0             -290.13583      200336.15      58.5131        58.5131        58.5131        0.90168639    -286.03421     -256.24935      320.03847    
     20600   41200          301.65259     -89.790427      11502.608      11765.158      7228.4201      4536.7382      2489.4701      2417.0647      8744.2704      0             -9114.067       0              0             -289.9039       200496.42      58.5287        58.5287        58.5287        0.90096559    -56.760811     -170.46635     -42.144125    
     20700   41400          299.62491     -253.43298      11002.924      11743.614      7179.8313      4563.7828      2508.8118      2406.8348      8773.1272      0             -9124.991       0              0             -290.0435       200399.92      58.519308      58.519308      58.519308      0.90139945     150.10379     -814.41516     -95.987564    
     20800   41600          297.21947      115.26162      11904.166      11566.95       7122.1905      4444.7594      2431.1567      2401.5388      8752.907       0             -9140.843       0              0             -289.74341      200607.47      58.539504      58.539504      58.539504      0.90046684    -40.066306      313.30989      72.541285    
[...]
    495000   990000         299.05222      496.11527      13068.316      11611.921      7166.1082      4445.8128      2466.3209      2376.5335      8732.2868      0             -9129.3284      0              0             -288.76204      201289.25      58.605745      58.605745      58.605745      0.89741692     241.71319      514.59701      732.0356     
    495100   990200         303.67694      207.70075      12243.408      11636.194      7276.9291      4359.2645      2448.6083      2430.8937      8649.6706      0             -9169.9082      0              0             -289.95652      200460.04      58.525159      58.525159      58.525159      0.90112912     181.92199     -38.06059       479.24085    
    495200   990400         296.38692     -13.172766      11382.677      11421.003      7102.2402      4318.7632      2425.9982      2387.2535      8676.4617      0             -9170.9502      0              0             -291.34667      199503.55      58.431927      58.431927      58.431927      0.90544943    -272.92136      359.01259     -125.60953    
    495300   990600         300.69923      59.109501      11798.086      11626.324      7205.5751      4420.7491      2456.8616      2474.6575      8674.6891      0             -9185.459       0              0             -291.72121      199247.4       58.406909      58.406909      58.406909      0.90661346     322.76447     -234.242        88.806034    
    495400   990800         301.82543      45.758016      11719.096      11585.766      7232.5619      4353.2045      2455.5724      2406.0033      8677.9643      0             -9186.3355      0              0             -290.92268      199794.31      58.4603        58.4603        58.4603        0.90413175     239.87791     -547.73381      445.12995    
    495500   991000         298.82706      287.73165      12375.833      11536.435      7160.7128      4375.722       2477.2028      2397.4506      8676.854       0             -9175.7854      0              0             -290.57349      200034.4       58.483708      58.483708      58.483708      0.90304655     100.15732      655.34453      107.69311    
    495600   991200         305.90436      467.08192      13116.57       11756.517      7330.3043      4426.2129      2501.7541      2393.8662      8659.1976      0             -9128.605       0              0             -291.12119      199658.07      58.447009      58.447009      58.447009      0.90474869     330.44977      502.08016      568.71581    
    495700   991400         300.70387      942.95603      14328.699      11584.351      7205.6862      4378.6644      2463.1845      2430.0443      8653.9492      0             -9168.5135      0              0             -291.26537      199559.24      58.437363      58.437363      58.437363      0.90519677     1437.0826      748.36031      643.4252     
    495800   991600         297.1621       112.46823      11803.764      11475.71       7120.8157      4354.8947      2470.0955      2348.0498      8723.9832      0             -9187.2338      0              0             -290.61743      200004.16      58.48076       58.48076       58.48076       0.9031831      872.7824      -268.10577     -267.27194    
    495900   991800         300.53292      174.50033      12206.295      11698.444      7201.5898      4496.854       2517.9451      2442.2815      8717.2976      0             -9180.6702      0              0             -291.27015      199555.96      58.437043      58.437043      58.437043      0.90521164     478.15434      96.611256     -51.264618    
    496000   992000         298.66245      205.7772       12176.747      11579.664      7156.7682      4422.8963      2474.0533      2427.0499      8733.5812      0             -9211.7882      0              0             -292.14561      198957.96      58.378613      58.378613      58.378613      0.90793239     24.43757       128.18862      464.7054     
    496100   992200         295.57128      459.55933      12788.931      11455.786      7082.6955      4373.0904      2433.1938      2444.8741      8731.3994      0             -9236.3768      0              0             -292.21373      198911.58      58.374076      58.374076      58.374076      0.90814412     384.9406       334.37602      659.36137    
    496200   992400         300.19236     -238.90174      10919.053      11611.335      7193.4291      4417.906       2497.8294      2442.5756      8718.4579      0             -9240.9568      0              0             -292.53174      198695.34      58.352916      58.352916      58.352916      0.90913241    -364.16745     -82.036323     -270.50145    
    496300   992600         302.46475     -77.798073      11389.288      11614.758      7247.8817      4366.8765      2420.4177      2383.8191      8761.5278      0             -9198.8882      0              0             -292.49394      198721.02      58.35543       58.35543       58.35543       0.90901494    -129.98414      161.51427     -264.92434    
    496400   992800         298.92672      14.531461      11444.378      11402.045      7163.1009      4238.9446      2372.0822      2398.7136      8682.8776      0             -9214.7288      0              0             -290.98809      199749.4       58.455919      58.455919      58.455919      0.90433504     47.029498      324.15408     -327.58919    
    496500   993000         297.11238     -31.95882       11313.621      11406.45       7119.6244      4286.826       2478.6413      2342.0406      8691.5014      0             -9225.3573      0              0             -291.83939      199166.72      58.399024      58.399024      58.399024      0.90698073    -176.79481      16.347612      64.570738    
    496600   993200         299.66541      373.65973      12680.287      11596.238      7180.8019      4415.4362      2521.0948      2406.7569      8657.1554      0             -9169.5709      0              0             -292.18898      198928.43      58.375725      58.375725      58.375725      0.90806717     658.14249     -30.346153      493.18286    
    496700   993400         295.21036     -478.46251      10043.551      11442.938      7074.0467      4368.8912      2517.3404      2382.2811      8652.8773      0             -9183.6075      0              0             -289.83224      200546         58.533523      58.533523      58.533523      0.90074288    -230.17917     -680.24893     -524.95942    
    496800   993600         305.87965     -33.5454        11554.752      11652.469      7329.712       4322.7567      2497.2685      2361.4867      8668.7093      0             -9204.7078      0              0             -291.00499      199737.8       58.454787      58.454787      58.454787      0.90438756     150.46952     -131.55249     -119.55323    
    496900   993800         298.86723     -47.631628      11454.402      11592.601      7161.6753      4430.9254      2459.9605      2492.2724      8673.7517      0             -9195.0593      0              0             -292.16544      198944.46      58.377292      58.377292      58.377292      0.90799402    -189.75478     -267.76597      314.62587    
    497000   994000         297.04789      124.39983      11841.782      11479.439      7118.079       4361.3599      2476.5452      2377.3555      8715.5843      0             -9208.1251      0              0             -291.02889      199721.39      58.453187      58.453187      58.453187      0.90446183    -142.32267      36.422645      479.09952    
    497100   994200         302.71284     -284.19692      10863.194      11690.708      7253.8266      4436.8816      2501.6863      2405.2232      8685.7417      0             -9155.7695      0              0             -291.12559      199655.05      58.446714      58.446714      58.446714      0.90476237    -268.01227     -365.10284     -219.47563    
    497200   994400         304.26374      374.95692      12672.538      11578.238      7290.9905      4287.2474      2395.7177      2400.6118      8675.2636      0             -9184.3456      0              0             -290.45675      200114.8       58.491542      58.491542      58.491542      0.90268375     195.75889      558.58605      370.52581    
    497300   994600         297.92846      389.47787      12625.771      11490.147      7139.1799      4350.9671      2476.4737      2407.0066      8630.9686      0             -9163.4818      0              0             -290.72674      199928.96      58.47343       58.47343       58.47343       0.90352282    -97.145161      592.06335      673.51542    
    497400   994800         301.24423      355.3          12682.784      11644.735      7218.6347      4426.1003      2475.9492      2441.2997      8662.5721      0             -9153.7208      0              0             -290.14414      200330.41      58.512541      58.512541      58.512541      0.9017122      470.97581      560.9568       33.967401    
    497500   995000         300.50658     -18.447815      11519.985      11573.758      7200.9585      4372.7998      2442.1192      2436.5594      8720.2598      0             -9226.1386      0              0             -290.812        199870.35      58.467715      58.467715      58.467715      0.90378778     143.40797      311.51817     -510.26958    
    497600   995200         297.05832      219.42933      12132.318      11496.679      7118.329       4378.3504      2475.3264      2438.7366      8673.3554      0             -9209.068       0              0             -292.63147      198627.63      58.346286      58.346286      58.346286      0.90944236     16.854211      672.4481      -31.014327    
    497700   995400         303.04584     -433.16628      10493.903      11751.809      7261.8062      4490.0033      2531.2265      2457.7566      8723.4985      0             -9222.4783      0              0             -291.9058       199121.41      58.394595      58.394595      58.394595      0.90718711    -154.81315     -391.49239     -753.19328    
    497800   995600         300.86651     -271.34873      10745.343      11534.66       7209.5835      4325.0766      2418.0671      2423.6684      8672.6121      0             -9189.271       0              0             -291.41554      199456.4       58.427324      58.427324      58.427324      0.90566347    -345.62063     -278.57053     -189.85504    
    497900   995800         297.60301      282.86099      12288.569      11465.433      7131.3812      4334.0513      2455.5807      2401.4912      8659.7723      0             -9182.7928      0              0             -291.29808      199536.83      58.435176      58.435176      58.435176      0.90529843     460.06628     -72.266008      460.7827     
    498000   996000         298.29072      454.22728      12978.583      11655.062      7147.8605      4507.2012      2506.8929      2471.1177      8621.2003      0             -9092.0097      0              0             -290.92361      199793.67      58.460237      58.460237      58.460237      0.90413464     240.59298      648.6384       473.45044    
    498100   996200         301.18152     -164.39087      11114.921      11595.547      7217.1321      4378.4145      2413.2213      2428.9843      8683.5016      0             -9147.2927      0              0             -289.93974      200471.64      58.526288      58.526288      58.526288      0.90107698    -244.22703     -387.67783      138.73224    
    498200   996400         298.1542      -50.372376      11273.678      11420.478      7144.5891      4275.8892      2401.9426      2403.6819      8658.9139      0             -9188.6492      0              0             -290.87238      199828.85      58.463669      58.463669      58.463669      0.90397545    -732.8879       34.624186      547.14659    
    498300   996600         297.96313     -365.44666      10519.561      11582.036      7140.0106      4442.0259      2456.9642      2421.6414      8732.9247      0             -9169.5043      0              0             -291.5691       199351.35      58.417064      58.417064      58.417064      0.90614073    -425.66733     -263.44266     -407.22999    
    498400   996800         298.70616     -245.01798      10878.749      11591.112      7157.8156      4433.2964      2478.3028      2397.1154      8732.0598      0             -9174.1817      0              0             -291.56375      199355.01      58.417422      58.417422      58.417422      0.90612408     39.291641     -150.85578     -623.4898     
    498500   997000         299.42752      450.53145      12818.06       11507.076      7175.1014      4331.9748      2352.4767      2406.0065      8752.7916      0             -9179.3001      0              0             -291.31601      199524.55      58.433977      58.433977      58.433977      0.90535416     755.7234       290.90855      304.96241    
    498600   997200         298.66515      162.36435      12002.998      11529.818      7156.833       4372.9846      2477.4478      2395.8963      8678.8118      0             -9179.1714      0              0             -290.87089      199829.88      58.463769      58.463769      58.463769      0.9039708      551.82627     -522.0994       457.36618    
    498700   997400         304.87657      37.925592      11792.818      11682.525      7305.6754      4376.8495      2426.999       2409.91        8752.234       0             -9212.2935      0              0             -291.48925      199405.96      58.422398      58.422398      58.422398      0.90589255     290.07315     -126.09065     -50.205727    
    498800   997600         298.12787      93.897096      11749.972      11477.404      7143.9581      4333.4457      2442.4719      2423.3499      8684.7401      0             -9217.1162      0              0             -292.02093      199042.91      58.38692       58.38692       58.38692       0.90754491     267.46928     -239.32466      253.54666    
    498900   997800         303.73636     -29.980391      11490.206      11577.405      7278.3529      4299.0518      2415.9364      2372.778       8735.5637      0             -9225.2262      0              0             -291.45082      199432.26      58.424966      58.424966      58.424966      0.90577311     126.16918     -312.31264      96.202286    
    499000   998000         305.3442       208.13754      12343.914      11738.39       7316.8813      4421.5085      2416.8503      2428.58        8749.5913      0             -9173.5131      0              0             -291.37726      199482.6       58.429882      58.429882      58.429882      0.90554452     764.21563      350.19759     -490.00061    
    499100   998200         301.71727      149.94515      12064.316      11626.305      7229.97        4396.3353      2418.7825      2430.7142      8679.5968      0             -9132.7582      0              0             -290.19126      200297.88      58.509374      58.509374      58.509374      0.90185866    -165.1468       417.9927       196.98955    
    499200   998400         300.3377      -106.01539      11225.001      11534.095      7196.9117      4337.1836      2456.7061      2396.9061      8633.5274      0             -9149.9561      0              0             -290.74619      199915.59      58.472126      58.472126      58.472126      0.90358327    -170.5374      -224.55487      77.046102    
    499300   998600         296.87257      290.4694       12267.331      11422.984      7113.8778      4309.1059      2414.1236      2341.6892      8685.9397      0             -9132.6465      0              0             -291.6189       199317.31      58.413739      58.413739      58.413739      0.90629547     494.30426     -4.1764787      381.28043    
    499400   998800         300.78762      171.42638      12088.677      11589.825      7207.6931      4382.1323      2456.7336      2406.4259      8710.9591      0             -9191.9862      0              0             -291.30156      199534.44      58.434943      58.434943      58.434943      0.90530926     272.06994      6.7878725      235.42132    
    499500   999000         300.76115      219.20942      12300.328      11661.54       7207.0588      4454.4811      2447.7379      2425.7874      8739.6157      0             -9158.6599      0              0             -290.89697      199811.96      58.462022      58.462022      58.462022      0.90405187     581.25819     -269.78427      346.15435    
    499600   999200         293.11979     -709.76714      9399.0362      11465.632      7023.9509      4441.681       2439.2595      2449.5759      8755.3893      0             -9202.5437      0              0             -291.1367       199647.43      58.445971      58.445971      58.445971      0.9047969     -797.8215      -933.98414     -397.49579    
    499700   999400         297.95218      291.55625      12417.988      11571.83       7139.7482      4432.0819      2498.8946      2380.4107      8736.5604      0             -9183.7838      0              0             -292.08401      198999.92      58.382717      58.382717      58.382717      0.90774094     399.7978      -321.49507      796.36602    
    499800   999600         301.03005     -250.06315      10888.548      11614.778      7213.5024      4401.2756      2473.8354      2418.4836      8711.5299      0             -9202.5734      0              0             -291.88536      199135.36      58.395959      58.395959      58.395959      0.90712358    -886.27384     -49.361041      185.44543    
    499900   999800         297.37309     -427.73446      10237.888      11482.664      7125.8716      4356.7923      2450.2918      2373.888       8694.4701      0             -9161.8575      0              0             -291.28592      199545.16      58.435989      58.435989      58.435989      0.90526066    -811.38105     -58.001387     -413.82094    
    500000   1000000        294.1243       120.07033      11663.37       11313.42       7048.0217      4265.398       2412.4798      2386.0923      8641.3535      0             -9174.5275      0              0             -290.84815      199845.5       58.465292      58.465292      58.465292      0.90390014     363.6825       596.80341     -600.27493    
Loop time of 1260.12 on 1 procs for 500000 steps with 8040 atoms

Performance: 68.565 ns/day, 0.350 hours/ns, 396.787 timesteps/s, 3.190 Matom-step/s
99.5% CPU use with 1 MPI tasks x 1 OpenMP threads

MPI task timing breakdown:
Section |  min time  |  avg time  |  max time  |%varavg| %total
---------------------------------------------------------------
Pair    | 126.43     | 126.43     | 126.43     |   0.0 | 10.03
Bond    | 881.67     | 881.67     | 881.67     |   0.0 | 69.97
Neigh   | 0.34964    | 0.34964    | 0.34964    |   0.0 |  0.03
Comm    | 81.283     | 81.283     | 81.283     |   0.0 |  6.45
Output  | 14.513     | 14.513     | 14.513     |   0.0 |  1.15
Modify  | 124.26     | 124.26     | 124.26     |   0.0 |  9.86
Other   |            | 31.62      |            |       |  2.51

Nlocal:           8040 ave        8040 max        8040 min
Histogram: 1 0 0 0 0 0 0 0 0 0
Nghost:          21835 ave       21835 max       21835 min
Histogram: 1 0 0 0 0 0 0 0 0 0
Neighs:              0 ave           0 max           0 min
Histogram: 1 0 0 0 0 0 0 0 0 0

Total # of neighbors = 0
Ave neighs/atom = 0
Ave special neighs/atom = 5.9701493
Neighbor list builds = 13515
Dangerous builds = 0

# --- Cleanup ---
unfix npt_fix

undump dump_npt

# --- Write Output ---
write_dump all custom /home/arz2/PolyJarvis/data/cis-PBD3/lammps/mechanical/bm_series/bm_P100/bm_P100_last.dump id type mol x y z xu yu zu vx vy vz modify sort id
write_data /home/arz2/PolyJarvis/data/cis-PBD3/lammps/mechanical/bm_series/bm_P100/bm_P100_out.data
System init for write_data ...
Generated 3 of 3 mixed pair_coeff terms from arithmetic mixing rule

print "STAGE COMPLETE: NPT T=300.0->300.0K P=100.0->100.0atm steps=500000"
STAGE COMPLETE: NPT T=300.0->300.0K P=100.0->100.0atm steps=500000
quit
