units real
atom_style full
boundary p p p

# --- Force Field Styles ---
pair_style lj/cut 14.0
dielectric 1.000000
bond_style harmonic
angle_style harmonic
dihedral_style multi/harmonic
improper_style none
special_bonds lj 0 0 0
pair_modify mix arithmetic tail yes
neighbor 2.0 bin
neigh_modify delay 0 every 1 check yes
neigh_modify one 4000
package gpu 1 neigh yes

read_data /home/alexzhao/PolyJarvis/data/PE4/lammps/equil/npt_production/npt_production_out.data
Reading data file ...
  orthogonal box = (2.4749842 2.4749842 2.4749842) to (53.303388 53.303388 53.303388)
  1 by 1 by 1 MPI processor grid
  reading atoms ...
  4840 atoms
  reading velocities ...
  4840 velocities
  scanning bonds ...
  2 = max bonds/atom
  scanning angles ...
  1 = max angles/atom
  scanning dihedrals ...
  2 = max dihedrals/atom
  orthogonal box = (2.4749842 2.4749842 2.4749842) to (53.303388 53.303388 53.303388)
  1 by 1 by 1 MPI processor grid
  reading bonds ...
  4820 bonds
  reading angles ...
  4800 angles
  reading dihedrals ...
  4780 dihedrals
Finding 1-2 1-3 1-4 neighbors ...
  special bond factors lj:    0        0        0       
  special bond factors coul:  0        0        0       
     2 = max # of 1-2 neighbors
     2 = max # of 1-3 neighbors
     4 = max # of 1-4 neighbors
     6 = max # of special neighbors
  special bonds CPU = 0.002 seconds
  read_data CPU = 0.069 seconds


# --- Thermo Output ---
thermo_style custom step time temp press enthalpy etotal ke pe ebond eangle edihed eimp evdwl ecoul elong etail vol lx ly lz density pxx pyy pzz
thermo_modify flush yes
thermo 100

# --- Trajectory ---
dump dump_npt all custom 1000 /home/alexzhao/PolyJarvis/data/PE4/lammps/mechanical/bm_series/bm_P1000/bm_P1000.dump id type mol x y z ix iy iz vx vy vz

# --- Restart Checkpointing ---
restart 10000 npt_1.rst npt_2.rst

# --- Initial Velocities (optional) ---
# Velocities read from data file

# --- SHAKE Constraints ---
# SHAKE disabled (TraPPE-UA united-atom)

# --- NPT Thermostat + Barostat (Nose-Hoover) ---
# T_damp = 100.0 fs  (heat bath coupling)
# P_damp = 1000.0 fs  (pressure bath coupling, ~10x T_damp typical)
# Ramp: T=300.0->300.0K  P=1000.0->1000.0atm
timestep 2.0
fix npt_fix all npt temp 300.0 300.0 100.0 iso 1000.0 1000.0 1000.0

run 500000

CITE-CITE-CITE-CITE-CITE-CITE-CITE-CITE-CITE-CITE-CITE-CITE-CITE

Your simulation uses code contributions which should be cited:

- GPU package (short-range, long-range and three-body potentials): doi:10.1016/j.cpc.2010.12.021, doi:10.1016/j.cpc.2011.10.012, doi:10.1016/j.cpc.2013.08.002, doi:10.1016/j.commatsci.2014.10.068, doi:10.1016/j.cpc.2016.10.020, doi:10.3233/APC200086

@Article{Brown11,
 author = {W. M. Brown and P. Wang and S. J. Plimpton and A. N. Tharrington},
 title = {Implementing Molecular Dynamics on Hybrid High Performance Computers---Short Range Forces},
 journal = {Comput.\ Phys.\ Commun.},
 year =    2011,
 volume =  182,
 pages =   {898--911},
 doi =     {10.1016/j.cpc.2010.12.021}
}

@Article{Brown12,
 author = {W. M. Brown and A. Kohlmeyer and S. J. Plimpton and A. N. Tharrington},
 title = {Implementing Molecular Dynamics on Hybrid High Performance Computers - Particle-Particle Particle-Mesh},
 journal = {Comput.\ Phys.\ Commun.},
 year =    2012,
 volume =  183,
 doi =     {10.1016/j.cpc.2011.10.012},
 pages =   {449--459}
}

@Article{Brown13,
 author = {W. M. Brown and Y. Masako},
 title = {Implementing Molecular Dynamics on Hybrid High Performance Computers---Three-Body Potentials},
 journal = {Comput.\ Phys.\ Commun.},
 year =    2013,
 volume =  184,
 pages =   {2785--2793},
 doi =     {10.1016/j.cpc.2013.08.002},
}

@Article{Trung15,
 author = {T. D. Nguyen and S. J. Plimpton},
 title = {Accelerating Dissipative Particle Dynamics Simulations for Soft Matter Systems},
 journal = {Comput.\ Mater.\ Sci.},
 year =    2015,
 doi =     {10.1016/j.commatsci.2014.10.068},
 volume =  100,
 pages =   {173--180}
}

@Article{Trung17,
 author = {T. D. Nguyen},
 title = {{GPU}-Accelerated {T}ersoff Potentials for Massively Parallel
    Molecular Dynamics Simulations},
 journal = {Comput.\ Phys.\ Commun.},
 year =    2017,
 doi =     {10.1016/j.cpc.2016.10.020},
 volume =  212,
 pages =   {113--122}
}

@inproceedings{Nikolskiy19,
 author = {V. Nikolskiy and V. Stegailov},
 title = {{GPU} Acceleration of Four-Site Water Models in {LAMMPS}},
 booktitle = {Proceedings of the International Conference on Parallel
    Computing (ParCo 2019), Prague, Czech Republic},
 doi =     {10.3233/APC200086},
 year =    2019
}

CITE-CITE-CITE-CITE-CITE-CITE-CITE-CITE-CITE-CITE-CITE-CITE-CITE

Generated 1 of 1 mixed pair_coeff terms from arithmetic mixing rule
Per MPI rank memory allocation (min/avg/max) = 15.03 | 15.03 | 15.03 Mbytes
   Step          Time           Temp          Press         Enthalpy        TotEng         KinEng         PotEng         E_bond        E_angle        E_dihed        E_impro         E_vdwl         E_coul         E_long         E_tail         Volume           Lx             Ly             Lz          Density          Pxx            Pyy            Pzz      
         0   0              300.21447      104.72604      4402.1607      4201.5981      4330.3355     -128.73741      1480.8035      1450.315       2654.8443      0             -5714.7002      0              0             -189.8508       131316.53      50.828404      50.828404      50.828404      0.8589966      75.577698      292.62388     -54.023458    
       100   200            302.30698      972.08652      5901.7779      4079.9672      4360.5181     -280.55087      1441.6701      1432.0032      2620.3335      0             -5774.5578      0              0             -194.00343      128505.71      50.463126      50.463126      50.463126      0.87778552     1172.1619      142.54368      1601.5539    
       200   400            305.55412      1138.323       6161.5758      4053.7571      4407.3553     -353.59826      1416.4351      1442.6938      2636.9339      0             -5849.6611      0              0             -196.35411      126967.29      50.260941      50.260941      50.260941      0.88842139     1383.4545      1061.6653      969.84938    
       300   600            299.08807      1368.4587      6573.0223      4051.0035      4314.0881     -263.0846       1473.8885      1474.8242      2667.8044      0             -5879.6016      0              0             -197.28365      126369.06      50.181879      50.181879      50.181879      0.89262718     1400.2209      1626.6121      1078.543     
       400   800            298.451        1101.2382      5931.6664      3899.543       4304.8989     -405.3559       1402.1192      1417.341       2656.058       0             -5880.8741      0              0             -197.03298      126529.83      50.203151      50.203151      50.203151      0.89149299     1109.9611      1268.1797      925.57367    
       500   1000           305.28263      1874.2502      7500.4189      4053.4141      4403.4394     -350.02521      1435.098       1444.3248      2655.6936      0             -5885.1416      0              0             -197.69397      126106.78      50.147137      50.147137      50.147137      0.89448369     2066.4456      1298.6606      2257.6443    
       600   1200           301.11196      1036.8847      5905.4304      3992.766       4343.2809     -350.51492      1456.3049      1420.452       2650.8019      0             -5878.0737      0              0             -197.1058       126483.08      50.196967      50.196967      50.196967      0.89182248     1225.5589      516.24071      1368.8544    
       700   1400           298.50981      1066.3807      5901.1127      3933.7876      4305.7473     -371.95972      1437.7947      1443.6308      2634.5739      0             -5887.9591      0              0             -197.08059      126499.26      50.199108      50.199108      50.199108      0.89170841     730.23103      1655.0196      813.89132    
       800   1600           294.173        906.44093      5609.3041      3945.8276      4243.1925     -297.36483      1456.19        1471.3337      2701.0098      0             -5925.8983      0              0             -198.12103      125834.95      50.111079      50.111079      50.111079      0.89641597     798.76981      528.97299      1391.58      
       900   1800           303.3057       1023.0308      5970.5796      4100.19        4374.9239     -274.73391      1404.373       1493.9743      2718.7546      0             -5891.8357      0              0             -198.86775      125362.46      50.048281      50.048281      50.048281      0.89979455     473.0792       1061.4426      1534.5707    
      1000   2000           294.39314      611.39502      5097.9798      3971.4822      4246.3678     -274.88556      1441.0288      1481.8858      2722.7233      0             -5920.5234      0              0             -197.33284      126337.56      50.177709      50.177709      50.177709      0.89284974     736.47121      1272.6821     -174.96826    
      1100   2200           293.74951      1582.3572      6717.5707      3812.245       4237.084      -424.83894      1386.0294      1461.458       2624.2245      0             -5896.5508      0              0             -198.02383      125896.71      50.119277      50.119277      50.119277      0.89597616     1055.1168      2349.6351      1342.3197    
      1200   2400           296.49982      2203.9612      8031.2634      3985.5952      4276.7549     -291.15965      1488.1369      1483.1786      2622.4145      0             -5884.8897      0              0             -198.07124      125866.58      50.115278      50.115278      50.115278      0.89619067     1861.7071      1537.6839      3212.4925    
      1300   2600           301.77136      1461.6275      6775.4846      4079.7335      4352.7923     -273.05882      1439.3942      1461.3849      2676.4582      0             -5850.2962      0              0             -197.13542      126464.08      50.194453      50.194453      50.194453      0.89195648     1469.185       1094.8923      1820.8053    
      1400   2800           297.38319      1098.1159      6059.7235      4032.416       4289.4968     -257.08082      1427.981       1474.3725      2693.4834      0             -5852.9177      0              0             -196.94107      126588.88      50.21096       50.21096       50.21096       0.89107711     1881.5856      759.10815      653.65399    
      1500   3000           299.58423      427.57943      4797.7297      4007.8755      4321.2448     -313.36931      1411.6716      1460.5315      2679.54        0             -5865.1124      0              0             -196.82381      126664.3       50.220929      50.220929      50.220929      0.89054657     262.1655       186.66552      833.90727    
      1600   3200           306.98455      1025.8098      6071.7057      4179.3908      4427.9881     -248.59729      1423.841       1491.6985      2676.3907      0             -5840.5274      0              0             -197.09752      126488.4       50.19767       50.19767       50.19767       0.89178501     798.48513      1456.9987      821.94549    
      1700   3400           304.01185      659.35092      5279.4311      4060.5152      4385.1095     -324.59431      1429.6445      1427.3027      2657.3728      0             -5838.9143      0              0             -196.67565      126759.72      50.233537      50.233537      50.233537      0.88987619     1089.324       373.95925      514.76952    
      1800   3600           296.71968      1436.3417      6621.6818      3980.7091      4279.9262     -299.21712      1403.6814      1474.1194      2719.6851      0             -5896.7031      0              0             -197.74322      126075.37      50.142973      50.142973      50.142973      0.89470653     1422.8859      964.13479      1922.0045    
      1900   3800           296.93272      1140.3899      5970.291       3874.8312      4282.9991     -408.16797      1395.0937      1457.4625      2650.3708      0             -5911.0949      0              0             -197.87083      125994.06      50.132192      50.132192      50.132192      0.89528389     684.9677       1427.4512      1308.7508    
      2000   4000           300.7588       1174.4344      6179.6392      4025.9659      4338.187      -312.22112      1461.2806      1470.7339      2640.8606      0             -5885.0962      0              0             -198.26985      125740.5       50.098538      50.098538      50.098538      0.89708932     1234.8065      1206.6329      1081.8638    
      2100   4200           299.47237      1233.734       6295.9533      4022.7701      4319.6314     -296.86126      1449.0963      1482.5206      2680.8735      0             -5909.3517      0              0             -197.33078      126338.88      50.177884      50.177884      50.177884      0.89284039     1207.2542      1227.0683      1266.8793    
      2200   4400           295.34489      1520.037       6824.6174      4032.8611      4260.0959     -227.23488      1447.8287      1499.712       2720.5819      0             -5895.3575      0              0             -197.96316      125935.3       50.124397      50.124397      50.124397      0.89570166     941.11011      1994.1474      1624.8534    
      2300   4600           305.3294       589.13917      5132.3849      4051.5572      4404.114      -352.55685      1409.0952      1476.5398      2678.0084      0             -5916.2003      0              0             -198.18427      125794.8       50.105749      50.105749      50.105749      0.89670209     306.71858      947.92506      512.77385    
      2400   4800           300.72664      1467.3501      6632.741       3950.7384      4337.7231     -386.98471      1446.9155      1450.8162      2648.5187      0             -5933.2352      0              0             -198.92175      125328.42      50.043752      50.043752      50.043752      0.90003889     1463.7062      1342.2684      1596.0756    
      2500   5000           293.51734      844.94443      5429.9354      3875.5754      4233.7352     -358.15983      1421.9356      1454.2103      2684.0173      0             -5918.323       0              0             -197.64429      126138.48      50.151338      50.151338      50.151338      0.8942589      602.02861      900.44553      1032.3591    
      2600   5200           304.24237      1221.8944      6276.4134      4034.656       4388.4345     -353.7785       1442.2251      1425.9187      2689.4382      0             -5911.3605      0              0             -198.1768       125799.54      50.106379      50.106379      50.106379      0.89666828     1113.3469      1595.2919      957.04443    
      2700   5400           307.69479      847.65599      5609.8416      4061.7056      4438.2327     -376.52714      1409.9678      1455.3351      2703.3104      0             -5945.1404      0              0             -199.0757       125231.5       50.030848      50.030848      50.030848      0.90073546     1402.9793      1043.1792      96.809461    
      2800   5600           296.34097      1451.5802      6571.2293      3925.4789      4274.4635     -348.98467      1395.4519      1526.3326      2674.1647      0             -5944.9338      0              0             -199.48025      124977.53      49.997004      49.997004      49.997004      0.90256586     1038.5059      1830.7413      1485.4934    
      2900   5800           299.97148      977.9395       5803.8261      4012.7979      4326.8306     -314.03269      1436.6399      1461.9671      2704.1979      0             -5916.8376      0              0             -198.52596      125578.28      50.076986      50.076986      50.076986      0.89824811     1138.1632      890.01305      905.64226    
      3000   6000           299.05515      953.68595      5786.6303      4037.0751      4313.6133     -276.53819      1435.0314      1458.3931      2732.2918      0             -5902.2545      0              0             -198.19171      125790.07      50.105122      50.105122      50.105122      0.89673574     772.69947      838.32315      1250.0352    
      3100   6200           299.50193      798.07481      5488.342       4021.8364      4320.0577     -298.22139      1439.4262      1477.0486      2665.2874      0             -5879.9835      0              0             -197.86437      125998.17      50.132737      50.132737      50.132737      0.89525468     510.74028      865.5571       1017.9271    
      3200   6400           304.28995      350.52401      4807.0089      4163.0112      4389.1208     -226.10959      1467.449       1469.0976      2747.8634      0             -5910.5197      0              0             -197.89791      125976.82      50.129905      50.129905      50.129905      0.89540642     89.062708      533.4982       429.01111    
      3300   6600           301.40139      1262.0115      6315.5741      4009.762       4347.4558     -337.69378      1428.0146      1518.7691      2652.7502      0             -5937.2278      0              0             -198.99728      125280.86      50.037419      50.037419      50.037419      0.90038063     1454.1357      1068.2002      1263.6987    
      3400   6800           302.55488      463.76297      4867.4232      4015.8803      4364.0938     -348.21352      1420.3548      1463.9747      2660.296       0             -5892.839       0              0             -198.01462      125902.57      50.120054      50.120054      50.120054      0.89593451     549.82454      563.30095      278.16342    
      3500   7000           307.30269      840.55654      5720.7069      4173.323       4432.5769     -259.25392      1452.8567      1502.3211      2714.8394      0             -5929.2711      0              0             -197.50432      126227.87      50.163183      50.163183      50.163183      0.89362561     716.44486      836.87739      968.34738    
      3600   7200           303.61546      510.65689      4982.712       4048.4523      4379.3919     -330.93965      1455.8934      1448.1055      2677.0226      0             -5911.9612      0              0             -198.73269      125447.65      50.059616      50.059616      50.059616      0.89918349     36.450389      438.68885      1056.8314    
      3700   7400           300.7534       1254.865       6261.1068      3977.7306      4338.1091     -360.37847      1388.8477      1441.9106      2729.5897      0             -5920.7264      0              0             -199.81463      124768.39      49.9691        49.9691        49.9691        0.90407879     1369.0315      646.3515       1749.2121    
      3800   7600           297.83646      1059.9329      5924.5088      3986.5297      4296.0348     -309.50506      1414.7457      1476.3147      2720.3071      0             -5920.8726      0              0             -198.85524      125370.34      50.049331      50.049331      50.049331      0.89973794     832.03965      1448.793       898.96604    
      3900   7800           307.71649      1945.9226      7751.3092      4183.5216      4438.5456     -255.02405      1472.2323      1488.7355      2729.575       0             -5945.5668      0              0             -198.3053       125718.02      50.095553      50.095553      50.095553      0.89724969     1482.0163      1693.5653      2662.1863    
      4000   8000           299.68246      1676.774       7129.9452      4037.4627      4322.6617     -285.19903      1428.4608      1469.7918      2694.5038      0             -5877.9554      0              0             -197.14013      126461.06      50.194054      50.194054      50.194054      0.89197778     1074.6709      1560.9936      2394.6576    
      4100   8200           304.62254      1353.7777      6603.0941      4115.5693      4393.9181     -278.34882      1443.2408      1513.9004      2661.2277      0             -5896.7178      0              0             -197.87352      125992.35      50.131965      50.131965      50.131965      0.89529606     2338.515       1202.3852      520.43297    
      4200   8400           297.56048      875.36232      5535.658       3925.5295      4292.0539     -366.52442      1410.3976      1472.3665      2662.3124      0             -5911.6009      0              0             -197.66739      126123.73      50.149384      50.149384      50.149384      0.89436345     194.81962      748.45461      1682.8127    
      4300   8600           303.21818      1826.1502      7364.7671      4022.1188      4373.6614     -351.54264      1446.6804      1493.7557      2650.3679      0             -5942.3466      0              0             -198.63398      125509.99      50.067907      50.067907      50.067907      0.89873685     1661.698       2183.3709      1633.3817    
      4400   8800           300.0781       1199.5738      6227.9122      4042.3006      4328.3684     -286.06781      1466.0449      1439.7552      2730.675       0             -5922.5429      0              0             -199.5546       124930.97      49.990794      49.990794      49.990794      0.90290227     2101.1746      363.22417      1134.3227    
      4500   9000           296.26101      1099.9507      5918.0845      3915.1839      4273.3103     -358.12631      1432.0639      1433.3276      2710.8217      0             -5934.3396      0              0             -199.67403      124856.25      49.980825      49.980825      49.980825      0.90344264     657.76489      1433.6227      1208.4645    
      4600   9200           301.76325      908.86113      5697.9757      4031.4636      4352.6753     -321.21171      1423.9794      1448.257       2748.0722      0             -5941.5203      0              0             -198.28816      125728.88      50.096996      50.096996      50.096996      0.89717216     1019.0218      440.99576      1266.5659    
      4700   9400           302.74641      765.26902      5425.3394      4019.0936      4366.8566     -347.76301      1464.7522      1415.8934      2680.7576      0             -5909.1661      0              0             -197.8612       126000.19      50.133005      50.133005      50.133005      0.89524034     1027.2761      151.83223      1116.6987    
      4800   9600           294.51876      1200.2537      6050.2516      3850.7879      4248.1798     -397.39188      1409.7732      1420.1592      2688.2519      0             -5915.5762      0              0             -198.4102       125651.55      50.086723      50.086723      50.086723      0.89772432     1479.4469      1427.2661      694.04788    
      4900   9800           298.97385      1569.6823      6940.6172      4070.8934      4312.4406     -241.54716      1486.8359      1466.5789      2735.0984      0             -5930.0603      0              0             -198.87464      125358.11      50.047703      50.047703      50.047703      0.89982573     1859.3784      957.04114      1892.6275    
      5000   10000          305.54892      832.67776      5555.9843      4033.5725      4407.2804     -373.70793      1468.0622      1404.6423      2709.2278      0             -5955.6402      0              0             -198.86234      125365.87      50.048735      50.048735      50.048735      0.89977009     1247.6627      239.38875      1010.9819    
      5100   10200          295.10682      421.25201      4686.5966      3918.8041      4256.662      -337.85789      1405.2569      1483.3606      2707.9755      0             -5934.4509      0              0             -199.48298      124975.82      49.996776      49.996776      49.996776      0.90257824     690.00706      575.99543     -2.2464488    
      5200   10400          297.358        684.89294      5302.6891      4053.7907      4289.1333     -235.34258      1468.5497      1477.0451      2786.0807      0             -5967.018       0              0             -199.38998      125034.11      50.004548      50.004548      50.004548      0.90215745     1004.6753      683.01669      366.98681    
      5300   10600          300.03574      926.87616      5694.4499      4000.8947      4327.7575     -326.86275      1459.3239      1437.9737      2708.9634      0             -5933.1238      0              0             -198.98947      125285.77      50.038074      50.038074      50.038074      0.90034529     1036.9441      1063.392       680.29233    
      5400   10800          297.24243      727.7807       5321.7464      3987.4135      4287.4663     -300.0528       1433.4616      1428.5813      2766.1235      0             -5928.2193      0              0             -198.30976      125715.19      50.095177      50.095177      50.095177      0.8972699      1104.7818      10.786701      1067.7736    
      5500   11000          304.109        1305.5538      6568.392       4184.3905      4386.5108     -202.12029      1487.5511      1477.3591      2763.3611      0             -5930.3915      0              0             -199.11134      125209.09      50.027863      50.027863      50.027863      0.9008967      597.91306      2073.5637      1245.1847    
      5600   11200          301.07578      982.3613       5835.5018      4041.491       4342.7592     -301.26812      1428.7575      1472.1838      2725.3905      0             -5927.5999      0              0             -199.09206      125221.21      50.029478      50.029478      50.029478      0.90080948     952.8226       1097.9607      896.30058    
      5700   11400          293.04919      1161.5599      6131.6268      4010.2264      4226.9824     -216.75603      1522.4207      1435.4254      2766.2226      0             -5940.8248      0              0             -199.07958      125229.06      50.030523      50.030523      50.030523      0.90075301     1044.3488      1197.807       1242.5241    
      5800   11600          300.88328      1278.0408      6214.7086      3878.2152      4339.9825     -461.7673       1383.5177      1437.9948      2662.7407      0             -5946.0205      0              0             -198.87853      125355.66      50.047377      50.047377      50.047377      0.89984333     808.85958      1838.2391      1187.0237    
      5900   11800          302.09769      871.7295       5570.5716      3977.2946      4357.4994     -380.20477      1454.0354      1364.5221      2728.9506      0             -5927.7128      0              0             -198.92904      125323.83      50.04314       50.04314       50.04314       0.90007189     825.97283      704.37032      1084.8453    
      6000   12000          302.65035      967.41238      5762.2566      3997.7284      4365.4709     -367.74252      1442.9882      1448.7747      2685.31        0             -5944.8154      0              0             -199.33831      125066.52      50.008868      50.008868      50.008868      0.90192364     978.06765      1218.7931      705.37641    
      6100   12200          296.17752      1231.7513      6188.5735      3938.7845      4272.1059     -333.32143      1383.7093      1498.4385      2725.9507      0             -5941.42        0              0             -199.06228      125239.95      50.031972      50.031972      50.031972      0.90067474     1298.0468      1376.1729      1021.0342    
      6200   12400          300.6588       428.90373      4879.105       4088.0922      4336.7445     -248.65233      1454.2963      1446.9792      2749.7082      0             -5899.6361      0              0             -197.14422      126458.44      50.193707      50.193707      50.193707      0.89199628     388.4238       683.90614      214.38126    
      6300   12600          296.65108      1389.8178      6552.821       4002.972       4278.9367     -275.96472      1459.1785      1445.0173      2732.2162      0             -5912.3768      0              0             -198.17604      125800.02      50.106443      50.106443      50.106443      0.89666484     966.02595      2088.4244      1115.0031    
      6400   12800          296.80532      1098.6717      5948.7287      3943.7808      4281.1614     -337.38057      1451.4873      1447.4179      2706.0309      0             -5942.3166      0              0             -199.2382       125129.37      50.017243      50.017243      50.017243      0.90147069     1240.5822      837.17506      1218.258     
      6500   13000          302.96782      550.87701      5016.9294      4013.5727      4370.0501     -356.47741      1448.5246      1445.2665      2701.7972      0             -5952.0657      0              0             -199.62137      124889.18      49.98522       49.98522       49.98522       0.90320436     311.13946      836.26873      505.22283    
      6600   13200          296.27319      795.54024      5356.2443      3897.1101      4273.4859     -376.37581      1434.0704      1443.9941      2689.0491      0             -5943.4895      0              0             -198.23241      125764.25      50.101693      50.101693      50.101693      0.89691989     1185.8847      1054.5368      146.19924    
      6700   13400          293.40989      1197.3182      6007.6789      3805.9066      4232.1853     -426.27861      1423.3952      1426.263       2667.8471      0             -5943.7839      0              0             -197.71742      126091.82      50.145154      50.145154      50.145154      0.89458979     1218.3356      1030.7577      1342.8613    
      6800   13600          299.96201      713.23046      5318.6864      4017.104       4326.694      -309.58996      1441.4217      1483.7861      2703.2671      0             -5938.0649      0              0             -199.23515      125131.28      50.017498      50.017498      50.017498      0.90145688     136.86401      933.80857      1069.0188    
      6900   13800          298.50484      774.41088      5441.2513      4026.3989      4305.6756     -279.27671      1443.1269      1452.1431      2747.3453      0             -5921.892       0              0             -199.00686      125274.83      50.036617      50.036617      50.036617      0.90042397     808.71422      599.58258      914.93583    
      7000   14000          297.26046      198.75952      4264.9407      3900.711       4287.7264     -387.01541      1377.1243      1454.5893      2704.3067      0             -5923.0357      0              0             -198.40852      125652.61      50.086864      50.086864      50.086864      0.89771675     377.76352      357.07002     -138.55499    
      7100   14200          297.35638      895.79145      5748.1469      4100.8055      4289.11       -188.30452      1489.8992      1480.9587      2730.7983      0             -5889.9607      0              0             -197.7111       126095.85      50.145689      50.145689      50.145689      0.89456119     18.555128      1441.0861      1227.7331    
      7200   14400          300.384        902.81832      5643.1156      3989.7232      4332.7809     -343.0577       1440.7857      1422.7921      2725.9386      0             -5932.5741      0              0             -198.53276      125573.99      50.076415      50.076415      50.076415      0.89827884     1054.5305      622.72731      1031.1972    
      7300   14600          300.55009      1206.6778      6150.0398      3942.3322      4335.1765     -392.84428      1421.1714      1430.0572      2708.4521      0             -5952.525       0              0             -198.72729      125451.06      50.06007       50.06007       50.06007       0.89915902     1514.6446      947.70523      1157.6835    
      7400   14800          292.76136      1071.4359      5872.6159      3908.783       4222.8309     -314.04789      1474.3945      1431.7813      2689.7377      0             -5909.9614      0              0             -198.36699      125678.93      50.09036       50.09036       50.09036       0.8975288      732.96851      1776.2098      705.12937    
      7500   15000          290.26113      310.9109       4419.0871      3849.494       4186.7671     -337.27313      1403.5628      1478.7242      2735.2074      0             -5954.7675      0              0             -198.46273      125618.29      50.082303      50.082303      50.082303      0.89796203     407.85385      489.04387      35.834975    
      7600   15200          302.431        1019.6113      5905.5661      4051.311       4362.3071     -310.99605      1430.4724      1511.4861      2722.6338      0             -5975.5884      0              0             -199.92766      124697.85      49.959681      49.959681      49.959681      0.90459022     967.24725      759.26621      1332.3204    
      7700   15400          303.93509      1007.0985      5782.4823      3948.7232      4384.0022     -435.27905      1387.4764      1415.3429      2689.2965      0             -5927.3949      0              0             -199.6813       124851.7       49.980218      49.980218      49.980218      0.90347556     1209.9485      929.33661      882.01053    
      7800   15600          292.55142      790.47741      5319.0952      3874.7314      4219.8025     -345.07111      1440.0588      1441.0681      2722.6889      0             -5948.887       0              0             -198.98513      125288.51      50.038438      50.038438      50.038438      0.90032566     1008.4295      968.2025       394.80022    
      7900   15800          300.99032      953.06027      5724.0891      3985.8679      4341.5265     -355.65863      1387.4627      1468.0895      2729.4518      0             -5940.6626      0              0             -199.35314      125057.22      50.007628      50.007628      50.007628      0.90199073     1220.3462      452.7978       1186.0368    
      8000   16000          301.7398       588.89704      5048.6123      3973.1205      4352.337      -379.21657      1446.2091      1427.0684      2710.5835      0             -5963.0775      0              0             -199.08566      125225.24      50.030014      50.030014      50.030014      0.90078051     702.26483      109.87563      954.55065    
      8100   16200          297.1148       1415.116       6509.5273      3934.4127      4285.6255     -351.21276      1424.3575      1475.3332      2705.6663      0             -5956.5697      0              0             -199.80356      124775.3       49.970022      49.970022      49.970022      0.90402872     1319.3019      1501.0072      1425.0389    
      8200   16400          307.46596      21.824999      4110.5559      4070.6763      4434.932      -364.25563      1422.3418      1425.6145      2741.2949      0             -5953.5068      0              0             -198.98101      125291.1       50.038783      50.038783      50.038783      0.900307      -81.25123       408.43475     -261.70852    
      8300   16600          300.62335      798.69667      5396.3434      3940.8351      4336.2332     -395.39812      1411.466       1444.496       2675.3953      0             -5926.7554      0              0             -199.51471      124955.95      49.994126      49.994126      49.994126      0.90272178     263.99199      966.66147      1165.4366    
      8400   16800          298.10666      969.74897      5690.459       3924.5714      4299.9322     -375.36083      1450.1002      1425.2172      2693.0027      0             -5943.681       0              0             -199.66595      124861.3       49.9815        49.9815        49.9815        0.90340607     702.66875      1346.588       859.99014    
      8500   17000          307.55173      322.36041      4667.7468      4079.7493      4436.1692     -356.41985      1431.5067      1482.8962      2685.009       0             -5955.8317      0              0             -199.33062      125071.35      50.009512      50.009512      50.009512      0.90188885     649.06271      896.76918     -578.75065    
      8600   17200          299.96707      1166.5671      6054.4659      3927.5778      4326.767      -399.18919      1397.6076      1453.634       2701.5773      0             -5952.0081      0              0             -199.42189      125014.11      50.001881      50.001881      50.001881      0.9023018      935.23459      1196.6478      1367.819     
      8700   17400          303.51492      1812.481       7294.927       3982.4261      4377.9417     -395.51556      1418.1801      1408.1755      2741.4468      0             -5963.3179      0              0             -198.94142      125316.03      50.042102      50.042102      50.042102      0.90012789     1986.4232      1437.4786      2013.5413    
      8800   17600          304.30117      1299.3856      6526.3287      4155.7721      4389.2826     -233.5105       1420.0166      1498.4873      2758.28        0             -5910.2944      0              0             -199.29457      125093.97      50.012526      50.012526      50.012526      0.90172575     1544.0908      1261.3767      1092.6894    
      8900   17800          300.73396      1461.4356      6686.1338      4003.6723      4337.8287     -334.15635      1471.8023      1457.5369      2676.3686      0             -5939.8641      0              0             -198.08607      125857.16      50.114027      50.114027      50.114027      0.89625778     1321.1521      1813.5295      1249.6254    
      9000   18000          306.59841      903.12454      5694.4783      4035.2559      4422.4184     -387.16255      1423.9059      1418.4697      2694.1305      0             -5923.6686      0              0             -197.90227      125974.04      50.129537      50.129537      50.129537      0.89542616     1097.9204      1018.7453      592.70791    
      9100   18200          295.57632      1721.5297      7062.1362      3923.6785      4263.4342     -339.75569      1436.4488      1454.4951      2710.1685      0             -5940.8681      0              0             -199.43712      125004.56      50.000608      50.000608      50.000608      0.90237071     1749.8386      1424.9583      1989.7923    
      9200   18400          294.87132      2006.9917      7579.3444      3900.8866      4253.2651     -352.37851      1411.6167      1450.2554      2740.7522      0             -5955.0028      0              0             -198.37527      125673.67      50.089662      50.089662      50.089662      0.89756631     1927.6133      2092.2845      2001.0774    
      9300   18600          302.90357      1393.2196      6568.9843      4017.9534      4369.1235     -351.17007      1459.6152      1453.375       2691.0136      0             -5955.1738      0              0             -198.56907      125551.02      50.073361      50.073361      50.073361      0.89844317     1358.6541      1500.0447      1320.9601    
      9400   18800          293.98998      1252.5241      6225.726       3944.6197      4240.5525     -295.93284      1444.6479      1475.4556      2725.7879      0             -5941.8243      0              0             -199.64035      124877.31      49.983636      49.983636      49.983636      0.90329024     1260.0039      1177.2274      1320.3411    
      9500   19000          303.03062      942.52438      5734.2645      4008.1895      4370.9561     -362.76656      1469.6725      1445.86        2687.2328      0             -5965.5319      0              0             -198.53665      125571.53      50.076088      50.076088      50.076088      0.89829645     528.88405      1070.8228      1227.8663    
      9600   19200          301.83766      879.82378      5678.7825      4066.3526      4353.7486     -287.39602      1437.2814      1535.2639      2710.0848      0             -5970.0262      0              0             -198.3913       125663.53      50.088314      50.088314      50.088314      0.8976388      556.11913      712.82154      1370.5307    
      9700   19400          300.54803      1230.3053      6208.8246      3966.0385      4335.1468     -369.10834      1428.6485      1465.035       2692.9097      0             -5955.7016      0              0             -199.44943      124996.85      49.999579      49.999579      49.999579      0.90242641     1146.3562      1515.1496      1029.4103    
      9800   19600          303.38154      1089.1801      6111.3163      4121.7386      4376.0177     -254.27912      1493.6583      1475.9009      2721.3594      0             -5945.1978      0              0             -199.04282      125252.19      50.033603      50.033603      50.033603      0.90058668     1614.7577      594.57343      1058.2091    
      9900   19800          303.12918      1765.1871      7261.5793      4023.1641      4372.3776     -349.21351      1435.956       1469.5828      2658.7204      0             -5913.4727      0              0             -198.1828       125795.73      50.105872      50.105872      50.105872      0.89669545     1353.5549      1682.2034      2259.8031    
     10000   20000          300.17971      1033.0475      5831.9671      3939.9472      4329.8341     -389.88694      1432.3214      1382.8351      2726.9236      0             -5931.9671      0              0             -198.51911      125582.62      50.077562      50.077562      50.077562      0.89821711     1295.5814      1033.9569      769.60416    
     10100   20200          297.34578      1750.9107      7116.5734      3926.2441      4288.9571     -362.71295      1421.1689      1470.1976      2680.9975      0             -5935.0769      0              0             -199.54288      124938.31      49.991773      49.991773      49.991773      0.90284924     2123.2382      1385.211       1744.2829    
     10200   20400          302.95188      459.44591      4857.8788      4016.7514      4369.8203     -353.06893      1412.0699      1477.1517      2692.4802      0             -5934.7707      0              0             -198.6005       125531.15      50.07072       50.07072       50.07072       0.89858538     691.78897      459.92853      226.62023    
     10300   20600          295.84835      1513.6827      6761.8305      3996.7015      4267.3579     -270.65643      1473.6836      1456.5926      2728.8754      0             -5929.8079      0              0             -199.03397      125257.76      50.034345      50.034345      50.034345      0.90054662     939.48824      1715.0464      1886.5135    
     10400   20800          293.1135       667.40053      5098.2446      3882.8439      4227.9101     -345.06613      1416.0017      1479.9264      2694.9538      0             -5935.9481      0              0             -199.65253      124869.69      49.982619      49.982619      49.982619      0.90334536     1094.9241      868.58421      38.693224    
     10500   21000          302.78467      1038.3393      5918.5927      4022.2697      4367.4084     -345.13873      1409.911       1487.5113      2710.7317      0             -5953.2927      0              0             -199.08324      125226.76      50.030216      50.030216      50.030216      0.90076958     1141.7276      1671.8439      301.44632    
     10600   21200          300.11101      197.46859      4350.265       3988.8037      4328.8432     -340.03958      1414.3554      1493.3013      2664.9108      0             -5912.6071      0              0             -198.62955      125512.79      50.068279      50.068279      50.068279      0.8987168      372.60896      154.45684      65.339981    
     10700   21400          294.8791       1039.9572      5772.197       3864.6759      4253.3774     -388.70141      1406.4434      1440.9854      2679.7561      0             -5915.8863      0              0             -198.22292      125770.27      50.102492      50.102492      50.102492      0.89687695     852.33091      776.09373      1491.4469    
     10800   21600          299.21913      981.02281      5839.854       4042.5289      4315.9786     -273.44971      1472.5692      1486.8676      2686.9097      0             -5919.7962      0              0             -198.45415      125623.73      50.083025      50.083025      50.083025      0.89792319     816.97616      1300.0958      825.99642    
     10900   21800          300.13494      1297.8535      6410.0418      4030.213       4329.1884     -298.97535      1451.9018      1486.3889      2657.2068      0             -5894.4729      0              0             -198.28402      125731.51      50.097345      50.097345      50.097345      0.89715342     1725.6229      677.99153      1489.9461    
     11000   22000          296.39021      980.84281      5715.6778      3921.3495      4275.1739     -353.82441      1427.918       1449.4966      2723.8013      0             -5955.0404      0              0             -198.74913      125437.28      50.058236      50.058236      50.058236      0.89925784     1228.9887      1053.1564      660.38338    
     11100   22200          301.2592       1214.1775      6246.11        4031.6192      4345.4048     -313.78555      1463.1005      1439.7408      2688.8235      0             -5905.4503      0              0             -199.34992      125059.24      50.007897      50.007897      50.007897      0.90197619     1773.4528      1459.2195      409.86034    
     11200   22400          300.32672      800.31513      5406.1447      3944.2781      4331.9547     -387.67654      1435.8418      1470.4295      2642.6596      0             -5936.6074      0              0             -199.04947      125248.01      50.033046      50.033046      50.033046      0.90061676     659.02138      853.03877      888.88526    
     11300   22600          300.22379      883.01326      5514.6204      3896.3479      4330.4699     -434.12196      1439.376       1434.23        2621.3405      0             -5929.0684      0              0             -198.39162      125663.32      50.088287      50.088287      50.088287      0.89764027     824.00022      1162.0147      663.02485    
     11400   22800          299.259        1109.1769      6104.2788      4072.3848      4316.5537     -244.16888      1473.4836      1487.2941      2712.6049      0             -5917.5515      0              0             -198.47578      125610.04      50.081206      50.081206      50.081206      0.89802104     1029.9138      1196.105       1101.512     
     11500   23000          296.67187      987.19355      5764.6139      3959.5242      4279.2366     -319.71236      1456.9635      1469.8155      2688.7647      0             -5935.2561      0              0             -198.84344      125377.78      50.05032       50.05032       50.05032       0.89968455     1090.8977      584.5095       1286.1734    
     11600   23200          291.10158      1428.4175      6401.8598      3790.4054      4198.8899     -408.48458      1446.7472      1448.3009      2642.9281      0             -5946.4608      0              0             -198.87511      125357.81      50.047663      50.047663      50.047663      0.89982787     1348.8937      1570.1753      1366.1834    
     11700   23400          300.01936      1000.3392      5779.5857      3950.9898      4327.5212     -376.53145      1411.4701      1492.1437      2684.839       0             -5964.9842      0              0             -198.90114      125341.41      50.04548       50.04548       50.04548       0.89994563     971.5386       1421.2591      608.21978    
     11800   23600          301.17343      1276.6227      6342.6829      4021.1808      4344.1676     -322.98683      1468.8136      1462.7888      2693.8036      0             -5948.3929      0              0             -199.9407       124689.72      49.958595      49.958595      49.958595      0.9046492      922.85882      948.30659      1958.7026    
     11900   23800          300.20768      1051.0666      5927.4166      4006.9232      4330.2376     -323.31441      1450.1798      1500.2481      2696.4496      0             -5970.1918      0              0             -198.9872       125287.2       50.038264      50.038264      50.038264      0.90033502     1359.7565      1102.5235      690.9197     
     12000   24000          298.64601      1083.7587      5891.2345      3910.6059      4307.7119     -397.10602      1433.1834      1450.863       2701.4204      0             -5982.5729      0              0             -198.94694      125312.55      50.041639      50.041639      50.041639      0.90015287     1529.4555      823.00485      898.81573    
     12100   24200          304.16036      637.44723      5249.3096      4092.8691      4387.2516     -294.38242      1475.3697      1484.7716      2710.3415      0             -5964.8653      0              0             -200.41429      124395.07      49.919212      49.919212      49.919212      0.90679202     484.3935       384.06052      1043.8877    
     12200   24400          298.88851      1155.9079      6008.7811      3915.1874      4311.2096     -396.02225      1420.7751      1425.5274      2742.8296      0             -5985.1543      0              0             -200.74215      124191.9       49.892021      49.892021      49.892021      0.90827544     517.10486      1634.818       1315.8008    
     12300   24600          300.35124      933.52295      5637.5031      3935.4377      4332.3083     -396.87067      1419.1255      1430.1259      2717.2223      0             -5963.3444      0              0             -199.41439      125018.81      50.002508      50.002508      50.002508      0.90226787     1385.9787      700.17776      714.41236    
     12400   24800          303.21631      1155.8119      6141.6971      4030.7655      4373.6345     -342.86903      1455.5738      1463.3064      2720.5913      0             -5982.3405      0              0             -199.07683      125230.79      50.030753      50.030753      50.030753      0.90074057     1377.0309      963.90198      1126.5027    
     12500   25000          297.36511      1030.4689      5745.2877      3862.7967      4289.2359     -426.43915      1442.2675      1392.4279      2694.0662      0             -5955.2007      0              0             -199.02596      125262.8       50.035016      50.035016      50.035016      0.90051038     727.47986      1254.0051      1109.9217    
     12600   25200          304.05654      680.99994      5284.9279      4037.7006      4385.754      -348.05336      1432.3154      1459.6791      2699.9478      0             -5939.9957      0              0             -198.52226      125580.63      50.077297      50.077297      50.077297      0.89823135     556.57201      642.742        843.68582    
     12700   25400          303.9633       727.03119      5331.1923      4001.6356      4384.4091     -382.77348      1405.0634      1484.6704      2643.8028      0             -5916.3101      0              0             -198.81719      125394.34      50.052523      50.052523      50.052523      0.89956577     1523.6513      52.085622      605.35661    
     12800   25600          299.24179      1494.8165      6610.544       3893.9767      4316.3054     -422.32869      1431.8645      1450.979       2686.3711      0             -5991.5433      0              0             -200.06686      124611.09      49.948092      49.948092      49.948092      0.90522002     1972.6785      1238.3012      1273.4697    
     12900   25800          299.7271       1513.1278      6654.2606      3896.5882      4323.3056     -426.71741      1406.9733      1457.0975      2676.8801      0             -5967.6682      0              0             -199.49898      124965.8       49.995439      49.995439      49.995439      0.90265062     1189.6057      1833.6516      1516.126     
     13000   26000          302.06062      959.2034       5792.2849      4035.8806      4356.9646     -321.08408      1460.8868      1479.8656      2684.4192      0             -5946.2557      0              0             -198.561        125556.12      50.07404       50.07404       50.07404       0.89840666     879.66794      935.49992      1062.4424    
     13100   26200          308.02854      1140.8788      6234.2977      4151.1061      4443.0467     -291.94062      1481.1037      1459.6329      2708.4269      0             -5941.1041      0              0             -199.12144      125202.74      50.027017      50.027017      50.027017      0.9009424      1399.7264      800.16955      1222.7403    
     13200   26400          297.58544      928.02701      5714.8477      4020.3914      4292.414      -272.02268      1458.5848      1470.2466      2732.1654      0             -5933.0195      0              0             -199.13059      125196.99      50.026251      50.026251      50.026251      0.9009838      857.717        1061.5203      864.84373    
     13300   26600          301.50995      965.7478       5754.0703      3996.3502      4349.0217     -352.6715       1442.6155      1437.1279      2714.1624      0             -5946.5773      0              0             -199.76608      124798.71      49.973147      49.973147      49.973147      0.90385913     984.44051      815.57817      1097.2247    
     13400   26800          299.83999      1296.7775      6386.9582      4018.0041      4324.934      -306.92982      1444.3929      1486.8298      2725.9183      0             -5964.0708      0              0             -199.02909      125260.83      50.034754      50.034754      50.034754      0.90052455     1874.4947      935.60187      1080.2359    
     13500   27000          296.67333      1116.5941      5948.4185      3908.9126      4279.2576     -370.34499      1425.0064      1461.5906      2689.6931      0             -5946.6352      0              0             -199.05731      125243.08      50.032389      50.032389      50.032389      0.90065223     1341.7179      1265.2892      742.77537    
     13600   27200          301.48497      838.99694      5554.1243      4023.4538      4348.6614     -325.20761      1449.8222      1450.8666      2710.4329      0             -5936.3293      0              0             -199.29042      125096.58      50.012874      50.012874      50.012874      0.90170695     1265.3327      468.12167      783.53645    
     13700   27400          305.51748      1358.5918      6528.2118      4042.2991      4406.8268     -364.52773      1459.2653      1449.1702      2664.5872      0             -5937.5504      0              0             -198.70594      125464.54      50.061863      50.061863      50.061863      0.89906241     1248.817       1231.7545      1595.2038    
     13800   27600          300.85103      1044.4019      5853.9783      3933.1725      4339.5173     -406.34484      1421.5039      1454.6822      2654.4738      0             -5937.0047      0              0             -197.69328      126107.22      50.147195      50.147195      50.147195      0.89448056     1275.7792      1196.1615      661.26482    
     13900   27800          301.98984      828.94463      5504.1274      3985.7717      4355.9437     -370.172        1420.2025      1498.9064      2615.1408      0             -5904.4216      0              0             -198.49965      125594.93      50.079199      50.079199      50.079199      0.89812905     1455.7937      888.75284      142.28731    
     14000   28000          297.4896       988.26566      5712.2781      3912.1487      4291.0316     -378.88285      1485.4701      1440.8515      2646.8581      0             -5952.0626      0              0             -199.6079       124897.61      49.986344      49.986344      49.986344      0.90314345     867.88893      921.71163      1175.1964    
     14100   28200          297.90857      1229.263       6142.0904      3904.1239      4297.0748     -392.9509       1445.259       1470.5193      2667.5329      0             -5976.2621      0              0             -199.70961      124834         49.977857      49.977857      49.977857      0.90360363     999.41867      1300.0144      1388.3558    
     14200   28400          298.86945      782.41282      5436.271       4003.2576      4310.9347     -307.67715      1503.7737      1385.9614      2703.6756      0             -5901.0879      0              0             -198.51506      125585.18      50.077903      50.077903      50.077903      0.89819877     827.37954      507.67383      1012.1851    
     14300   28600          298.53511      1432.3772      6627.7061      4010.6264      4306.1121     -295.48571      1508.5947      1414.891       2752.8567      0             -5971.828       0              0             -198.99776      125280.55      50.037379      50.037379      50.037379      0.90038281     1312.7172      1473.042       1511.3723    
     14400   28800          301.36984      1341.052       6391.6277      3943.7395      4347.0007     -403.26122      1474.1482      1441.4381      2650.2208      0             -5969.0683      0              0             -199.18737      125161.3       50.021497      50.021497      50.021497      0.90124069     1619.5016      1490.125       913.52942    
     14500   29000          300.24887      1018.1524      5770.4692      3914.8618      4330.8317     -415.96986      1460.7047      1456.3694      2625.1895      0             -5958.2334      0              0             -199.4961       124967.6       49.99568       49.99568       49.99568       0.90263758     916.67871      893.62282      1244.1556    
     14600   29200          302.88625      1174.0226      6141.2566      4007.0528      4368.8736     -361.82088      1405.7078      1479.042       2706.6798      0             -5953.2504      0              0             -200.00843      124647.49      49.952955      49.952955      49.952955      0.90495568     1104.9345      968.21301      1448.9203    
     14700   29400          304.40194      1682.2241      7162.2372      4100.7804      4390.7362     -289.95576      1484.7832      1502.0056      2704.9309      0             -5981.6755      0              0             -199.78527      124786.73      49.971547      49.971547      49.971547      0.90394595     2125.4324      2182.2104      739.02955    
     14800   29600          300.50255      747.93939      5269.541       3903.93        4334.4908     -430.56079      1417.4305      1432.6067      2657.2371      0             -5937.8351      0              0             -199.13479      125194.34      50.025899      50.025899      50.025899      0.90100283     1001.7673      238.72146      1003.3294    
     14900   29800          299.40959      717.41672      5308.1677      3998.7649      4318.7257     -319.96084      1487.4595      1447.5692      2692.3833      0             -5947.3729      0              0             -199.20763      125148.57      50.019802      50.019802      50.019802      0.90133235     220.13174      117.97686      1814.1415    
     15000   30000          307.22966      984.15345      5804.4767      4010.8468      4431.5235     -420.67669      1411.728       1419.5949      2686.0758      0             -5938.0755      0              0             -199.49763      124966.65      49.995552      49.995552      49.995552      0.9026445      816.22743      1562.7075      573.52541    
     15100   30200          297.33365      1038.8084      5781.8641      3886.6005      4288.7821     -402.18159      1453.7709      1427.6576      2664.9053      0             -5948.5153      0              0             -199.28453      125100.28      50.013366      50.013366      50.013366      0.90168031     1116.1933      1008.6863      991.54561    
     15200   30400          298.22449      810.05293      5501.5454      4021.0139      4301.6317     -280.61783      1444.8979      1463.7985      2761.5734      0             -5950.8877      0              0             -198.93147      125322.3       50.042937      50.042937      50.042937      0.90008285     950.12096      382.18737      1097.8504    
     15300   30600          300.76792      625.45392      5210.4142      4068.4469      4338.3185     -269.87159      1470.3861      1457.0201      2747.2856      0             -5944.5634      0              0             -199.13584      125193.69      50.025812      50.025812      50.025812      0.90100753     455.41608      725.57906      695.36663    
     15400   30800          295.5825       847.1662       5440.4411      3894.994       4263.5233     -368.52931      1473.5921      1456.2598      2674.2707      0             -5972.6519      0              0             -199.30685      125086.27      50.0115        50.0115        50.0115        0.90178129     1309.0784      992.46772      239.9525     
     15500   31000          300.93638      764.16107      5401.4032      4003.0011      4340.7484     -337.74732      1466.9156      1484.7684      2648.1893      0             -5937.6206      0              0             -198.68295      125479.06      50.063793      50.063793      50.063793      0.8989584      136.49418      747.22249      1408.7666    
     15600   31200          297.43293      718.65817      5360.1848      4048.7302      4290.2142     -241.48402      1457.8251      1487.9058      2753.6404      0             -5940.8552      0              0             -199.24014      125128.15      50.01708       50.01708       50.01708       0.90147947     940.74369      618.35712      596.8737     
     15700   31400          293.83318      818.95787      5419.5839      3928.7539      4238.2909     -309.53701      1455.9749      1483.683       2696.1254      0             -5945.3203      0              0             -199.72902      124821.87      49.976238      49.976238      49.976238      0.90369145     1111.0838      598.10001      747.68976    
     15800   31600          294.95742      877.51091      5462.7223      3870.0726      4254.5071     -384.43444      1435.791       1450.2183      2698.9116      0             -5969.3553      0              0             -200.32724      124449.12      49.926441      49.926441      49.926441      0.90639817     322.95614      1226.7214      1082.8552    
     15900   31800          301.56183      735.97864      5333.624       3987.1485      4349.77       -362.62155      1455.6208      1410.7379      2715.9242      0             -5944.9045      0              0             -198.73506      125446.16      50.059417      50.059417      50.059417      0.89919417     212.29629      1256.2348      739.40486    
     16000   32000          304.50071      1272.0441      6409.03        4082.7984      4392.1608     -309.36235      1476.3459      1461.1027      2720.3812      0             -5967.1921      0              0             -198.81858      125393.46      50.052406      50.052406      50.052406      0.89957209     1322.2474      998.11118      1495.7739    
     16100   32200          296.07554      809.53491      5463.966       3990.8538      4270.6349     -279.78109      1531.8077      1437.0568      2690.2047      0             -5938.8502      0              0             -199.80553      124774.07      49.969858      49.969858      49.969858      0.90403762     710.56557      318.49399      1399.5452    
     16200   32400          304.26133      1243.7751      6189.5258      3917.8958      4388.708      -470.81224      1372.1921      1455.1595      2674.7349      0             -5972.8987      0              0             -199.07283      125233.31      50.031088      50.031088      50.031088      0.90072248     1603.8741      1458.7602      668.69103    
     16300   32600          304.18549      1457.107       6759.6315      4100.7396      4387.614      -286.87438      1489.8578      1457.3479      2742.6536      0             -5976.7336      0              0             -199.25009      125121.9       50.016248      50.016248      50.016248      0.90152447     1476.1103      1562.11        1333.1006    
     16400   32800          301.33438      1646.1912      7021.8406      4024.327       4346.4892     -322.16215      1440.5036      1474.8193      2700.6213      0             -5938.1063      0              0             -199.67645      124854.73      49.980623      49.980623      49.980623      0.90345361     1263.6818      1550.6719      2124.2198    
     16500   33000          296.5686       1154.4832      6039.4969      3936.0199      4277.747      -341.7271       1461.7165      1460.9453      2693.1177      0             -5957.5066      0              0             -199.55269      124932.17      49.990954      49.990954      49.990954      0.90289362     1458.7708      1071.0814      933.59735    
     16600   33200          297.64489      1044.138       5917.9108      4006.0763      4293.2715     -287.19524      1487.3682      1463.9991      2720.4741      0             -5959.0366      0              0             -198.57079      125549.93      50.073217      50.073217      50.073217      0.89845094     1007.9739      1608.1028      516.33741    
     16700   33400          299.10316      1499.1023      6704.3692      3973.8875      4314.3057     -340.41828      1425.7544      1462.4627      2733.4225      0             -5962.0578      0              0             -199.61801      124891.28      49.9855        49.9855        49.9855        0.90318919     987.84729      1313.7706      2195.689     
     16800   33600          300.27099      1015.9981      5774.8097      3922.9576      4331.1507     -408.19309      1439.2281      1454.7533      2703.959       0             -6006.1335      0              0             -199.4777       124979.13      49.997217      49.997217      49.997217      0.90255434     672.3042       1482.9354      892.75485    
     16900   33800          303.88013      1308.7625      6437.6022      4052.2504      4383.2094     -330.95903      1471.7633      1522.5842      2683.7553      0             -6009.0618      0              0             -199.48771      124972.86      49.996381      49.996381      49.996381      0.90259962     1180.4051      1232.1565      1513.7259    
     17000   34000          298.27835      1028.665       5790.3955      3915.6297      4302.4087     -386.77895      1426.1609      1440.4888      2685.58        0             -5939.0086      0              0             -199.49623      124967.52      49.995669      49.995669      49.995669      0.90263819     221.78724      1557.9916      1306.2163    
     17100   34200          296.98669      881.00482      5510.8172      3904.5284      4283.7775     -379.24908      1448.9521      1457.6535      2691.5657      0             -5977.4203      0              0             -199.4171       125017.11      50.002281      50.002281      50.002281      0.90228013     618.85591      987.17458      1036.984     
     17200   34400          305.26153      1343.9854      6491.291       4058.3448      4403.135      -344.79021      1485.9648      1427.3641      2733.3118      0             -5991.4309      0              0             -200.84905      124125.8       49.883167      49.883167      49.883167      0.90875913     1311.4167      1681.8967      1038.6427    
     17300   34600          301.61605      1384.2048      6411.1819      3898.1517      4350.5521     -452.40042      1393.5296      1457.1387      2688.7669      0             -5991.8356      0              0             -200.26746      124486.27      49.931409      49.931409      49.931409      0.90612767     834.68252      1348.678       1969.254     
     17400   34800          296.47945      1333.438       6318.5848      3887.9082      4276.461      -388.55285      1402.972       1515.9259      2693.2923      0             -6000.743       0              0             -199.45888      124990.92      49.998789      49.998789      49.998789      0.9024692      968.40143      1509.1095      1522.803     
     17500   35000          295.76263      829.10691      5518.3614      4004.6061      4266.1215     -261.51534      1446.1783      1511.9397      2739.7254      0             -5959.3587      0              0             -199.14188      125189.89      50.025306      50.025306      50.025306      0.90103486     1152.0116      944.93318      390.37595    
     17600   35200          305.16366      1051.9539      5930.3099      4012.7249      4401.7233     -388.99849      1432.926       1475.7598      2688.0827      0             -5985.767       0              0             -199.45725      124991.95      49.998926      49.998926      49.998926      0.90246178     797.46751      1075.5717      1282.8225    
     17700   35400          296.10048      665.2944       5104.9668      3890.9321      4270.9948     -380.06266      1441.0367      1461.6937      2683.2348      0             -5966.0278      0              0             -199.24642      125124.2       50.016555      50.016555      50.016555      0.90150789     79.524842      1327.1989      589.15943    
     17800   35600          300.48109      963.64264      5808.1794      4050.8023      4334.1813     -283.37895      1449.7246      1474.7723      2750.074       0             -5957.9498      0              0             -199.36953      125046.94      50.006258      50.006258      50.006258      0.90206492     785.78011      1098.199       1006.9488    
     17900   35800          300.51253      1035.5698      5895.2512      4006.6898      4334.6348     -327.94502      1436.1441      1509.7097      2681.1888      0             -5954.9876      0              0             -199.36825      125047.75      50.006365      50.006365      50.006365      0.90205909     1226.6818      1263.4832      616.5442     
     18000   36000          299.93301      886.7748       5547.4478      3934.097       4326.2756     -392.17863      1437.2553      1483.4049      2663.6797      0             -5976.5186      0              0             -199.84454      124749.72      49.966607      49.966607      49.966607      0.90421412     372.36935      1096.7944      1191.1607    
     18100   36200          301.5522       760.89501      5351.7761      3963.6499      4349.6311     -385.98116      1454.899       1408.3558      2721.3806      0             -5970.6165      0              0             -199.29827      125091.65      50.012217      50.012217      50.012217      0.90174249     815.79913      516.33873      950.54717    
     18200   36400          301.84071      989.5524       5770.7799      3971.7355      4353.7926     -382.05714      1461.7104      1470.5666      2656.8118      0             -5971.146       0              0             -199.98833      124660.02      49.954628      49.954628      49.954628      0.90486473     1267.7094      859.79174      841.15609    
     18300   36600          304.63242      797.82008      5562.3771      4109.626       4394.0606     -284.43459      1450.7097      1473.5595      2782.4332      0             -5991.1369      0              0             -199.67399      124856.27      49.980829      49.980829      49.980829      0.90344244     1284.2724      744.286        364.90185    
     18400   36800          301.42439      910.41887      5620.4684      3958.0733      4347.7875     -389.71414      1412.8091      1425.6083      2719.1758      0             -5947.3074      0              0             -199.11994      125203.68      50.027143      50.027143      50.027143      0.90093561     101.99161      1487.8986      1141.3664    
     18500   37000          299.87348      1333.4581      6414.1338      3986.8669      4325.4169     -338.55001      1439.3249      1464.9189      2722.7512      0             -5965.5449      0              0             -199.74209      124813.7       49.975148      49.975148      49.975148      0.90375057     1601.7006      670.77177      1727.9019    
     18600   37200          305.11603      1385.6197      6737.4026      4210.6578      4401.0363     -190.37842      1464.3078      1537.4666      2745.191       0             -5937.3438      0              0             -199.38405      125037.83      50.005044      50.005044      50.005044      0.90213062     1431.6939      1132.9548      1592.2106    
     18700   37400          300.73032      1192.9473      6272.3771      4099.3787      4337.7762     -238.39745      1467.5107      1486.3016      2766.3176      0             -5958.5273      0              0             -199.60416      124899.95      49.986656      49.986656      49.986656      0.90312652     1656.8552      1008.862       913.12459    
     18800   37600          299.48456      1717.6289      7048.0111      3922.3808      4319.8072     -397.42631      1425.7672      1442.9678      2707.0844      0             -5973.2458      0              0             -199.80183      124776.38      49.970167      49.970167      49.970167      0.90402088     1412.2633      1447.068       2293.5553    
     18900   37800          300.23316      1941.0887      7538.1768      4016.7975      4330.6051     -313.80759      1489.6743      1473.2019      2702.5651      0             -5979.2489      0              0             -200.41966      124391.74      49.918766      49.918766      49.918766      0.9068163      2288.7533      1867.0794      1667.4336    
     19000   38000          303.02601      1347.6262      6517.8016      4057.3429      4370.8895     -313.54665      1459.3021      1484.6443      2716.08        0             -5973.573       0              0             -199.14119      125190.32      50.025363      50.025363      50.025363      0.90103176     993.53068      1420.3142      1629.0338    
     19100   38200          295.88142      1214.9397      6186.0466      3956.9086      4267.8349     -310.92631      1426.878       1456.4019      2744.8638      0             -5939.07        0              0             -198.16434      125807.45      50.107428      50.107428      50.107428      0.89661192     1290.9216      1084.4534      1269.4441    
     19200   38400          295.62148      1394.6554      6392.7616      3854.1342      4264.0855     -409.95132      1417.9805      1458.0223      2682.2343      0             -5968.1884      0              0             -199.74489      124811.95      49.974914      49.974914      49.974914      0.90376327     1499.2285      1377.8707      1306.867     
     19300   38600          295.89716      1226.134       6258.7953      4028.9945      4268.062      -239.06747      1461.0504      1510.7066      2731.6668      0             -5942.4913      0              0             -199.93075      124695.92      49.959424      49.959424      49.959424      0.90460419     1101.5252      1801.0321      775.84461    
     19400   38800          298.5327       2268.1175      8087.9165      3959.5162      4306.0774     -346.56124      1417.551       1455.7384      2722.0357      0             -5941.8863      0              0             -199.75216      124807.41      49.974308      49.974308      49.974308      0.90379616     1876.1671      2455.3762      2472.8092    
     19500   39000          301.70938      856.18774      5546.7         3991.1474      4351.8983     -360.75094      1405.0579      1470.8064      2748.3225      0             -5984.9377      0              0             -200.12071      124577.56      49.943611      49.943611      49.943611      0.90546367     1320.1438      708.58263      539.8368     
     19600   39200          305.45394      1120.2997      6090.4145      4053.812       4405.9104     -352.09836      1440.0127      1461.8676      2732.5391      0             -5986.5178      0              0             -200.00262      124651.11      49.953439      49.953439      49.953439      0.90492938     879.60405      1132.462       1348.8329    
     19700   39400          297.57265      1191.023       6052.9375      3882.2619      4292.2295     -409.96765      1417.9086      1457.7519      2672.6784      0             -5958.3065      0              0             -199.49544      124968.01      49.995735      49.995735      49.995735      0.90263461     823.68951      1598.0344      1151.3452    
     19800   39600          298.8804       724.54909      5314.5862      3986.3078      4311.0927     -324.78488      1448.9268      1429.025       2730.1628      0             -5932.8995      0              0             -198.32911      125702.93      50.093549      50.093549      50.093549      0.89735741     872.4673       647.64069      653.53929    
     19900   39800          303.78194      1697.0431      7144.9701      4050.13        4381.7932     -331.66323      1419.2069      1457.3421      2741.8641      0             -5950.0763      0              0             -199.37119      125045.9       50.006119      50.006119      50.006119      0.90207242     1704.8889      1850.0491      1536.1914    
     20000   40000          296.22434      1423.979       6633.241       4039.7912      4272.7814     -232.99019      1467.0068      1488.3608      2774.5089      0             -5962.8666      0              0             -199.63352      124881.58      49.984206      49.984206      49.984206      0.90325935     1706.5831      644.41101      1920.9428    
     20100   40200          296.04852      919.39         5554.134       3873.6936      4270.2453     -396.55166      1453.9191      1439.677       2704.8895      0             -5995.0373      0              0             -198.92273      125327.81      50.04367       50.04367       50.04367       0.9000433      456.40969      1387.6343      914.12602    
     20200   40400          300.38725      1490.8546      6688.0152      3979.4874      4332.8277     -353.34035      1431.3087      1444.4397      2740.6575      0             -5969.7463      0              0             -200.12887      124572.48      49.942933      49.942933      49.942933      0.90550058     1533.6894      1903.4241      1035.4503    
     20300   40600          305.44243      987.22904      5791.0168      3997.6953      4405.7444     -408.04904      1419.0073      1441.2615      2714.0277      0             -5982.3456      0              0             -200.1555       124555.91      49.940717      49.940717      49.940717      0.90562109     1080.3522      881.41762      999.9173     
     20400   40800          298.93502      980.27203      5743.9485      3957.0372      4311.8805     -354.84332      1427.9139      1463.6718      2735.8566      0             -5982.2856      0              0             -199.45795      124991.51      49.998868      49.998868      49.998868      0.90246495     909.7442       840.78215      1190.2897    
     20500   41000          306.07246      1158.9738      6210.2359      4091.9973      4414.8319     -322.83465      1422.9076      1438.7531      2755.6502      0             -5940.1455      0              0             -198.93285      125321.43      50.042821      50.042821      50.042821      0.90008909     1344.5094      1085.7564      1046.6558    
     20600   41200          294.33759      746.25497      5282.8281      3920.4799      4245.5666     -325.08662      1431.3899      1494.544       2700.9443      0             -5951.9648      0              0             -199.16218      125177.13      50.023606      50.023606      50.023606      0.90112674     1451.7957      524.57882      262.39041    
     20700   41400          297.45357      1386.4823      6453.218       3927.1711      4290.5118     -363.34076      1427.3377      1495.4986      2685.3965      0             -5971.5736      0              0             -199.56329      124925.53      49.990069      49.990069      49.990069      0.90294159     1065.8555      1345.5529      1748.0385    
     20800   41600          296.09084      1371.0717      6498.0724      3995.693       4270.8556     -275.16262      1471.6814      1480.3333      2733.5808      0             -5960.7581      0              0             -199.21165      125146.04      50.019464      50.019464      50.019464      0.90135058     765.18438      1820.7532      1527.2774    
[...]
    495000   990000         300.44751      1424.3952      6633.1761      4036.6751      4333.6969     -297.02173      1484.3346      1455.4514      2712.0562      0             -5948.864       0              0             -199.45721      124991.97      49.998929      49.998929      49.998929      0.90246163     1946.6777      1715.0925      611.41536    
    495100   990200         303.83188      1123.0138      6046.3979      3999.7732      4382.5135     -382.74029      1466.1376      1451.2238      2658.8678      0             -5958.9695      0              0             -199.5054       124961.78      49.994904      49.994904      49.994904      0.90267964     1152.6183      957.76529      1258.6579    
    495200   990400         299.01049      1130.5939      5934.4511      3872.8013      4312.9692     -440.16789      1419.0304      1424.5166      2652.8922      0             -5936.6071      0              0             -199.38821      125035.22      50.004696      50.004696      50.004696      0.90214943     1317.6448      1299.2353      774.90163    
    495300   990600         300.35287      590.43987      5058.5299      3980.5371      4332.3319     -351.79475      1476.4582      1451.9991      2656.6219      0             -5936.874       0              0             -199.14414      125188.46      50.025116      50.025116      50.025116      0.90104513     494.73194      1082.8306      193.75711    
    495400   990800         297.89264      755.70715      5355.9282      3977.0215      4296.8452     -319.8237       1451.4917      1475.9137      2693.8354      0             -5941.0645      0              0             -199.26286      125113.88      50.015179      50.015179      50.015179      0.90158229     387.99396      621.3516       1257.7759    
    495500   991000         292.02278      1410.2349      6384.2786      3813.7711      4212.1775     -398.40634      1440.7692      1433.0387      2673.4677      0             -5945.682       0              0             -199.47126      124983.16      49.997755      49.997755      49.997755      0.90252521     1651.2098      881.09856      1698.3964    
    495600   991200         303.7945       1219.338       6177.5573      3951.653       4381.9743     -430.32131      1425.6987      1474.704       2646.9356      0             -5977.6596      0              0             -199.17065      125171.8       50.022896      50.022896      50.022896      0.90116508     1754.7462      1370.3698      532.89789    
    495700   991400         301.25555      706.24682      5265.317       3981.8926      4345.3522     -363.45958      1459.5324      1447.7763      2707.6399      0             -5978.4081      0              0             -200.07552      124605.7       49.947371      49.947371      49.947371      0.90525921     320.41496      1186.7237      611.60179    
    495800   991600         299.4428       1634.6878      6994.107       4021.7009      4319.2048     -297.50399      1497.428       1445.2834      2692.7077      0             -5932.923       0              0             -199.95599      124680.19      49.957322      49.957322      49.957322      0.90471838     1907.9009      1581.4156      1414.7469    
    495900   991800         301.89826      1112.7685      6022.4787      3989.1795      4354.6227     -365.44322      1408.1309      1472.7586      2700.4232      0             -5946.7559      0              0             -198.98084      125291.21      50.038797      50.038797      50.038797      0.90030625     1217.5285      957.43471      1163.3422    
    496000   992000         297.22362      1185.234       6032.5888      3873.7225      4287.1951     -413.47256      1454.1005      1425.7846      2674.9023      0             -5968.26        0              0             -199.61174      124895.2       49.986023      49.986023      49.986023      0.90316083     1130.2526      1345.0788      1080.3705    
    496100   992200         303.60953      1107.8839      6054.7186      4040.2203      4379.3063     -339.08598      1445.9717      1455.1894      2692.2502      0             -5932.4974      0              0             -199.95629      124680         49.957296      49.957296      49.957296      0.90471976     756.06455      1376.4519      1191.1352    
    496200   992400         294.75177      967.34561      5710.2533      3938.6708      4251.5407     -312.86984      1476.0413      1454.3908      2705.1916      0             -5948.4936      0              0             -198.53087      125575.18      50.076573      50.076573      50.076573      0.8982703      1617.4376      693.04139      591.5578     
    496300   992600         299.74197      980.68893      5800.9613      4006.9229      4323.5201     -316.59728      1426.5432      1457.7064      2747.2977      0             -5948.1446      0              0             -198.75006      125436.69      50.058158      50.058158      50.058158      0.89926205     779.26606      1377.7141      785.08665    
    496400   992800         302.96935      581.74816      5105.5743      4044.054       4370.0723     -326.0183       1458.2506      1422.8052      2721.8355      0             -5928.9096      0              0             -199.25739      125117.31      50.015637      50.015637      50.015637      0.90155752     305.61075      976.80546      462.82827    
    496500   993000         299.93151      1140.6414      5987.8442      3916.8403      4326.2541     -409.4138       1448.081       1447.9119      2661.8275      0             -5967.2342      0              0             -200.25158      124496.14      49.932729      49.932729      49.932729      0.90605581     1186.1474      1106.5517      1129.225     
    496600   993200         297.99371      1326.3686      6382.0432      3965.5368      4298.303      -332.76623      1466.0562      1430.0166      2725.9458      0             -5954.7848      0              0             -199.56483      124924.56      49.98994       49.98994       49.98994       0.90294858     1240.9017      1164.3156      1573.8884    
    496700   993400         300.30071      795.71007      5491.2495      4033.3164      4331.5795     -298.26312      1502.6869      1447.8677      2694.3788      0             -5943.1965      0              0             -198.43807      125633.9       50.084378      50.084378      50.084378      0.89785043     1065.6189      616.26133      705.24995    
    496800   993600         296.58156      848.57111      5504.4644      3953.8283      4277.9339     -324.10564      1476.3874      1459.1699      2672.9618      0             -5932.6248      0              0             -198.96931      125298.47      50.039764      50.039764      50.039764      0.90025406     744.52305      1167.2841      633.90615    
    496900   993800         312.33266      919.57934      5762.9738      4086.4532      4505.1299     -418.67669      1440.8183      1437.416       2664.2062      0             -5961.1172      0              0             -199.42889      125009.72      50.001296      50.001296      50.001296      0.90233348     856.74091      386.12927      1515.8678    
    497000   994000         305.20834      544.42253      4955.0396      3960.151       4402.3678     -442.21678      1419.857       1445.2019      2663.7903      0             -5971.066       0              0             -198.96167      125303.28      50.040405      50.040405      50.040405      0.9002195      660.01298      655.49721      317.75741    
    497100   994200         296.83753      1282.2049      6231.6285      3899.6528      4281.6261     -381.97328      1453.1688      1432.272       2693.4825      0             -5960.8966      0              0             -199.91305      124706.96      49.960898      49.960898      49.960898      0.90452413     1331.0398      1526.1529      989.42204    
    497200   994400         307.49661      1099.5982      6062.8409      4063.4903      4435.3741     -371.88379      1467.5147      1484.5391      2630.6896      0             -5954.6272      0              0             -199.96446      124674.9       49.956616      49.956616      49.956616      0.9047567      1273.0638      1047.7606      977.97017    
    497300   994600         296.91083      1505.2257      6722.384       3974.7441      4282.6833     -307.93916      1465.0101      1456.9812      2706.1677      0             -5936.0982      0              0             -199.18175      125164.83      50.021967      50.021967      50.021967      0.90121528     1635.6068      1587.3652      1292.705     
    497400   994800         306.92388      1463.5613      6740.832       4056.2404      4427.113      -370.87255      1416.1317      1471.0148      2691.58        0             -5949.5991      0              0             -198.21679      125774.15      50.103008      50.103008      50.103008      0.89684925     1191.4181      2199.8834      999.38251    
    497500   995000         302.22555      823.20334      5614.3559      4104.6873      4359.3436     -254.65628      1515.6645      1460.4637      2672.0667      0             -5902.8511      0              0             -198.25915      125747.28      50.09944       50.09944       50.09944       0.89704091     1394.0136      891.03699      184.55943    
    497600   995200         298.94683      698.33308      5221.5306      3942.8467      4312.0509     -369.20411      1430.031       1440.8713      2692.5431      0             -5932.6495      0              0             -198.56705      125552.3       50.073532      50.073532      50.073532      0.898434       220.61677      900.8243       973.55817    
    497700   995400         293.61565      1104.4426      5914.5224      3898.2276      4235.1532     -336.92561      1495.0614      1482.2383      2621.1442      0             -5935.3695      0              0             -199.15759      125180.01      50.02399       50.02399       50.02399       0.90110596     511.44998      2076.9408      724.93707    
    497800   995600         301.55659      1264.1461      6328.9854      4023.7929      4349.6945     -325.90156      1476.5439      1444.536       2699.254       0             -5946.2355      0              0             -199.38745      125035.7       50.00476       50.00476       50.00476       0.90214599     2171.4641      1241.889       379.08524    
    497900   995800         296.22544      2020.1687      7564.3639      3891.2051      4272.7972     -381.59209      1456.5065      1448.9537      2667.2161      0             -5954.2684      0              0             -199.96578      124674.08      49.956506      49.956506      49.956506      0.90476269     2154.6644      1796.7743      2109.0675    
    498000   996000         304.57756      1125.5234      6131.3271      4071.3397      4393.2693     -321.92963      1487.2425      1419.9605      2700.437       0             -5929.5696      0              0             -198.65417      125497.23      50.06621       50.06621       50.06621       0.89882822     496.77486      1489.3727      1390.4226    
    498100   996200         296.90672      603.67401      5099.2074      3989.2799      4282.6241     -293.34423      1467.4378      1428.8852      2744.9926      0             -5934.6599      0              0             -197.74959      126071.31      50.142435      50.142435      50.142435      0.89473536     1403.2142      456.41511     -48.607289    
    498200   996400         297.32471      494.18898      4806.5914      3905.5033      4288.6532     -383.14989      1433.0032      1458.9556      2688.9479      0             -5964.0566      0              0             -199.40387      125025.41      50.003387      50.003387      50.003387      0.90222027     473.38023      461.82835      547.35836    
    498300   996600         306.83687      1797.453       7392.5332      4131.0195      4425.8579     -294.83834      1505.5902      1463.1913      2688.7863      0             -5952.4062      0              0             -200.37617      124418.73      49.922377      49.922377      49.922377      0.90661955     1818.8227      1233.1108      2340.4255    
    498400   996800         300.69001      1053.2011      5920.2222      3999.0716      4337.1947     -338.12309      1476.4139      1502.1443      2631.4486      0             -5948.1299      0              0             -199.3231       125076.07      50.01014       50.01014       50.01014       0.90185484     1197.2236      1130.7599      831.61986    
    498500   997000         302.06228      705.0817       5197.181       3907.3036      4356.9885     -449.68491      1453.2481      1396.1023      2647.3534      0             -5946.3887      0              0             -198.74616      125439.15      50.058485      50.058485      50.058485      0.89924443     980.78379      822.77615      311.68516    
    498600   997200         300.583        1075.7417      5952.0169      3992.9797      4335.6513     -342.6716       1464.4917      1470.6111      2667.8763      0             -5945.6507      0              0             -199.65171      124870.2       49.982687      49.982687      49.982687      0.90334167     1147.3718      727.69983      1352.1533    
    498700   997400         304.25428      984.84388      5880.3322      4083.898       4388.6062     -304.70825      1464.1725      1478.4248      2699.8249      0             -5947.1304      0              0             -199.32594      125074.29      50.009903      50.009903      50.009903      0.90186766     1443.0409      756.31393      755.17681    
    498800   997600         301.06889      476.78918      4810.3983      3939.3125      4342.6598     -403.3473       1408.1222      1464.1951      2684.4019      0             -5960.0666      0              0             -199.00923      125273.33      50.036418      50.036418      50.036418      0.90043469     226.49847      819.50405      384.36504    
    498900   997800         296.91623      1249.0191      6223.7784      3954.2133      4282.7612     -328.54792      1437.241       1439.5964      2745.8994      0             -5951.2847      0              0             -200.09404      124594.16      49.945829      49.945829      49.945829      0.90534303     866.12245      1193.4078      1687.527     
    499000   998000         298.92072      1118.7231      6064.7848      4034.4508      4311.6742     -277.22344      1482.1774      1483.3527      2724.4226      0             -5967.1762      0              0             -200.33778      124442.57      49.925566      49.925566      49.925566      0.90644586     1655.1838      761.79811      939.18753    
    499100   998200         297.736        349.80447      4518.5221      3880.4957      4294.5856     -414.08993      1423.0744      1425.9353      2703.5155      0             -5966.6151      0              0             -199.34001      125065.46      50.008726      50.008726      50.008726      0.90193136     817.87441      437.85467     -206.31566    
    499200   998400         296.64766      1319.2369      6346.3063      3939.3686      4278.8873     -339.51876      1475.2207      1426.2583      2689.3941      0             -5930.3918      0              0             -199.2809       125102.56      50.013671      50.013671      50.013671      0.90166387     1140.4079      956.67555      1860.6271    
    499300   998600         304.23651      1674.5539      7029.3749      3976.9277      4388.3499     -411.42224      1448.5451      1416.1979      2661.7195      0             -5937.8847      0              0             -199.46133      124989.39      49.998585      49.998585      49.998585      0.90248025     1224.0296      1868.762       1930.8701    
    499400   998800         295.59271      591.87707      4992.4961      3911.0867      4263.6706     -352.58387      1469.1555      1412.0709      2732.0323      0             -5965.8426      0              0             -198.99818      125280.29      50.037344      50.037344      50.037344      0.9003847      1028.1883      846.39912     -98.956164    
    499500   999000         302.69366      1121.212       6088.7856      4042.6711      4366.0957     -323.42465      1487.1611      1434.4793      2685.1396      0             -5930.2047      0              0             -199.23496      125131.4       50.017514      50.017514      50.017514      0.90145604     930.60043      1135.3882      1297.6475    
    499600   999200         299.08248      721.94652      5311.1655      3991.8248      4314.0075     -322.18267      1421.874       1484.8468      2712.2404      0             -5941.1439      0              0             -198.95543      125307.21      50.040928      50.040928      50.040928      0.90019127     363.24427      784.47512      1018.1202    
    499700   999400         294.779        1065.4065      5880.9073      3942.5513      4251.9335     -309.38219      1481.8191      1498.303       2664.0218      0             -5953.5261      0              0             -199.84328      124750.5       49.966711      49.966711      49.966711      0.90420845     862.38837      1521.1837      812.64758    
    499800   999600         297.71185      955.00157      5694.1986      3952.1234      4294.2373     -342.11396      1451.759       1459.6053      2712.7869      0             -5966.2652      0              0             -199.31726      125079.73      50.010628      50.010628      50.010628      0.90182842     1602.6574      1173.9938      88.353479    
    499900   999800         306.53606      886.30555      5711.479       4092.668       4421.519      -328.85106      1464.4795      1445.2833      2686.3397      0             -5924.9535      0              0             -199.06507      125238.2       50.031739      50.031739      50.031739      0.90068733     1439.0851      332.49937      887.33218    
    500000   1000000        299.82877      1610.3833      6864.7865      3924.5728      4324.7721     -400.1993       1443.9015      1440.6826      2661.4706      0             -5946.254       0              0             -199.13982      125191.18      50.025478      50.025478      50.025478      0.90102555     1012.1485      1523.0039      2295.9977    
Loop time of 460.654 on 1 procs for 500000 steps with 4840 atoms

Performance: 187.559 ns/day, 0.128 hours/ns, 1085.413 timesteps/s, 5.253 Matom-step/s
99.5% CPU use with 1 MPI tasks x 1 OpenMP threads

MPI task timing breakdown:
Section |  min time  |  avg time  |  max time  |%varavg| %total
---------------------------------------------------------------
Pair    | 42.852     | 42.852     | 42.852     |   0.0 |  9.30
Bond    | 328.64     | 328.64     | 328.64     |   0.0 | 71.34
Neigh   | 0.082435   | 0.082435   | 0.082435   |   0.0 |  0.02
Comm    | 30.393     | 30.393     | 30.393     |   0.0 |  6.60
Output  | 5.58       | 5.58       | 5.58       |   0.0 |  1.21
Modify  | 44.917     | 44.917     | 44.917     |   0.0 |  9.75
Other   |            | 8.194      |            |       |  1.78

Nlocal:           4840 ave        4840 max        4840 min
Histogram: 1 0 0 0 0 0 0 0 0 0
Nghost:          16485 ave       16485 max       16485 min
Histogram: 1 0 0 0 0 0 0 0 0 0
Neighs:              0 ave           0 max           0 min
Histogram: 1 0 0 0 0 0 0 0 0 0

Total # of neighbors = 0
Ave neighs/atom = 0
Ave special neighs/atom = 5.9504132
Neighbor list builds = 13504
Dangerous builds = 0

# --- Cleanup ---
unfix npt_fix

undump dump_npt

# --- Write Output ---
write_dump all custom /home/alexzhao/PolyJarvis/data/PE4/lammps/mechanical/bm_series/bm_P1000/bm_P1000_last.dump id type mol x y z xu yu zu vx vy vz modify sort id
write_data /home/alexzhao/PolyJarvis/data/PE4/lammps/mechanical/bm_series/bm_P1000/bm_P1000_out.data
System init for write_data ...
Generated 1 of 1 mixed pair_coeff terms from arithmetic mixing rule

print "STAGE COMPLETE: NPT T=300.0->300.0K P=1000.0->1000.0atm steps=500000"
STAGE COMPLETE: NPT T=300.0->300.0K P=1000.0->1000.0atm steps=500000
quit
