LAMMPS (22 Jul 2025 - Update 3)
OMP_NUM_THREADS environment is not set. Defaulting to 1 thread.
  using 1 OpenMP thread(s) per MPI task
Reading data file ...
  orthogonal box = (1.4676483 1.4676483 1.4676483) to (40.856811 40.856811 40.856811)
  2 by 2 by 2 MPI processor grid
  reading atoms ...
  4020 atoms
  reading velocities ...
  4020 velocities
  scanning bonds ...
  4 = max bonds/atom
  scanning angles ...
  6 = max angles/atom
  scanning dihedrals ...
  11 = max dihedrals/atom
  scanning impropers ...
  4 = max impropers/atom
  orthogonal box = (1.4676483 1.4676483 1.4676483) to (40.856811 40.856811 40.856811)
  2 by 2 by 2 MPI processor grid
  reading bonds ...
  4010 bonds
  reading angles ...
  7600 angles
  reading dihedrals ...
  9570 dihedrals
  reading impropers ...
  4800 impropers
Finding 1-2 1-3 1-4 neighbors ...
  special bond factors lj:    0        0        1       
  special bond factors coul:  0        0        1       
     4 = max # of 1-2 neighbors
     7 = max # of 1-3 neighbors
    11 = max # of special neighbors
  special bonds CPU = 0.000 seconds
  read_data CPU = 0.063 seconds

CITE-CITE-CITE-CITE-CITE-CITE-CITE-CITE-CITE-CITE-CITE-CITE-CITE

Your simulation uses code contributions which should be cited:
- GPU package (short-range, long-range and three-body potentials): doi:10.1016/j.cpc.2010.12.021, doi:10.1016/j.cpc.2011.10.012, doi:10.1016/j.cpc.2013.08.002, doi:10.1016/j.commatsci.2014.10.068, doi:10.1016/j.cpc.2016.10.020, doi:10.3233/APC200086
The log file lists these citations in BibTeX format.

CITE-CITE-CITE-CITE-CITE-CITE-CITE-CITE-CITE-CITE-CITE-CITE-CITE

PPPM initialization ...
  using 12-bit tables for long-range coulomb
  G vector (1/distance) = 0.28762849
  grid = 24 24 24
  stencil order = 5
  estimated absolute RMS force accuracy = 0.00027825634
  estimated relative force accuracy = 8.3796072e-07
  using double precision KISS FFT
  3d grid and FFT values/proc = 6859 1728

--------------------------------------------------------------------------
- Using acceleration for pppm:
-  with 8 proc(s) per device.
-  with 1 thread(s) per proc.
-  Horizontal vector operations: ENABLED
-  Shared memory system: No
--------------------------------------------------------------------------
Device 0: NVIDIA A800 40GB Active, 108 CUs, 36/39 GB, 1.4 GHZ (Mixed Precision)
--------------------------------------------------------------------------

Initializing Device and compiling on process 0...Done.
Initializing Device 0 on core 0...Done.
Initializing Device 0 on core 1...Done.
Initializing Device 0 on core 2...Done.
Initializing Device 0 on core 3...Done.
Initializing Device 0 on core 4...Done.
Initializing Device 0 on core 5...Done.
Initializing Device 0 on core 6...Done.
Initializing Device 0 on core 7...Done.


--------------------------------------------------------------------------
- Using acceleration for lj/class2/coul/long:
-  with 8 proc(s) per device.
-  with 1 thread(s) per proc.
-  Horizontal vector operations: ENABLED
-  Shared memory system: No
--------------------------------------------------------------------------
Device 0: NVIDIA A800 40GB Active, 108 CUs, 36/39 GB, 1.4 GHZ (Mixed Precision)
--------------------------------------------------------------------------

Initializing Device and compiling on process 0...Done.
Initializing Device 0 on core 0...Done.
Initializing Device 0 on core 1...Done.
Initializing Device 0 on core 2...Done.
Initializing Device 0 on core 3...Done.
Initializing Device 0 on core 4...Done.
Initializing Device 0 on core 5...Done.
Initializing Device 0 on core 6...Done.
Initializing Device 0 on core 7...Done.

Generated 15 of 15 mixed pair_coeff terms from sixthpower/sixthpower mixing rule
Neighbor list info ...
  update: every = 1 steps, delay = 0 steps, check = yes
  max neighbors/atom: 4000, page size: 100000
  master list distance cutoff = 11.5
  ghost atom cutoff = 11.5
  binsize = 5.75, bins = 7 7 7
  1 neighbor lists, perpetual/occasional/extra = 1 0 0
  (1) pair lj/class2/coul/long/gpu, perpetual
      attributes: full, newton on
      pair build: full/bin
      stencil: full/bin/3d
      bin: standard
Setting up Verlet run ...
  Unit style    : real
  Current step  : 0
  Time step     : 1
Per MPI rank memory allocation (min/avg/max) = 16.15 | 16.16 | 16.16 Mbytes
   Step          Time           Temp          Press         Enthalpy        TotEng         KinEng         PotEng         E_bond        E_angle        E_dihed        E_impro         E_vdwl         E_coul         E_long         E_tail         Volume           Lx             Ly             Lz          Density          Pxx            Pyy            Pzz      
         0   0              632.39015      644.9745       8087.146       7512.3038      7575.9553     -63.651483      2934.8854      4463.0286     -6556.0612      4.9512387     -168.34972      548.52821     -1290.634      -136.68965      61112.528      39.389163      39.389163      39.389163      0.80641269     2535.8536      868.7895      -1469.7196    
      1000   1000           627.40234      379.81153      7947.1464      7614.8895      7516.202       98.687518      3137.4214      4414.8957     -6624.4659      3.6460083     -83.966234      543.41849     -1292.2619     -139.26308      59983.236      39.14503       39.14503       39.14503       0.82159485    -92.803783      382.83578      849.40258    
      2000   2000           647.96506      408.77304      8244.4594      7872.8396      7762.5408      110.29875      2994.1652      4431.6727     -6521.9157      2.9983005     -54.167107      545.67121     -1288.1259     -134.00627      62336.261      39.65034       39.65034       39.65034       0.79058188    -540.07222      1925.3669     -158.97558    
      3000   3000           640.93302      261.94795      7916.6713      7676.8025      7678.2978     -1.4953466      2945.3767      4405.6891     -6550.6999      3.6058889     -67.656688      549.24917     -1287.0596     -133.04026      62788.89       39.746077      39.746077      39.746077      0.78488278     1453.3638     -1320.379       652.85909    
      4000   4000           641.07091      464.23134      8043.7426      7619.409       7679.9498     -60.540767      3033.1819      4266.3091     -6555.9229      5.9177979     -71.914098      546.97507     -1285.0876     -133.28119      62675.386      39.722113      39.722113      39.722113      0.78630418     728.37294      55.625705      608.69537    
      5000   5000           628.19689     -676.74132      6748.5821      7364.1316      7525.7206     -161.589        2885.8598      4314.1806     -6556.4728      5.2120262     -68.117034      542.60417     -1284.8557     -133.93728      62368.372      39.657147      39.657147      39.657147      0.79017484    -580.94073     -1834.0992      384.81601    
      6000   6000           644.49473     -283.67968      7480.5735      7747.5887      7720.9667      26.622041      2992.0817      4280.3385     -6556.683       3.2916674      39.670218      549.62545     -1281.7025     -129.42972      64540.432      40.112275      40.112275      40.112275      0.76358209    -526.72714     -1225.5748      901.2629     
      7000   7000           633.48225     -689.42347      6903.7179      7566.2914      7589.0385     -22.747177      3036.8843      4337.7614     -6648.2927      6.5618697     -29.101465      556.30487     -1282.8654     -126.76338      65897.974      40.391566      40.391566      40.391566      0.74785179    -20.593425     -996.54903     -1051.128     
      8000   8000           643.03317      590.17318      8290.4926      7728.6818      7703.4574      25.224383      2976.9671      4380.3285     -6564.897       6.9328618     -25.298112      543.96669     -1292.7756     -127.97676      65273.177      40.263505      40.263505      40.263505      0.75501026     1560.3494      615.84042     -405.67024    
      9000   9000           631.4753       393.69731      7810.0958      7445.0271      7564.9955     -119.9684       2854.6267      4357.3032     -6606.3064      6.0812115     -1.244216       550.80402     -1281.2329     -131.38011      63582.304      39.91279       39.91279       39.91279       0.77508859     667.16         1008.0853     -494.15337    
     10000   10000          648.88441     -61.537501      7618.0579      7675.7291      7773.5545     -97.825464      3095.8619      4146.6202     -6588.9643      6.2951419     -28.783738      552.83548     -1281.6901     -129.99383      64260.357      40.054168      40.054168      40.054168      0.76691012     620.71175     -1493.0096      687.6854     
     11000   11000          631.6621       1000.817       8366.6203      7411.8682      7567.2334     -155.36517      2907.3166      4206.8309     -6533.4443      7.3407128     -15.374024      553.27819     -1281.3132     -127.70438      65412.399      40.292111      40.292111      40.292111      0.75340331    -1024.016       2509.4709      1516.9961    
     12000   12000          646.09339      131.72662      7646.0804      7513.8124      7740.1184     -226.30597      2880.7208      4189.5302     -6592.4213      3.7554721      22.952975      553.46015     -1284.3042     -121.32787      68850.216      40.985959      40.985959      40.985959      0.71578451     1150.9983      113.83605     -869.6545     
     13000   13000          643.81336      180.30268      7993.9443      7809.9713      7712.804       97.167275      2972.0701      4319.3013     -6511.2097      3.5226201      39.036741      551.34019     -1276.894      -119.39598      69964.249      41.205836      41.205836      41.205836      0.70438715     139.04693     -1200.5204      1602.3815    
     14000   14000          651.10257     -650.7804       7147.7444      7805.8614      7800.1278      5.7336084      3050.6452      4214.2178     -6532.3579      2.6873764     -4.3368524      557.70379     -1282.8258     -120.4684       69341.42       41.083198      41.083198      41.083198      0.710714      -960.75525     -1174.8349      183.24895    
     15000   15000          638.18762      633.81351      8165.2813      7536.931       7645.4083     -108.47725      2905.2605      4259.0626     -6571.4057      3.4736727      34.711623      543.19104     -1282.771      -122.88572      67977.383      40.812025      40.812025      40.812025      0.72497522     138.1326       456.18592      1307.122     
     16000   16000          653.0407       841.59434      8784.8115      7955.4702      7823.3463      132.12393      3005.1247      4298.3238     -6491.1865      4.9408357      45.178203      552.81357     -1283.0707     -123.62643      67570.098      40.730354      40.730354      40.730354      0.72934507     399.84725      1209.4181      915.51772    
     17000   17000          632.82156      170.8878       7626.0984      7461.283       7581.1235     -119.84049      2950.9289      4227.5948     -6557.3976      7.25443       -13.263278      549.74992     -1284.7076     -126.31502      66131.88       40.439299      40.439299      40.439299      0.74520667     3146.3215     -1530.5506     -1103.1074    
     18000   18000          647.49027      976.73855      8674.9573      7736.8887      7756.8529     -19.964221      2950.7609      4240.5421     -6503.1637      6.5728078      21.138676      551.83107     -1287.646      -126.84855      65853.728      40.382524      40.382524      40.382524      0.74835427     1827.8068      71.553265      1030.8556    
     19000   19000          640.19509      24.704823      7717.4433      7694.0459      7669.4575      24.58841       2985.1328      4338.3098     -6578.929       6.4706018      18.508714      543.42        -1288.3244     -128.63417      64939.588      40.194797      40.194797      40.194797      0.75888867    -521.87624      898.54762     -302.55691    
     20000   20000          633.93455      1047.1072      8494.4281      7473.6977      7594.4571     -120.75933      2883.3266      4271.5119     -6589.4857      4.1992044      50.063598      544.55184     -1284.9268     -124.97463      66841.166      40.583361      40.583361      40.583361      0.7372989      790.15524      192.14956      2159.0166    
     21000   21000          640.79581      154.34907      7892.0709      7745.6618      7676.6541      69.007738      2895.0733      4488.2298     -6570.8968      2.5717101     -8.0291388      550.14096     -1288.082      -128.43329      65041.159      40.215742      40.215742      40.215742      0.75770356     1111.5823     -103.732       -544.80306    
     22000   22000          631.35614     -1834.4968      5825.6025      7581.1931      7563.568       17.625066      3023.6882      4270.9265     -6537.4257      7.161657      -3.9956583      544.58644     -1287.3164     -127.30208      65619.119      40.334511      40.334511      40.334511      0.75102987    -1043.4234     -1865.6963     -2594.3706    
     23000   23000          646.59894      298.58733      8156.2866      7859.0935      7746.1749      112.9186       2959.3348      4410.7709     -6606.4568      8.110562       77.410439      549.06082     -1285.3121     -122.39803      68248.241      40.866159      40.866159      40.866159      0.722098       106.61479      1242.9906     -453.84334    
     24000   24000          644.232       -84.090306      7639.1035      7721.5849      7717.8193      3.7655945      2940.941       4336.2307     -6594.2398      7.3369235      51.682301      546.26276     -1284.4483     -124.20298      67256.439      40.667233      40.667233      40.667233      0.73274646     900.64848     -729.47763     -423.44177    
     25000   25000          638.50068     -749.12084      6819.9309      7530.8942      7649.1587     -118.26447      2937.1089      4237.1355     -6620.4197      7.7097753      52.293061      551.40277     -1283.4948     -128.36494      65075.791      40.222879      40.222879      40.222879      0.75730033    -3267.9066     -829.49551      1850.0396    
     26000   26000          631.58278      915.07188      8622.6461      7754.6872      7566.2831      188.40405      3046.5711      4405.8529     -6560.8081      4.2695605      28.520541      549.29573     -1285.2976     -128.43927      65038.129      40.215118      40.215118      40.215118      0.75773887     1529.7668      198.8626       1016.5862    
     27000   27000          640.1764       47.082186      7728.4321      7683.1592      7669.2337      13.925551      3062.381       4245.652      -6590.0431      7.9867533      29.509162      546.85103     -1288.4113     -126.69529      65933.39       40.3988        40.3988        40.3988        0.74745009     53.815667     -1406.2233      1493.6542    
     28000   28000          636.55872      247.79376      7956.3828      7718.6158      7625.8943      92.721441      3029.4724      4358.7931     -6556.8262      5.9910574     -4.9610294      547.35138     -1287.0993     -126.96397      65793.861      40.370283      40.370283      40.370283      0.7490352     -41.004626      220.35464      564.03128    
     29000   29000          637.31613     -1361.6958      6203.0385      7542.1175      7634.968      -92.850433      2958.4972      4299.1595     -6634.6224      5.0073426      24.023696      543.48857     -1288.4044     -123.88412      67429.545      40.702093      40.702093      40.702093      0.73086535    -615.5236      -2237.4508     -1232.1129    
     30000   30000          641.83994     -509.02528      7359.6505      7865.7459      7689.1627      176.58323      3084.3454      4356.0196     -6564.7124      7.5314927      29.293107      550.16472     -1286.0586     -122.53177      68173.748      40.851285      40.851285      40.851285      0.72288703    -1843.1784     -1433.2601      1749.3627    
     31000   31000          628.7099      -455.53807      6964.7611      7415.2649      7531.8664     -116.60149      2865.6241      4224.4222     -6490.3063      5.6385909      13.995676      550.74823     -1286.724      -123.18789      67810.644      40.778629      40.778629      40.778629      0.72675785    -2731.0556      1066.6525      297.78887    
     32000   32000          638.90037      416.09737      8097.912       7685.6711      7653.9469      31.724134      3036.3375      4300.8088     -6594.6037      3.2287759      22.345964      547.00426     -1283.3975     -122.96617      67932.911      40.803123      40.803123      40.803123      0.72544982    -623.34221      675.26452      1196.3698    
     33000   33000          640.75393     -483.64935      7233.0169      7710.9358      7676.1524      34.783467      2912.7768      4363.7593     -6532.9166      5.4956427      22.197154      551.03945     -1287.5683     -123.28725      67755.994      40.767672      40.767672      40.767672      0.72734403    -984.71808      1345.7577     -1811.9877    
     34000   34000          642.97201      715.1942       8275.9393      7583.9749      7702.7247     -118.74986      2843.8618      4317.8933     -6578.3188      5.1929892      28.545806      549.82082     -1285.7457     -125.91629      66341.294      40.48194       40.48194       40.48194       0.74285434    -455.00234      1699.4858      901.09917    
     35000   35000          630.23572      592.98867      8001.8063      7430.1294      7550.1455     -120.01609      2911.1694      4275.9023     -6546.4703      7.8858248     -32.117154      551.94796     -1288.3341     -126.36812      66104.094      40.433635      40.433635      40.433635      0.7455199      2.8665645      796.51242      979.58704    
     36000   36000          641.82573     -591.16314      7272.276       7816.9911      7688.9924      127.9987       2979.3716      4477.0851     -6575.5436      4.8752241     -16.623315      544.65102     -1285.8173     -132.21467      63180.962      39.828634      39.828634      39.828634      0.78001215     119.8499      -1239.806      -653.53335    
     37000   37000          630.49049      1225.8481      8770.749       7650.7008      7553.1976      97.503124      2987.894       4462.1167     -6596.0378      4.8480965     -21.508698      549.27787     -1289.0871     -133.33424      62650.448      39.716844      39.716844      39.716844      0.78661717     976.88262     -13.582295      2714.244     
     38000   38000          634.95181     -418.0841       7305.2867      7696.312       7606.6437      89.668276      2903.5158      4436.7063     -6487.1056      4.7929773     -31.567947      549.91452     -1286.5877     -130.25685      64130.601      40.02719       40.02719       40.02719       0.76846182    -194.80609      261.22483     -1320.671     
     39000   39000          650.42523      446.46034      8326.6142      7902.0295      7792.0134      110.01613      3052.6632      4349.2809     -6562.839       2.9373731      10.687636      544.88839     -1287.6023     -128.1033       65208.703      40.250244      40.250244      40.250244      0.75575676    -221.44206      2184.38       -623.55689    
     40000   40000          653.99883     -872.29091      6862.7997      7704.086       7834.8247     -130.73872      2994.5993      4186.9955     -6598.3152      10.693666      7.2147131      553.435       -1285.3617     -126.31627      66131.225      40.439166      40.439166      40.439166      0.74521405     981.35222     -3316.1617     -282.06326    
     41000   41000          651.38885     -511.08626      7267.3071      7756.9698      7803.5574     -46.587632      3047.8427      4214.7874     -6606.3995      8.9624967      24.971392      548.92575     -1285.6779     -127.15663      65694.177      40.349884      40.349884      40.349884      0.75017179    -698.96318      419.25094     -1253.5465    
     42000   42000          648.10129     -176.11259      7530.8362      7695.7347      7764.1729     -68.438154      2978.4861      4327.6947     -6621.1067      5.1089054     -32.035392      559.43495     -1286.0208     -130.11144      64202.269      40.042095      40.042095      40.042095      0.76760399    -96.853245      218.42559     -649.91012    
     43000   43000          633.30151      549.30186      8000.5888      7481.3517      7586.8733     -105.52153      2928.6072      4249.002      -6501.6453      4.7005294     -51.04894       550.17319     -1285.3102     -128.88048      64815.478      40.169175      40.169175      40.169175      0.76034182     2136.9346      1478.2315     -1967.2606    
     44000   44000          635.6007      -421.68348      7335.9395      7745.4004      7614.4173      130.98311      3076.0871      4397.5196     -6624.5751      6.4294179      8.9457024      552.76656     -1286.1901     -125.46307      66580.946      40.530627      40.530627      40.530627      0.74018051    -124.89095      633.27647     -1773.436     
     45000   45000          629.65359     -531.40954      7002.742       7515.6041      7543.1717     -27.567549      2997.2513      4263.1376     -6537.0228      4.0496668     -20.993643      550.62692     -1284.6166     -126.2323       66175.216      40.448131      40.448131      40.448131      0.74471866     353.1039      -2191.3375      244.00493    
     46000   46000          637.72802     -1190.3786      6511.2586      7612.4105      7639.9024     -27.491833      2937.2505      4315.9113     -6476.9195      6.7030284     -82.668407      557.82607     -1285.5948     -131.69813      63428.767      39.880637      39.880637      39.880637      0.77696479    -910.29751     -304.53385     -2356.3043    
     47000   47000          637.41166     -598.356        7112.0161      7678.8023      7636.1124      42.689897      2977.9828      4387.0767     -6557.2409      5.9902516     -41.250521      553.02161     -1282.8901     -128.6122       64950.68       40.197086      40.197086      40.197086      0.75875908    -1108.9025      1171.6244     -1857.7899    
     48000   48000          643.76668     -1153.2694      6585.7823      7703.7058      7712.2448     -8.5389859      2909.0973      4477.9166     -6636.5965      8.0315401     -33.936578      551.8656      -1284.917      -125.67834      66466.902      40.507472      40.507472      40.507472      0.74145051    -735.86231     -2651.73       -72.215738    
     49000   49000          638.68939     -482.00795      7214.5793      7684.305       7651.4195      32.88556       2993.9618      4373.5364     -6627.3363      8.3870442      31.602023      542.7398      -1290.0052     -125.01198      66821.194      40.579318      40.579318      40.579318      0.73751927    -828.3373      -1592.5707      974.88414    
     50000   50000          635.44597      100.62287      7702.0475      7603.2244      7612.5636     -9.3392386      3068.0677      4237.9167     -6599.438       7.1785213      7.5796299      549.9742      -1280.6179     -124.04516      67342.004      40.684471      40.684471      40.684471      0.73181544     172.51285     -870.39522      999.75097    
     51000   51000          630.34265      322.24302      7634.8736      7331.5343      7551.4266     -219.89229      2894.2324      4229.4637     -6591.1412      4.7229474     -7.5248097      540.54407     -1290.1894     -129.41857      64545.991      40.113426      40.113426      40.113426      0.76351633    -1515.7803      1974.52        507.98936    
     52000   52000          644.3265      -101.51169      7570.1776      7666.1838      7718.9513     -52.767485      2927.0274      4294.7102     -6493.2596      5.1228979     -38.656486      541.29499     -1289.007      -128.81253      64849.669      40.176237      40.176237      40.176237      0.75994093    -431.82284      608.94723     -481.65947    
     53000   53000          652.07212     -586.09211      7286.8938      7857.3273      7811.7428      45.58447       3024.477       4316.9692     -6541.5014      6.7110762     -9.9523045      539.15408     -1290.2731     -125.17069      66736.47       40.56216       40.56216       40.56216       0.73845557     363.19073     -1072.5477     -1048.9194    
     54000   54000          642.85284      908.54193      8437.134       7554.6735      7701.2971     -146.62364      2854.4288      4253.626      -6547.3455      6.0826517      35.947868      542.13128     -1291.4946     -125.42712      66600.031      40.534499      40.534499      40.534499      0.73996839     833.85888      584.9653       1306.8016    
     55000   55000          649.26488      986.81248      8884.302       7917.5291      7778.1125      139.41658      2924.8714      4498.6804     -6535.4238      4.699534      -0.97661838     539.50171     -1291.9361     -124.35176      67175.971      40.651008      40.651008      40.651008      0.7336242      1630.6322     -171.27133      1501.0765    
     56000   56000          632.68802      586.2928       8126.0566      7551.3385      7579.5238     -28.185271      2893.4957      4278.3291     -6498.7676      8.0838793      26.922404      547.99303     -1284.2419     -124.28007      67214.719      40.658822      40.658822      40.658822      0.73320128     1337.4479     -453.77676      875.20728    
     57000   57000          649.60566      495.7124       8259.1163      7760.3157      7782.195      -21.879277      2894.7588      4250.9164     -6480.6726      9.7218234      43.416079      544.58717     -1284.607      -121.07225      68995.579      41.014783      41.014783      41.014783      0.71427646     261.55648      1329.5878     -104.0071     
     58000   58000          633.84272      640.97518      8297.0267      7654.3022      7593.3569      60.945256      2839.1348      4448.5103     -6540.0936      5.9646313      47.953218      545.68137     -1286.2055     -121.49492      68755.551      40.967166      40.967166      40.967166      0.71677003     1061.4897      1952.1094     -1090.6735    
     59000   59000          630.12438     -417.64609      6982.634       7388.0921      7548.8116     -160.71958      2895.3162      4220.8824     -6552.1866      5.64906        16.726371      543.05518     -1290.1622     -125.48859      66567.407      40.527879      40.527879      40.527879      0.74033105    -714.77969     -199.29708     -338.8615     
     60000   60000          648.14864      352.16342      8077.1365      7735.4628      7764.7401     -29.277246      2918.8486      4316.7143     -6520.4569      3.7046726     -15.236379      551.46397     -1284.3156     -125.56669      66526.002      40.519475      40.519475      40.519475      0.74079182     1579.003      -323.11885     -199.39387    
     61000   61000          629.21195     -951.72968      6471.42        7372.1435      7537.8808     -165.73737      2900.9198      4325.3275     -6613.9547      8.117589      -42.305094      544.11764     -1287.9601     -128.72529      64893.619      40.185311      40.185311      40.185311      0.75942626    -1330.0993     -2225.8773      700.78748    
     62000   62000          623.33165      495.49153      7683.935       7225.8326      7467.4356     -241.60307      2866.2315      4297.0071     -6594.4027      7.3297707     -73.245087      542.32289     -1286.8466     -131.76966      63394.335      39.87342       39.87342       39.87342       0.77738678     913.89888     -135.21036      707.78608    
     63000   63000          629.3026       1961.2928      9306.6346      7500.3799      7538.9669     -38.58692       2973.6544      4387.0508     -6637.7905      4.9216135     -22.90822       545.42688     -1288.942      -132.28336      63148.155      39.821739      39.821739      39.821739      0.78041738     1435.6463      1979.7712      2468.4608    
     64000   64000          627.97126      331.42623      7951.4111      7642.1708      7523.0176      119.15322      2961.8514      4434.4858     -6521.8581      4.04956       -20.410207      550.24119     -1289.2063     -130.56676      63978.379      39.995495      39.995495      39.995495      0.77029019     191.74307      461.85297      340.68264    
     65000   65000          635.93161     -138.29627      7720.1785      7852.2094      7618.3816      233.82781      3115.998       4346.9005     -6496.8817      6.1121458      3.054689       546.03881     -1287.3946     -127.60761      65462.002      40.302294      40.302294      40.302294      0.75283243     83.161792     -375.2911      -122.75951    
     66000   66000          635.58623      733.10945      8215.0316      7518.4197      7614.244      -95.824304      2895.9885      4280.9954     -6511.4249      11.358865     -29.554768      548.76541     -1291.9529     -128.20934      65154.767      40.239144      40.239144      40.239144      0.75638239     323.4398       2363.0398     -487.15127    
     67000   67000          644.26878      227.53831      7870.5388      7650.7494      7718.2598     -67.510465      2879.7175      4409.3742     -6615.3273      7.7693598     -3.7460957      541.1755      -1286.4736     -126.12162      66233.293      40.45996       40.45996       40.45996       0.74406565     42.666411      490.78514      149.16336    
     68000   68000          628.43799      208.28165      7722.5804      7523.4906      7528.609      -5.1183792      2923.2981      4401.014      -6590.6139      6.7927844      2.6436496      543.52945     -1291.7825     -127.45112      65542.38       40.318782      40.318782      40.318782      0.7519092      1576.9059     -357.85409     -594.20685    
     69000   69000          643.09781     -353.03355      7387.4292      7715.8922      7704.2318      11.660388      2945.4443      4437.8569     -6596.4421      4.926562      -34.2085        543.60955     -1289.5263     -130.93967      63796.172      39.957491      39.957491      39.957491      0.77249021     150.98373      237.18939     -1447.2738    
     70000   70000          631.43283     -501.97513      6960.7715      7428.8137      7564.4867     -135.67297      2886.0142      4318.072      -6603.8438      7.1788872     -11.575762      554.60592     -1286.1244     -130.65887      63933.28       39.986095      39.986095      39.986095      0.77083356    -1117.8129      361.60981     -749.72232    
     71000   71000          630.82278      110.67372      7637.4959      7535.122       7557.1784     -22.056423      2911.8477      4450.2059     -6648.5106      6.4078055     -6.2749648      551.18478     -1286.9171     -131.70336      63426.248      39.880109      39.880109      39.880109      0.77699564     1055.6535     -376.41895     -347.21337    
     72000   72000          624.20135     -385.02058      6847.7058      7205.632       7477.8545     -272.22246      2846.9837      4273.2305     -6605.9225      3.4427422     -47.329942      545.18086     -1287.8078     -131.04854      63743.175      39.946423      39.946423      39.946423      0.77313247     633.32146      282.79609     -2071.1793    
     73000   73000          634.4996      -82.865351      7522.4207      7602.2526      7601.2263      1.0263214      3053.6173      4289.8053     -6599.6432      4.8280977     -14.546276      550.24532     -1283.2802     -126.45563      66058.348      40.424306      40.424306      40.424306      0.74603619    -771.64391      205.10028      317.94757    
     74000   74000          636.4781      -1247.9945      6305.8931      7510.1006      7624.9285     -114.82787      2820.5908      4329.3994     -6514.0036      5.9139726     -31.490536      557.47639     -1282.7142     -126.25631      66162.631      40.445566      40.445566      40.445566      0.74486031    -1640.719      -1569.4179     -533.84663    
     75000   75000          637.42813     -844.61563      6896.0552      7700.0846      7636.3097      63.774923      3055.7703      4429.7547     -6636.7062      7.0393196     -47.3819        547.19528     -1291.8965     -127.97612      65273.503      40.263573      40.263573      40.263573      0.75500648    -1581.7902      1009.5287     -1961.5855    
     76000   76000          631.3106      -37.180233      7682.1737      7717.7542      7563.0225      154.7317       2926.3505      4421.9447     -6519.3341      5.591106       60.552438      545.88943     -1286.2624     -127.30408      65618.085      40.334299      40.334299      40.334299      0.7510417     -444.67749     -1054.4185      1387.5553    
     77000   77000          634.6983      -1562.5004      5962.5814      7418.8499      7603.6066     -184.75669      2984.6704      4207.669      -6585.5337      6.8060312     -61.37418       550.40604     -1287.4002     -130.7135       63906.558      39.980523      39.980523      39.980523      0.77115588    -651.57263     -1725.4751     -2310.4535    
     78000   78000          629.21505      136.07339      7544.0812      7418.2647      7537.918      -119.65326      2900.1373      4357.4817     -6596.4867      7.8452664     -56.353989      550.07914     -1282.3559     -131.75819      63399.855      39.874577      39.874577      39.874577      0.7773191     -481.23296      1953.6215     -1064.1684    
     79000   79000          631.6746       204.04993      7829.8737      7633.0237      7567.3832      65.640545      2988.1204      4366.8211     -6567.349       4.2483706      10.18774       547.35133     -1283.7394     -126.28236      66148.984      40.442786      40.442786      40.442786      0.74501398    -880.62646     -530.51926      2023.2955    
     80000   80000          625.95664     -55.143753      7391.9369      7444.7777      7498.8827     -54.104988      2879.7685      4432.3935     -6614.4861      6.8677468     -14.93077       543.97004     -1287.6879     -127.13606      65704.803      40.352059      40.352059      40.352059      0.75005047     462.93126      1053.5315     -1681.8941    
     81000   81000          636.16653     -14.819441      7667.4916      7681.4745      7621.1959      60.278516      2959.0165      4444.8564     -6620.3025      8.9843558      5.5467293      547.37184     -1285.1948     -129.11526      64697.619      40.144812      40.144812      40.144812      0.76172692     111.14938      155.90565     -311.51336    
     82000   82000          626.70813      1229.3356      8611.9036      7444.1605      7507.8854     -63.724894      2901.256       4361.7113     -6635.7918      8.9542367      43.490005      542.89453     -1286.2391     -128.25223      65132.979      40.234658      40.234658      40.234658      0.7566354      331.7767       1858.2875      1497.9427    
     83000   83000          631.29826     -836.82238      6741.5688      7552.6026      7562.8746     -10.272005      2924.3668      4399.1805     -6595.8937      2.9470678     -2.2999235      548.80773     -1287.3805     -125.70023      66455.329      40.505121      40.505121      40.505121      0.74157962    -1479.0359      152.94907     -1184.3804    
     84000   84000          653.30906      1306.2908      9038.1863      7804.2467      7826.5613     -22.314581      2894.3098      4347.5526     -6510.0439      6.6017903     -21.320335      548.19695     -1287.6115     -128.96971      64770.633      40.159908      40.159908      40.159908      0.76086825     427.93295      2382.8325      1108.1068    
     85000   85000          629.75983     -948.71505      6510.3227      7410.6348      7544.4444     -133.80958      2939.0583      4321.0291     -6629.4659      6.6811037     -34.894304      550.26075     -1286.4787     -128.37618      65070.093      40.221705      40.221705      40.221705      0.75736665    -1924.4255     -504.74092     -416.97876    
     86000   86000          639.94328     -1020.1002      6570.1035      7554.5798      7666.4409     -111.86111      2915.1635      4280.4307     -6595.6774      5.8731111      8.4468589      555.49422     -1281.5921     -126.23487      66173.873      40.447857      40.447857      40.447857      0.74473377    -1485.0306     -1603.1339      27.863947    
     87000   87000          625.63734     -1028.8256      6592.3981      7562.8489      7495.0575      67.791328      2961.1152      4519.5576     -6658.4314      8.6194198     -30.079475      553.1944      -1286.1844     -129.15464      64677.895      40.140732      40.140732      40.140732      0.76195922    -104.15561     -625.20609     -2357.1151    
     88000   88000          632.50338     -190.39279      7375.715       7555.3791      7577.3118     -21.932723      2895.6059      4398.5905     -6572.9208      4.3242677     -14.620926      552.56168     -1285.4733     -129.10139      64704.572      40.14625       40.14625       40.14625       0.76164507    -1175.7556     -1321.1804      1925.7576    
     89000   89000          614.62104     -516.13093      6854.9872      7368.9698      7363.0835      5.8862912      2918.2854      4358.0064     -6520.8182      2.0465262     -13.700385      548.23142     -1286.1648     -122.3357       68283.012      40.873098      40.873098      40.873098      0.7217303     -357.86374     -406.74101     -783.78805    
     90000   90000          627.84212      658.02845      8168.3628      7525.1788      7521.4704      3.7083174      2867.8281      4382.5169     -6511.1567      3.1089363     -5.7865327      550.48467     -1283.287      -124.6382       67021.585      40.619842      40.619842      40.619842      0.73531412     221.42391     -15.379086      1768.0405    
     91000   91000          645.96214      139.01709      7957.412       7823.6727      7738.546       85.126676      3007.3781      4391.2324     -6565.726       7.9033005     -18.758209      548.94845     -1285.8514     -126.63419      65965.203      40.405297      40.405297      40.405297      0.74708961     217.38099     -206.19827      405.86855    
     92000   92000          634.65379     -83.704167      7423.4046      7501.9815      7603.0735     -101.09199      2943.0829      4242.8349     -6566.5279      7.7941298     -1.1698678      557.66931     -1284.7755     -129.77587      64368.283      40.076579      40.076579      40.076579      0.76562425    -318.58927      81.718242     -14.24147     
     93000   93000          630.6281       465.39071      7945.3708      7514.7131      7554.8462     -40.133187      3006.506       4240.9449     -6581.0243      8.7104094      20.997929      550.37191     -1286.6399     -131.65191      63451.035      39.885304      39.885304      39.885304      0.77669211     311.87392      486.88241      597.4158     
     94000   94000          637.15467     -686.21092      6777.5938      7422.9908      7633.0336     -210.04283      2896.0438      4295.066      -6633.6477      7.4236938     -39.657376      550.9017      -1286.1729     -129.53062      64490.155      40.101856      40.101856      40.101856      0.76417739    -544.04711     -1035.5882     -478.99739    
     95000   95000          627.6141       372.09607      7907.2029      7554.1149      7518.7388      35.376134      3009.0174      4260.5603     -6558.7745      7.2395214      52.219794      549.97421     -1284.8607     -128.38488      65065.681      40.220796      40.220796      40.220796      0.757418      -402.28143      262.7066       1255.8631    
     96000   96000          634.54707      1347.2994      8908.7584      7627.6612      7601.795       25.866276      2966.2476      4341.6819     -6565.069       8.6983504      1.6728999      554.69852     -1282.064      -128.12203      65199.169      40.248283      40.248283      40.248283      0.75586727     1940.9016      1464.1445      636.85205    
     97000   97000          627.69129      419.32094      7749.7083      7364.4294      7519.6635     -155.23418      2871.1727      4339.2556     -6620.9246      7.4050495     -19.576188      551.2493      -1283.8159     -132.5907       63001.777      39.790946      39.790946      39.790946      0.7822306      1279.2277     -675.45538      654.19048    
     98000   98000          647.13229      274.19783      7806.9268      7556.2542      7752.5643     -196.31015      2891.9101      4227.2293     -6541.2216      4.0027403     -42.137197      548.83077     -1284.9243     -133.25968      62685.502      39.72425       39.72425       39.72425       0.7861773      2384.5598     -1687.7295      125.76317    
     99000   99000          619.06505     -608.0174       6782.2383      7364.0704      7416.3222     -52.251792      2980.1248      4270.7344     -6564.263       5.7039198     -0.83518032     540.81283     -1284.5296     -127.30928      65615.407      40.333751      40.333751      40.333751      0.75107235    -912.33575      93.228195     -1004.9446    
    100000   100000         636.85811     -1679.5239      5739.1904      7337.2096      7629.481      -292.27133      2873.0785      4126.9385     -6554.5292      5.0855698     -4.2757622      549.66222     -1288.2312     -128.04009      65240.896      40.256867      40.256867      40.256867      0.75538383    -2049.3106     -3386.6612      397.40004    
    101000   101000         637.44174     -213.2105       7502.9675      7704.7913      7636.4728      68.318543      2956.1112      4412.0877     -6532.0891      8.7562351     -39.730577      550.77665     -1287.5936     -128.6998       64906.473      40.187964      40.187964      40.187964      0.75927586    -638.58295     -2068.8659      2067.8173    
    102000   102000         620.30742      921.60218      8162.9234      7307.5109      7431.2057     -123.69476      2902.8542      4320.8767     -6596.3768      4.980942      -9.9268223      544.44525     -1290.5483     -131.25314      63643.809      39.925655      39.925655      39.925655      0.77433954     1539.2028      1311.8274     -86.223658    
    103000   103000         635.70929     -963.30837      6753.8811      7666.4098      7615.7182      50.69163       2973.8553      4388.7008     -6541.4642      7.044625      -41.744075      548.17814     -1283.879      -128.6058       64953.911      40.197752      40.197752      40.197752      0.75872134    -1323.4638     -357.33803     -1209.1233    
    104000   104000         643.70129      440.47171      8252.4229      7825.9591      7711.4613      114.49774      3000.6448      4329.4597     -6516.3611      6.0870087      31.117909      550.57528     -1287.0259     -125.82808      66387.804      40.491398      40.491398      40.491398      0.74233391     2058.3056      153.81723     -890.70766    
    105000   105000         619.28962      327.42357      7564.356       7257.0666      7419.0126     -161.94602      2842.9645      4287.4369     -6546.4725      5.0880092     -8.0580213      547.97965     -1290.8845     -129.80877      64351.971      40.073193      40.073193      40.073193      0.76581832     790.50895      32.240822      159.52093    
    106000   106000         636.30656     -2222.8648      5308.0747      7426.1634      7622.8735     -196.71007      2972.9492      4180.8594     -6556.4951      6.6431512     -53.677845      542.90446     -1289.8933     -127.85293      65336.399      40.276501      40.276501      40.276501      0.75427967    -1716.0227     -3777.2443     -1175.3275    
    107000   107000         626.80267     -406.67688      6931.9987      7317.4479      7509.018      -191.57015      2762.7972      4386.9077     -6590.111       9.6569611     -10.260042      541.79342     -1292.3545     -128.53579      64989.29       40.205049      40.205049      40.205049      0.7583083     -726.83795      22.529688     -515.72238    
    108000   108000         636.09575     -264.89841      7264.6551      7513.6082      7620.3479     -106.73965      2931.6083      4348.1884     -6562.4493      8.3379875     -96.333319      550.81932     -1286.911      -129.62942      64441.001      40.091665      40.091665      40.091665      0.76476028    -140.94452     -228.31077     -425.43995    
    109000   109000         621.37428      1572.5888      8695.2318      7199.3229      7443.9866     -244.66375      2856.7966      4203.4568     -6579.9294      8.5152947      4.1503922      548.36129     -1286.0147     -128.07129      65224.999      40.253597      40.253597      40.253597      0.75556794    -176.10491      2417.7678      2476.1035    
    110000   110000         633.45273     -121.27768      7288.8523      7405.6251      7588.6849     -183.05979      2769.8381      4333.5736     -6547.5335      5.4700903     -2.9181443      546.27893     -1287.769      -126.52632      66021.44       40.416776      40.416776      40.416776      0.74645324    -707.77732      352.37467     -8.4303978    
    111000   111000         637.08333      497.85415      7995.0059      7534.2341      7632.1791     -97.944918      2922.0039      4357.3501     -6618.4764      4.0275998     -10.189225      539.25831     -1291.9192     -131.63096      63461.133      39.88742       39.88742       39.88742       0.77656852     363.83545      493.74808      635.97891    
    112000   112000         655.0658       841.29244      8232.6466      7436.9329      7847.6067     -410.67384      2827.708       4168.1076     -6626.997       7.4655511     -40.996485      541.20806     -1287.1696     -128.80476      64853.581      40.177045      40.177045      40.177045      0.7598951      916.95406      943.1283       663.79496    
    113000   113000         616.23923      752.11775      7976.4215      7267.08        7382.4693     -115.38928      2860.784       4407.6426     -6646.5518      8.8174335      1.7897686      541.41854     -1289.2899     -129.17315      64668.625      40.138815      40.138815      40.138815      0.76206844    -327.26721      1614.1275      969.493      
    114000   114000         646.10586      707.38541      8312.0841      7659.6558      7740.2679     -80.612109      2914.0458      4340.0745     -6534.8417      5.2820799     -55.830262      539.88723     -1289.2298     -132.08851      63241.308      39.84131       39.84131       39.84131       0.77926786     346.57033      2404.5694     -628.98348    
    115000   115000         624.47329     -153.12225      7314.767       7460.8775      7481.1124     -20.234902      2980.9477      4409.5339     -6707.6966      10.965739      31.185919      540.95748     -1286.129      -127.67293      65428.513      40.29542       40.29542       40.29542       0.75321776    -1166.5407      1810.1684     -1102.9945    
    116000   116000         630.53055     -271.96528      7232.6259      7495.0232      7553.6776     -58.654439      2961.7143      4330.4395     -6613.0754      5.1488267      1.3050422      542.48693     -1286.6735     -126.26875      66156.113      40.444238      40.444238      40.444238      0.7449337      1531.1088     -1421.4969     -925.50777    
    117000   117000         636.62547      108.37893      7446.4387      7342.0799      7626.6939     -284.61404      2868.5767      4225.0319     -6623.7001      5.1776162     -6.4336604      537.97979     -1291.2463     -126.51949      66025.007      40.417504      40.417504      40.417504      0.74641292     82.377894     -854.26345      1097.0223    
    118000   118000         652.21869      393.35925      8055.2186      7673.7726      7813.4987     -139.72611      2884.9599      4297.3904     -6586.9405      5.5071395      0.60192768     543.81449     -1285.0595     -125.63136      66491.757      40.512521      40.512521      40.512521      0.74117335    -373.11353      1328.8438      224.34747    
    119000   119000         623.01757     -306.02429      7145.1619      7436.1914      7463.673      -27.481633      2931.2773      4351.4262     -6585.7796      3.8835343      20.58269       542.31547     -1291.1872     -128.10339      65208.657      40.250235      40.250235      40.250235      0.75575729    -111.00192     -1671.9157      864.84479    
    120000   120000         633.44399     -353.58252      7128.9582      7467.6412      7588.5803     -120.93909      2886.5578      4252.5562     -6468.574       8.1734209     -48.342983      541.33769     -1292.6472     -127.18595      65679.032      40.346783      40.346783      40.346783      0.75034477     609.89391     -859.12721     -811.51425    
    121000   121000         646.6189       1276.0586      8736.9876      7532.5927      7746.4139     -213.82127      2857.2218      4207.7881     -6539.9576      5.6273795      4.5811679      540.63147     -1289.7136     -129.0754       64717.601      40.148945      40.148945      40.148945      0.76149173     1602.1972      1521.7702      704.20829    
    122000   122000         618.48179      319.46592      7555.0239      7248.0728      7409.3349     -161.26216      2909.0762      4233.153      -6551.3513      4.8468493     -14.755462      544.62204     -1286.8534     -126.79353      65882.304      40.388364      40.388364      40.388364      0.74802967     837.47611      464.41808     -343.49642    
    123000   123000         631.17963      661.11023      8236.1975      7599.0157      7561.4534      37.562273      2896.8304      4340.9606     -6541.2838      9.4679752      74.579102      544.92016     -1287.9123     -126.40151      66086.629      40.430074      40.430074      40.430074      0.74571693     434.15863     -223.41817      1772.5902    
    124000   124000         627.69592      252.48234      7543.2273      7305.2714      7519.7191     -214.44772      2817.7556      4243.2966     -6526.7759      5.1829673     -6.2842972      540.93506     -1288.5578     -129.26361      64623.37       40.129449      40.129449      40.129449      0.7626021      477.55999      1230.08       -950.19292    
    125000   125000         629.62693     -322.83859      7142.3973      7449.3264      7542.8523     -93.525981      2961.1622      4323.0347     -6607.5331      6.7958212     -34.658027      545.89127     -1288.2188     -128.14131      65189.358      40.246264      40.246264      40.246264      0.75598103     684.72643     -1417.8534     -235.38881    
    126000   126000         636.43168     -27.053743      7635.5178      7661.8706      7624.3723      37.498316      2946.6998      4406.2258     -6603.6445      3.3676215      17.653271      549.70758     -1282.5112     -125.0667       66791.959      40.573399      40.573399      40.573399      0.73784208    -328.2493      -301.03988      548.12795    
    127000   127000         625.09786     -138.90272      7231.9602      7365.3616      7488.5946     -123.23299      2932.3274      4287.0077     -6589.5026      10.86454      -26.167826      546.78818     -1284.5503     -126.85047      65852.731      40.38232       40.38232       40.38232       0.74836559    -9.596154      -534.86812      127.75612    
    128000   128000         616.10935     -227.0756       6843.3026      7056.6123      7380.9134     -324.30113      2803.6304      4218.6706     -6573.2973      5.0278899     -32.548913      540.2155      -1285.9993     -129.68858      64411.607      40.085568      40.085568      40.085568      0.76510928     557.23497     -419.79055     -818.67122    
    129000   129000         618.22161      696.53724      7933.4011      7275.8237      7406.218      -130.3943       2915.9725      4393.8024     -6666.3585      1.5809963     -26.677286      539.71794     -1288.4323     -129.04441      64733.138      40.152158      40.152158      40.152158      0.76130896     839.01615      870.86691      379.72867    
    130000   130000         650.71131      192.60597      7851.1754      7665.2329      7795.4405     -130.20757      2920.0553      4272.4251     -6591.28        10.341233      6.0039128      540.57205     -1288.3252     -126.19232      66196.184      40.452402      40.452402      40.452402      0.74448276     665.03623      144.12835     -231.34667    
    131000   131000         627.26305     -158.10654      7355.793       7507.3665      7514.5334     -7.1668928      3025.4841      4372.5533     -6646.7985      9.386928      -31.971052      549.35635     -1285.178      -127.07744      65735.114      40.358264      40.358264      40.358264      0.74970461     238.54289     -602.74217     -110.12034    
    132000   132000         638.64901      674.90889      8181.3815      7539.4801      7650.9357     -111.45568      2804.7097      4360.5309     -6544.6825      11.000181     -0.22855261     545.74322     -1288.5286     -128.09099      65214.969      40.251534      40.251534      40.251534      0.75568414    -1468.573       2979.859       513.44069    
    133000   133000         620.63282      279.12451      7492.0306      7230.3363      7435.104      -204.76761      2955.2014      4231.6228     -6632.8548      9.448079      -29.979918      544.84901     -1283.0543     -129.94081      64286.576      40.059614      40.059614      40.059614      0.76659734     347.92186      800.80505     -311.35338    
    134000   134000         634.99086      941.33399      8256.3169      7346.8274      7607.1115     -260.28407      2905.6578      4246.2871     -6620.6151      5.7343175     -46.036157      535.93349     -1287.2455     -126.09207      66248.812      40.46312       40.46312       40.46312       0.74389135    -40.022991      1294.2299      1569.795     
    135000   135000         632.165        356.16234      7937.1982      7595.2032      7573.2581      21.945067      3055.8421      4383.433      -6666.6314      6.0744053     -19.58995       550.23841     -1287.4215     -126.87322      65840.925      40.379906      40.379906      40.379906      0.74849978    -516.56114      133.26424      1451.7839    
    136000   136000         622.64721     -31.993604      7244.1335      7275.3859      7459.2361     -183.85025      2861.5749      4311.8578     -6608.598       7.2729441     -14.386008      546.38216     -1287.954      -124.71607      66979.738      40.611386      40.611386      40.611386      0.73577352    -2070.3432     -440.83705      2415.1994    
    137000   137000         622.424        833.06347      8285.8         7452.569       7456.5621     -3.9931292      2954.0343      4308.7864     -6567.1385      10.052537      34.941768      540.44708     -1285.1167     -121.802        68582.208      40.932709      40.932709      40.932709      0.71858168    -323.10535      1001.3154      1820.9804    
    138000   138000         633.74378      382.07921      8026.0337      7639.7796      7592.1717      47.607938      2943.6823      4314.0165     -6524.3927      5.1754204      41.854405      550.12617     -1282.8542     -120.50973      69317.64       41.078501      41.078501      41.078501      0.71095782     1917.1976      1222.5309     -1993.4909    
    139000   139000         633.97285      1448.9132      8877.8248      7479.2806      7594.9159     -115.63527      2858.3134      4274.1618     -6525.391       7.0497242      7.4735287      549.19571     -1286.4384     -126.21412      66184.751      40.450073      40.450073      40.450073      0.74461137     564.07674      2393.1369      1389.5259    
    140000   140000         613.58552     -847.79754      6136.6587      6943.0761      7350.6782     -407.60212      2760.8107      4085.9993     -6464.4046      4.0283225     -48.160175      543.95496     -1289.8306     -128.07784      65221.665      40.252911      40.252911      40.252911      0.75560657    -664.29556     -1050.4995     -828.59752    
    141000   141000         630.87115     -858.8557       6726.5049      7550.1672      7557.7579     -7.5906688      3045.8567      4289.1257     -6570.3179      10.166601     -32.91433       540.67835     -1290.1858     -127.0319       65758.678      40.363086      40.363086      40.363086      0.74943596    -649.00027      271.66762     -2199.2344    
    142000   142000         618.09781     -615.66291      6780.3465      7375.7583      7404.7349     -28.976583      2923.2015      4434.2357     -6608.63        3.6651509     -31.479778      540.03078     -1289.9999     -125.97006      66312.98       40.47618       40.47618       40.47618       0.74317152    -1229.1927     -205.6264      -412.16961    
    143000   143000         633.04613      1146.7017      8324.9124      7236.5648      7583.8139     -347.24912      2854.0141      4103.8412     -6505.1003      6.4995309     -63.844911      546.72581     -1289.3846     -128.35848      65079.067      40.223554      40.223554      40.223554      0.75726221     879.82073      652.91034      1907.374     
    144000   144000         645.50957     -499.81013      7090.6374      7564.5846      7733.1244     -168.5398       2935.8716      4291.6357     -6616.7445      7.1748325     -56.633302      553.70394     -1283.548      -128.47449      65020.301      40.211443      40.211443      40.211443      0.75794663    -595.70342     -1322.5585      418.83147    
    145000   145000         623.65427     -246.4903       7217.3469      7447.754       7471.3006     -23.546554      2960.4996      4380.9961     -6550.739       4.9188839     -76.965194      545.40134     -1287.6583     -130.33037      64094.426      40.019662      40.019662      40.019662      0.76889554     1054.2145     -2169.5925      375.90707    
    146000   146000         641.98977     -190.32326      7534.3841      7712.2852      7690.9575      21.327665      2931.7789      4435.2615     -6589.6901      8.3171211     -27.454451      551.24431     -1288.1296     -130.33317      64093.048      40.019376      40.019376      40.019376      0.76891207     534.64678     -2770.5383      1664.9217    
    147000   147000         629.19363     -59.330964      7403.873       7460.0452      7537.6614     -77.61619       2990.9119      4351.0623     -6672.3644      7.1851266     -14.754024      548.82815     -1288.4852     -128.67722      64917.862      40.190314      40.190314      40.190314      0.75914266    -105.99801     -259.8049       187.81002    
    148000   148000         633.41548     -264.31917      7100.5807      7346.1433      7588.2387     -242.09539      2892.7204      4312.1785     -6610.7099      5.9539192     -93.904607      544.23724     -1292.571      -131.13186      63702.67       39.93796       39.93796       39.93796       0.77362406    -33.252301     -2197.5756      1437.8704    
    149000   149000         634.58872      1319.1586      8484.9968      7272.1116      7602.2939     -330.18225      2829.7128      4292.1807     -6670.4183      10.105812     -46.709898      543.53976     -1288.5931     -132.50098      63044.439      39.799926      39.799926      39.799926      0.78170128     1147.7665      2113.0181      696.69112    
    150000   150000         633.17839      45.845184      7444.6457      7403.4567      7585.3983     -181.94159      2890.0737      4318.2116     -6521.0825      5.7354676     -129.47219      542.61441     -1288.0221     -135.59848      61604.303      39.494536      39.494536      39.494536      0.79997526    -1542.1182     -603.65239      2283.3061    
    151000   151000         615.55988      527.29036      7573.2176      7081.5281      7374.3308     -292.80264      2876.2028      4231.7037     -6612.0988      6.4654063     -61.818283      552.99938     -1286.2569     -130.64737      63938.907      39.987268      39.987268      39.987268      0.77076573    -801.64706      1722.6994      660.81874    
    152000   152000         636.21483     -188.93047      7212.4922      7391.2914      7621.7745     -230.48315      2854.5095      4275.6666     -6637.9469      8.5535996      4.373261       550.07529     -1285.7144     -128.72953      64891.48       40.184869      40.184869      40.184869      0.75945129     147.6469       19.411975     -733.85029    
    153000   153000         641.33887      313.94192      7935.8781      7635.8173      7683.1599     -47.342619      2946.5621      4321.0692     -6580.9824      3.4479842     -7.1587071      552.74991     -1283.0307     -127.46229      65536.637      40.317604      40.317604      40.317604      0.75197508     537.71464     -2269.6329      2673.7441    
    154000   154000         625.35838      645.76819      7982.4043      7374.0783      7491.7156     -117.63727      2897.2902      4350.8691     -6600.0258      5.6635571     -29.584212      544.99785     -1286.848      -129.32488      64592.754      40.123111      40.123111      40.123111      0.76296357     1270.3987      270.58122      396.32463    
    155000   155000         622.81263     -1177.6536      6185.2764      7312.7504      7461.2178     -148.46744      2959.6254      4255.4846     -6605.095       8.6240517     -28.142635      550.2772      -1289.241      -127.24855      65646.722      40.340166      40.340166      40.340166      0.75071407    -968.56918     -2991.444       427.05225    
    156000   156000         630.39576     -364.72874      7158.4573      7509.7041      7552.0628     -42.358708      2964.1665      4363.1555     -6622.7993      10.423193     -19.414648      547.23982     -1285.1298     -126.50257      66033.835      40.419305      40.419305      40.419305      0.74631313     75.916994     -1165.0251     -5.0781407    
    157000   157000         627.63547     -276.67453      7117.6867      7388.1867      7518.9948     -130.80817      2905.424       4300.9262     -6541.2483      6.4474288     -59.115813      544.61347     -1287.8551     -124.6074       67038.155      40.623189      40.623189      40.623189      0.73513238    -1217.1454      1147.8317     -760.70982    
    158000   158000         619.09079     -1073.1924      6051.8961      7150.3245      7416.6306     -266.30607      2894.7351      4195.8343     -6621.1678      6.5232072      0.54779958     544.26341     -1287.0421     -119.02758      70180.795      41.248304      41.248304      41.248304      0.70221373    -1909.7376      358.67547     -1668.515     
    159000   159000         624.62594      1486.4628      8909.0413      7399.5324      7482.9411     -83.408649      3027.7941      4105.9239     -6519.6261      4.2273376      47.059564      541.4727      -1290.2601     -119.96654      69631.497      41.140406      41.140406      41.140406      0.70775325     2589.6129      153.53398      1716.2414    
    160000   160000         636.59693      1123.5248      8640.8316      7526.402       7626.352      -99.949935      3000.2218      4180.49       -6623.751       7.9902458      78.269727      545.36684     -1288.5375     -122.82077      68013.332      40.819218      40.819218      40.819218      0.72459203    -81.367138      2491.4943      960.44734    
    161000   161000         628.90487      338.37636      7801.4808      7461.7551      7534.2021     -72.446951      3001.9726      4235.7085     -6599.8332      7.2362397      37.16742       538.21714     -1292.9156     -121.34261      68841.85       40.984299      40.984299      40.984299      0.71587149     1441.3332     -660.69769      234.49361    
    162000   162000         615.86389     -773.89429      6577.7319      7342.7764      7377.9727     -35.196331      2915.8217      4314.4937     -6581.259       6.678931       50.276682      544.69778     -1285.9061     -123.23576      67784.304      40.773349      40.773349      40.773349      0.72704026    -372.00285     -2213.9192      264.23917    
    163000   163000         638.75978     -612.78465      6897.3785      7492.4602      7652.2627     -159.80254      2942.8838      4226.0744     -6564.0912      7.889794      -27.811762      543.07159     -1287.8192     -125.45069      66587.519      40.531961      40.531961      40.531961      0.74010744     772.54184     -2971.5807      360.68491    
    164000   164000         626.31012     -309.08788      7061.8493      7365.9638      7503.1173     -137.1535       2861.0229      4368.0514     -6592.5035      1.3173093     -34.234567      545.22093     -1286.0279     -123.81879      67465.126      40.709251      40.709251      40.709251      0.7304799      234.17967     -843.6367      -317.80663    
    165000   165000         629.70124      84.130416      7522.1546      7440.876       7543.7425     -102.86647      2866.0048      4368.0503     -6580.8807      3.1384781     -14.779672      546.46148     -1290.8611     -126.10104      66244.098      40.46216       40.46216       40.46216       0.74394428    -50.80171       129.94759      173.24537    
    166000   166000         637.27007      726.50703      8297.2581      7600.0001      7634.4161     -34.416         2911.7809      4354.5246     -6550.3275      3.2795759     -14.726165      550.05522     -1289.0026     -126.93696      65807.862      40.373146      40.373146      40.373146      0.74887584     1541.8063      685.73022     -48.01543     
    167000   167000         625.76294     -290.57881      7163.265       7446.9588      7496.5621     -49.603368      2975.5701      4282.1373     -6553.9541      7.1702218     -22.242428      546.37381     -1284.6583     -124.78315      66943.732      40.604108      40.604108      40.604108      0.73616926     114.33068      119.79337     -1105.8605    
    168000   168000         630.76231     -731.77976      6681.3016      7381.3464      7556.4541     -175.10762      2968.0211      4109.9993     -6514.6047      4.202077       2.4908082      543.10969     -1288.3259     -127.34923      65594.823      40.329533      40.329533      40.329533      0.75130804    -2772.4233      15.83391       561.25008    
    169000   169000         618.26117      813.23457      8190.7064      7399.9127      7406.6919     -6.7791962      2918.9676      4417.9331     -6673.2685      8.1368892      62.913171      544.71153     -1286.1729     -125.28366      66676.293      40.549965      40.549965      40.549965      0.73912205     972.82518      592.03138      874.84717    
    170000   170000         620.92945     -301.92877      7164.2283      7465.9761      7438.6575      27.318609      2972.053       4333.9689     -6544.0914      2.1726193      4.352627       547.42275     -1288.5598     -121.89955      68527.324      40.921787      40.921787      40.921787      0.7191572      1474.3048      375.54199     -2755.6331    
    171000   171000         626.05541      920.34439      8252.181       7333.1902      7500.066      -166.87576      2855.2502      4260.1542     -6593.5282      5.9156432      49.034284      543.98224     -1287.6842     -122.00594      68467.569      40.909889      40.909889      40.909889      0.71978484     1223.8258      498.00394      1039.2034    
    172000   172000         612.88806      58.715484      7147.4259      7091.3601      7342.3227     -250.96261      2831.7924      4291.2935     -6584.4981      4.4011146     -48.326204      542.95029     -1288.5755     -127.58399      65474.122      40.304781      40.304781      40.304781      0.75269307    -377.14852      469.90416      83.390813    
    173000   173000         623.29858     -849.45713      6626.147       7439.3526      7467.0395     -27.686866      2962.842       4244.7783     -6483.8773      2.3822819     -7.9020423      542.59522     -1288.5053     -127.25735      65642.181      40.339236      40.339236      40.339236      0.75076601    -900.65725     -1444.8898     -202.82434    
    174000   174000         620.6637       109.62088      7392.9698      7284.7132      7435.4739     -150.76073      2829.8143      4279.7441     -6540.939       2.7498793      19.395534      546.15753     -1287.683      -123.36177      67715.063      40.759461      40.759461      40.759461      0.72778369    -56.002909      888.58983     -503.72428    
    175000   175000         628.81624      172.49796      7647.6816      7477.7119      7533.1403     -55.428385      2938.3844      4364.0805     -6594.1726      5.302109      -26.46868       545.79921     -1288.3533     -123.63867      67563.41       40.72901       40.72901       40.72901       0.72941728     2813.1911     -546.17032     -1749.5269    
    176000   176000         622.17545      770.12482      8192.7321      7447.7843      7453.5844     -5.8000925      2903.7922      4385.014      -6602.0662      0.57098305     59.417397      535.06828     -1287.5967     -125.94388      66326.761      40.478983      40.478983      40.478983      0.74301711     1416.5317      2078.0033     -1184.1605    
    177000   177000         614.86909     -1453.7318      5751.1742      7178.922       7366.0552     -187.1332       2882.1445      4235.6349     -6510.0363      6.2646081     -56.962867      546.19077     -1290.3689     -124.04365      67342.826      40.684637      40.684637      40.684637      0.7318065     -633.06007     -3652.1792     -75.956075    
    178000   178000         615.51563     -219.70596      7044.3603      7260.3625      7373.8007     -113.43821      2924.9704      4288.5965     -6547.6424      7.1909245     -47.784813      549.31996     -1288.0887     -123.91542      67412.515      40.698666      40.698666      40.698666      0.73104999     1172.2166      118.04177     -1949.3763    
    179000   179000         634.04104     -519.21763      6912.8925      7405.2764      7595.7327     -190.45635      2865.7763      4243.8726     -6563.0036      5.5523112     -1.9266554      544.32787     -1285.0552     -128.46574      65024.73       40.212356      40.212356      40.212356      0.75789501    -690.46112     -196.75622     -670.43555    
    180000   180000         623.99839     -421.41352      6968.2334      7372.0189      7475.4231     -103.40421      2858.5084      4359.5288     -6570.1571      6.7275773     -13.97731       541.95297     -1285.9876     -127.14506      65700.156      40.351108      40.351108      40.351108      0.75010352    -126.85653     -839.64944     -297.7346     
    181000   181000         632.25908     -262.17861      7154.846       7406.4672      7574.3851     -167.91788      2879.7312      4276.7005     -6567.0401      7.6688873     -24.532014      545.52975     -1285.9761     -126.93805      65807.299      40.373031      40.373031      40.373031      0.74888226    -359.40578      715.77329     -1142.9033    
    182000   182000         627.44073     -384.28904      7007.5076      7373.8409      7516.6619     -142.82098      2948.5395      4119.4012     -6454.5525      9.0431268     -11.733214      539.57105     -1293.0902     -127.79779      65364.588      40.282292      40.282292      40.282292      0.75395439    -498.26477     -293.15534     -361.44701    
    183000   183000         616.42406      1092.5033      8011.3668      6968.8529      7384.6835     -415.83061      2770.0766      4093.4982     -6571.8758      7.2872946      24.528072      547.26833     -1286.6132     -127.66817      65430.95       40.29592       40.29592       40.29592       0.7531897      974.61421      1319.8206      983.07504    
    184000   184000         623.23268     -749.42254      6654.5229      7379.5941      7466.2499     -86.655794      3047.5904      4163.9847     -6584.004       6.0906991      28.054374      539.30209     -1287.674      -125.91801      66340.393      40.481756      40.481756      40.481756      0.74286443    -2834.069       554.69298      31.108426    
    185000   185000         604.62973      938.5302       7917.255       7017.8193      7243.3889     -225.56963      2935.352       4163.8992     -6589.958       6.8707665      3.0406348      545.00781     -1289.782      -127.12175      65712.199      40.353574      40.353574      40.353574      0.74996604     2548.142      -52.135996      319.58463    
    186000   186000         635.90821     -105.81545      7251.0761      7351.0045      7618.1013     -267.09678      2917.3091      4125.5591     -6563.8182      4.9856179     -6.0893659      544.24106     -1289.2841     -129.00364      64753.596      40.156387      40.156387      40.156387      0.76106843     460.30845      426.81469     -1204.5695    
    187000   187000         629.44796     -1082.8972      6460.7311      7516.8799      7540.7082     -23.828336      2977.8176      4270.1475     -6567.4431      3.5436476      29.390059      546.98373     -1284.2677     -124.91192      66874.721      40.590151      40.590151      40.590151      0.73692895    -793.2547      -2133.6502     -321.78671    
    188000   188000         622.69963     -2020.5669      5367.7339      7333.5377      7459.8641     -126.32643      3006.7393      4187.5189     -6599.9777      7.5341208      9.685797       547.9124      -1285.7392     -125.22032      66710.017      40.5568        40.5568        40.5568        0.7387484     -2793.946      -1233.1622     -2034.5925    
    189000   189000         623.58923      15.240039      7307.5407      7292.8858      7470.5214     -177.63555      2906.7928      4253.7211     -6592.1664      5.3616326     -19.185247      549.78463     -1281.944      -126.69139      65935.42       40.399215      40.399215      40.399215      0.74742708     1011.6085     -475.02596     -490.86243    
    190000   190000         626.09865      140.02917      7521.2381      7389.9891      7500.584      -110.59486      2919.259       4308.9122     -6579.0122      8.7827741     -26.903672      545.97164     -1287.6046     -129.97637      64268.991      40.055961      40.055961      40.055961      0.7668071      906.29922     -1906.2932      1420.0815    
    191000   191000         631.3639       878.35818      8238.349       7426.4038      7563.6609     -137.2571       2972.6069      4281.1431     -6610.0071      5.7866484     -42.512894      544.32802     -1288.6018     -131.79128      63383.934      39.871239      39.871239      39.871239      0.77751434    -196.84617      1054.182       1777.7387    
    192000   192000         626.55926      603.92519      7857.2241      7273.508       7506.102      -232.59401      2811.0237      4392.64       -6682.5482      5.800311      -23.154742      550.30912     -1286.6642     -126.0443       66273.922      40.468231      40.468231      40.468231      0.7436095     -397.75831      1021.9579      1187.576     
    193000   193000         633.28228     -486.85423      7049.6331      7519.3271      7586.6429     -67.315858      3004.911       4339.4339     -6679.3849      7.9313754      1.6233075      546.64459     -1288.4751     -126.27743      66151.567      40.443312      40.443312      40.443312      0.7449849      1000.2157     -1240.8202     -1219.9582    
    194000   194000         622.29369      281.62661      7590.6604      7332.0201      7455.001      -122.98082      2938.0317      4347.3679     -6597.0841      9.3397198     -74.688146      542.82515     -1288.7731     -132.65368      62971.866      39.784648      39.784648      39.784648      0.78260216    -1345.4559      334.18841      1856.1473    
    195000   195000         621.71574      183.50829      7620.8484      7450.3148      7448.0773      2.2375223      2997.512       4381.2298     -6607.8562      7.0259889     -30.075497      541.35288     -1286.9515     -131.09541      63720.385      39.941662      39.941662      39.941662      0.77340899     296.94701      315.32379     -61.745919    
    196000   196000         628.80079      1737.1562      8945.4484      7294.4556      7532.9553     -238.4997       2830.6984      4245.9422     -6579.1662      3.6692602      0.48283321     545.26166     -1285.3878     -128.18448      65167.403      40.241745      40.241745      40.241745      0.75623572     899.7148       1816.0042      2495.7496    
    197000   197000         635.25385      888.38899      8162.4821      7323.4602      7610.2621     -286.80185      2920.8568      4164.8776     -6597.7867      9.028884      -39.171787      544.34971     -1288.9563     -128.99463      64758.122      40.157322      40.157322      40.157322      0.76101525     1027.9495     -937.79173      2575.0092    
    198000   198000         641.0852      -230.47249      7159.1684      7381.7687      7680.121      -298.35222      2888.1749      4215.8767     -6673.3627      3.9192673      16.115398      541.84697     -1290.9229     -126.13483      66226.352      40.458547      40.458547      40.458547      0.74414363     1021.9825     -2518.5292      805.12925    
    199000   199000         625.63445      272.65404      7624.4232      7357.2141      7495.0228     -137.8087       2918.555       4309.1882     -6649.1976      5.6160727      22.386603      545.22974     -1289.5868     -124.30897      67199.094      40.655672      40.655672      40.655672      0.73337176     861.10238     -1454.4737      1411.3334    
    200000   200000         626.443       -364.28404      6990.0847      7345.5649      7504.7092     -159.14433      2987.3353      4262.0459     -6643.4626      4.9648436     -22.261169      541.20765     -1288.9743     -124.84365      66911.291      40.597548      40.597548      40.597548      0.73652619     1884.3202     -1522.9753     -1454.197     
    201000   201000         627.61435     -1232.3463      6057.8724      7226.6342      7518.7419     -292.10769      2869.1755      4339.133      -6684.1851      3.7757262     -81.256136      545.46328     -1284.214      -128.45426      65030.54       40.213554      40.213554      40.213554      0.7578273     -843.06052     -302.3679      -2551.6105    
    202000   202000         633.43138     -892.53559      6532.2743      7384.9897      7588.4291     -203.43941      2958.423       4196.0356     -6585.564       6.1983545     -51.67384       556.27262     -1283.1312     -127.51557      65509.255      40.311988      40.311988      40.311988      0.7522894      420.90732     -1743.1631     -1355.351     
    203000   203000         619.6021      -133.66017      6868.2663      6995.0182      7422.7561     -427.7379       2814.974       4110.6803     -6616.7008      10.2898       -4.66144        546.60467     -1288.9244     -128.46637      65024.409      40.21229       40.21229       40.21229       0.75789874    -559.02599      1375.9827     -1217.9372    
    204000   204000         622.02059      312.36284      7608.779       7308.2037      7451.7293     -143.5256       2878.576       4318.2861     -6627.3391      7.1236994      15.573316      548.18523     -1283.9309     -126.60414      65980.86       40.408493      40.408493      40.408493      0.74691233     1157.5129     -775.08607      554.66166    
    205000   205000         626.5123      -449.17618      6960.8499      7390.0648      7505.5394     -115.47466      2848.0508      4417.1034     -6618.04        8.291129      -27.417845      545.04032     -1288.5025     -127.49224      65521.241      40.314447      40.314447      40.314447      0.75215178     1228.8984      356.01016     -2932.4371    
    206000   206000         624.55366      611.59315      7735.9972      7159.7237      7482.0751     -322.35141      2875.3423      4195.936      -6623.691       1.062778      -34.063231      548.17116     -1285.1094     -129.29321      64608.573      40.126386      40.126386      40.126386      0.76277676    -477.15922     -135.82511      2447.7638    
    207000   207000         619.6054       893.82687      8190.6661      7375.1305      7422.7956     -47.665042      2861.8729      4394.9432     -6540.2845      7.3161923     -31.403509      545.34757     -1285.4568     -133.52183      62562.43       39.698235      39.698235      39.698235      0.78772385     946.88477      1248.6109      485.98491    
    208000   208000         631.4564       63.202521      7400.2582      7341.1863      7564.7691     -223.58276      2894.0517      4237.8716     -6588.3411      4.3318711     -35.024915      549.10518     -1285.577      -130.3453       64087.081      40.018134      40.018134      40.018134      0.76898366     70.093611      1050.1536     -930.6396     
    209000   209000         607.51918      665.9337       7519.935       6886.2898      7278.0042     -391.7144       2753.9843      4240.2827     -6637.4085      6.9078186     -23.668516      551.45882     -1283.271      -128.03438      65243.802      40.257465      40.257465      40.257465      0.75535019     1880.6605     -735.78741      852.928      
[...]
    958000   958000         577.13092     -88.074339      5843.6735      5926.5645      6913.9566     -987.39216      2467.4436      3871.9174     -6545.1929      6.6573467     -61.435427      554.635       -1281.4172     -129.44463      64532.997      40.110734      40.110734      40.110734      0.76367007    -549.01363      427.47668     -142.68607    
    959000   959000         555.29325      678.35334      6344.0552      5722.3277      6652.3441     -930.0164       2675.7983      3930.1006     -6664.1441      6.4407295     -140.22826      548.0206      -1286.0042     -132.92224      62844.636      39.757836      39.757836      39.757836      0.78418655     1785.2827      492.467       -242.6897     
    960000   960000         560.25832     -311.73719      5315.2531      5599.29        6711.8249     -1112.5349      2541.3131      3840.4        -6668.383       2.3089509     -81.780921      540.87766     -1287.2706     -133.70744      62475.58       39.679857      39.679857      39.679857      0.7888189     -576.13897      470.45566     -829.52826    
    961000   961000         564.65902      203.24993      5985.823       5797.6024      6764.5448     -966.94245      2684.2713      3790.0507     -6667.2726      8.438066      -55.151414      555.08152     -1282.3601     -131.55429      63498.117      39.895166      39.895166      39.895166      0.77611622     1377.5648      241.48815     -1009.3031    
    962000   962000         547.30949      84.013587      5661.2554      5583.8755      6556.6996     -972.8241       2602.3266      3862.0882     -6633.4314      4.9334185     -75.687714      552.79372     -1285.8469     -132.27066      63154.215      39.823013      39.823013      39.823013      0.7803425      1001.9496      601.81292     -1351.7218    
    963000   963000         563.34073     -298.67765      5544.8908      5820.9184      6748.7519     -927.83345      2656.2134      3903.4669     -6629.0738      6.9591725     -132.06287      554.13768     -1287.4738     -131.82324      63368.568      39.868017      39.868017      39.868017      0.77770289     177.52205     -487.09807     -586.45693    
    964000   964000         564.56427      1085.9212      6600.9451      5577.1808      6763.4097     -1186.2289      2610.924       3682.8276     -6670.2331      3.3468276     -75.863025      549.21253     -1286.4438     -129.22308      64643.64       40.133645      40.133645      40.133645      0.76236299     1952.6335     -462.29839      1767.4284    
    965000   965000         557.18843     -665.81271      5052.0763      5661.4432      6675.0481     -1013.6049      2650.5098      3862.617      -6636.0713      9.523439      -168.3388       555.11893     -1286.964      -133.11133      62755.364      39.739002      39.739002      39.739002      0.78530209    -1613.1343     -299.75545     -84.548372    
    966000   966000         565.99606      844.14198      6520.7681      5752.9582      6780.5623     -1027.6041      2526.4783      3862.4713     -6595.417       1.832812      -88.420061      551.42156     -1285.9709     -133.93792      62368.074      39.657084      39.657084      39.657084      0.79017861     601.84441     -268.82458      2199.4061    
    967000   967000         557.1389      -1327.7604      4472.8049      5702.1636      6674.4547     -972.29115      2666.064       3790.8617     -6590.2214      1.404738      -97.076456      544.66906     -1287.9928     -131.57787      63486.738      39.892783      39.892783      39.892783      0.77625532    -591.55652     -1598.0024     -1793.7223    
    968000   968000         561.71434      67.887046      5663.6581      5602.0302      6729.2679     -1127.2377      2565.8159      3797.8256     -6615.7581      4.5077872     -152.11907      555.2818      -1282.7917     -134.19953      62246.492      39.631298      39.631298      39.631298      0.79172201    -616.07558     -1186.4965      2006.2332    
    969000   969000         563.48832     -201.2517       5610.8086      5793.6416      6750.5199     -956.87832      2588.6233      3836.1146     -6571.8124      8.8670623     -76.815431      545.98941     -1287.8449     -134.09938      62292.981      39.641162      39.641162      39.641162      0.79113116     259.45743     -203.47032     -659.74222    
    970000   970000         554.35776      276.58252      5738.6506      5486.1635      6641.137      -1154.9735      2549.6258      3833.7143     -6698.6657      8.090197      -109.83976      548.99919     -1286.8976     -133.45267      62594.851      39.705092      39.705092      39.705092      0.78731584     349.65959     -50.913204      531.00117    
    971000   971000         563.02704     -529.32185      5161.6459      5651.2056      6744.9939     -1093.7883      2538.1952      3826.0036     -6629.8147      3.427096      -98.147933      550.36295     -1283.8145     -131.72126      63417.629      39.878303      39.878303      39.878303      0.77710124     1894.6509     -3075.5989     -407.01751    
    972000   972000         571.3587       402.66785      6361.8118      5984.7319      6844.8062     -860.07426      2632.5772      3936.7117     -6617.7943      6.665478      -85.331777      552.32821     -1285.2307     -130.09343      64211.162      40.043944      40.043944      40.043944      0.76749769     1063.4286      219.59776     -75.022838    
    973000   973000         571.38658     -595.11272      5186.5162      5746.5696      6845.1401     -1098.5705      2628.6822      3805.7572     -6716.731       8.74227       -88.867001      549.95346     -1286.1076     -129.45282      64528.914      40.109888      40.109888      40.109888      0.76371839    -1556.1843      355.30549     -584.4594     
    974000   974000         568.24403      992.64964      6694.9344      5785.8718      6807.4927     -1021.6209      2580.5881      3915.078      -6650.3359      5.1781362     -139.58756      553.23255     -1285.7742     -133.02828      62794.544      39.74727       39.74727       39.74727       0.7848121      1204.8513      759.08113      1014.0165    
    975000   975000         565.06035     -22.970145      5842.7752      5863.3699      6769.3527     -905.98278      2635.7458      3939.7324     -6668.1931      5.9042276     -82.104359      546.56331     -1283.6311     -135.87782      61477.657      39.467453      39.467453      39.467453      0.80162323     803.32123     -99.439692     -772.79197    
    976000   976000         573.10744      688.80985      6245.8293      5634.3449      6865.7558     -1231.411       2588.4322      3731.1554     -6676.3255      1.6006297     -133.90936      546.31929     -1288.6837     -137.23211      60870.956      39.337194      39.337194      39.337194      0.80961301     1295.0663     -711.20746      1482.5707    
    977000   977000         562.50325     -144.64964      5523.803       5654.2236      6738.7189     -1084.4953      2569.4763      3920.248      -6688.8515      8.5406843     -152.3039       548.18615     -1289.791      -135.11797      61823.384      39.541298      39.541298      39.541298      0.79714042    -1114.5367      1006.9445     -326.35672    
    978000   978000         552.53201     -797.23435      4744.4352      5487.2868      6619.2648     -1131.9779      2493.5459      3817.6233     -6624.7806      2.0631606     -74.961824      542.12509     -1287.593      -130.74518      63891.073      39.977294      39.977294      39.977294      0.77134279    -864.91733     -2111.9201      585.13436    
    979000   979000         549.21674     -76.202158      5566.6337      5637.5818      6579.5482     -941.96638      2506.5797      3952.4424     -6589.24        7.9469288     -78.05903       546.19872     -1287.8351     -130.84834      63840.703      39.966786      39.966786      39.966786      0.77195136    -1229.9396      283.33537      717.99774    
    980000   980000         560.41741      214.44352      5913.1015      5719.2165      6713.7309     -994.51437      2592.3242      3830.6017     -6555.2986      8.5769603     -124.54763      544.32418     -1290.4952     -134.74433      61994.817      39.577813      39.577813      39.577813      0.79493611     226.1322       112.09402      305.10435    
    981000   981000         557.29578     -549.46224      5220.7193      5723.2985      6676.3341     -953.03565      2571.4085      3907.9291     -6546.2397      5.9274047     -161.79678      554.02185     -1284.2861     -133.19109      62717.784      39.731068      39.731068      39.731068      0.78577263     246.64379     -351.87274     -1543.1578    
    982000   982000         565.57506      576.28541      6368.8837      5850.9267      6775.5188     -924.59218      2663.0318      3814.1099     -6552.6522      8.4490488     -117.08669      547.64988     -1288.0939     -135.54567      61628.304      39.499664      39.499664      39.499664      0.79966371     997.36027      678.49368      53.002302    
    983000   983000         558.54285     -128.46475      5431.4712      5547.2687      6691.2739     -1144.0052      2541.1327      3860.2954     -6620.4726      8.5775559     -192.84573      549.73761     -1290.4302     -135.15329      61807.225      39.537853      39.537853      39.537853      0.79734883     1063.8154     -1306.854      -142.35571    
    984000   984000         570.59646      240.98743      6041.4978      5828.0492      6835.6746     -1007.6254      2586.7863      3829.657      -6573.0902      8.5328362     -118.31191      550.86452     -1292.0639     -137.54443      60732.74       39.307398      39.307398      39.307398      0.81145554     3064.3397     -1655.0542     -686.32321    
    985000   985000         553.98217     -110.54921      5540.8735      5638.5405      6636.6375     -998.09697      2556.7548      3995.045      -6647.3408      6.3460933     -161.86918      545.86756     -1292.9005     -137.89532      60578.196      39.274028      39.274028      39.274028      0.81352569    -898.48649     -496.11992      1062.9588    
    986000   986000         565.22772     -1811.0358      4222.2257      5887.565       6771.3577     -883.79279      2628.2039      3919.9418     -6607.4321      11.179689     -97.856826      550.10872     -1287.9379     -132.48481      63052.134      39.801545      39.801545      39.801545      0.78160587    -2980.7494     -1350.5242     -1101.8338    
    987000   987000         559.32631     -851.07018      5056.1581      5852.4651      6700.6596     -848.19457      2654.7281      3977.2828     -6633.9328      6.9818976     -105.9896       544.40783     -1291.6728     -130.20469      64156.291      40.032534      40.032534      40.032534      0.7681541     -1087.1963     -986.55416     -479.46011    
    988000   988000         550.21988      230.70812      5968.3992      5758.7208      6591.5657     -832.84492      2584.7209      3985.3063     -6572.8991      4.9843099     -82.87491       541.96719     -1294.0495     -134.04505      62318.228      39.646516      39.646516      39.646516      0.79081064    -847.1423      -715.61769      2254.8843    
    989000   989000         560.82195     -157.46525      5574.8251      5719.0011      6718.5772     -999.57618      2532.8909      3952.9679     -6613.356       4.9906542     -136.1548       545.97372     -1286.8886     -133.05579      62781.559      39.74453       39.74453       39.74453       0.78497442    -621.03703      148.34587      0.29539573   
    990000   990000         551.59279     -1097.3234      4609.572       5632.4468      6608.013      -975.56626      2581.6686      3969.5045     -6686.8292      3.6140054     -105.10664      547.43838     -1285.8559     -130.69348      63916.347      39.982565      39.982565      39.982565      0.77103778    -1095.578      -1713.1687     -483.22369    
    991000   991000         559.05573     -458.67299      5235.3532      5664.6569      6697.4181     -1032.7612      2583.1952      3901.754      -6667.8859      7.6183437     -113.26988      544.54843     -1288.7215     -130.16083      64177.91       40.03703       40.03703       40.03703       0.76789534    -282.71364     -973.92244     -119.38287    
    992000   992000         563.88397      446.06057      6364.1715      5961.8487      6755.2598     -793.41113      2699.8914      3961.4063     -6628.8346      9.1683148     -90.054425      542.63701     -1287.6251     -135.07065      61845.044      39.545915      39.545915      39.545915      0.79686124     640.14419     -40.954186      738.9917     
    993000   993000         561.12098     -1179.3089      4623.5226      5677.7774      6722.1596     -1044.3822      2640.2629      3893.7291     -6680.871       7.9335119     -161.09545      541.903       -1286.2443     -136.27738      61297.409      39.428843      39.428843      39.428843      0.80398045    -1402.6926     -839.89295     -1295.3412    
    994000   994000         545.22963     -1545.8309      4228.0243      5647.508       6531.7832     -884.27524      2672.2298      3915.1299     -6615.3195      4.4369772     -122.91497      549.1123      -1286.9498     -132.67019      62964.032      39.782998      39.782998      39.782998      0.78269953    -3646.2089      138.52169     -1129.8056    
    995000   995000         570.95378     -516.07934      5396.1351      5854.288       6839.9553     -985.66723      2658.7106      3930.948      -6683.5221      8.5393095     -156.67997      546.03378     -1289.6968     -137.2296       60872.072      39.337434      39.337434      39.337434      0.80959817    -1962.0882     -287.28003      701.13026    
    996000   996000         562.65909      1421.1652      6788.3423      5539.1451      6740.5859     -1201.4408      2502.1439      3782.959      -6599.5188      1.3062284     -154.70367      548.48589     -1282.1133     -138.59749      60271.295      39.207592      39.207592      39.207592      0.81766815     2582.4295      178.52714      1502.5391    
    997000   997000         563.46936     -1089.2188      4682.9511      5663.9188      6750.2929     -1086.3741      2569.5856      3815.8429     -6606.2166      4.382699      -141.20885      554.79424     -1283.554      -135.27022      61753.799      39.526457      39.526457      39.526457      0.79803865    -479.2094      -839.17038     -1949.2765    
    998000   998000         549.57678     -7.2983025      5583.6737      5590.4533      6583.8615     -993.40819      2612.2447      3788.0984     -6570.9061      5.9595248     -94.410783      550.09415     -1284.4881     -131.14792      63694.871      39.93633       39.93633       39.93633       0.77371879    -207.95435      1325.7128     -1139.6534    
    999000   999000         568.14185      931.34526      6544.4715      5688.5472      6806.2686     -1117.7214      2596.0557      3830.0065     -6667.619       5.727168      -144.66622      550.53412     -1287.7597     -132.56142      63015.696      39.793876      39.793876      39.793876      0.78205783     1546.205       1744.5693     -496.73855    
   1000000   1000000        558.70868      1205.8621      6681.2078      5579.3646      6693.2605     -1113.8959      2508.986       3830.1363     -6622.7738      6.4728641     -94.077061      544.15262     -1286.7929     -133.32746      62653.635      39.717517      39.717517      39.717517      0.78657716     748.18004      1869.0165      1000.3898    
Loop time of 5722.84 on 8 procs for 1000000 steps with 4020 atoms

Performance: 15.097 ns/day, 1.590 hours/ns, 174.739 timesteps/s, 702.449 katom-step/s
96.1% CPU use with 8 MPI tasks x 1 OpenMP threads

MPI task timing breakdown:
Section |  min time  |  avg time  |  max time  |%varavg| %total
---------------------------------------------------------------
Pair    | 1661.1     | 1771.8     | 1906.7     | 200.2 | 30.96
Bond    | 579.16     | 603.58     | 661.7      | 132.0 | 10.55
Kspace  | 1885.5     | 1945.3     | 1975.2     |  80.1 | 33.99
Neigh   | 306.34     | 320.09     | 345.75     |  76.2 |  5.59
Comm    | 156.9      | 163.67     | 169.03     |  32.1 |  2.86
Output  | 1.6494     | 1.7897     | 1.9218     |   6.8 |  0.03
Modify  | 727.55     | 860.83     | 969.6      | 290.3 | 15.04
Other   |            | 55.8       |            |       |  0.98

Nlocal:          502.5 ave         548 max         453 min
Histogram: 1 0 1 2 1 0 0 0 2 1
Nghost:        4536.88 ave        4643 max        4452 min
Histogram: 1 0 0 3 1 2 0 0 0 1
Neighs:              0 ave           0 max           0 min
Histogram: 8 0 0 0 0 0 0 0 0 0
FullNghs:       205544 ave      229144 max      175016 min
Histogram: 1 0 1 0 2 0 1 0 1 2

Total # of neighbors = 1644354
Ave neighs/atom = 409.04328
Ave special neighs/atom = 5.7761194
Neighbor list builds = 56560
Dangerous builds = 0
System init for write_data ...
PPPM initialization ...
  using 12-bit tables for long-range coulomb
  G vector (1/distance) = 0.28691209
  grid = 24 24 24
  stencil order = 5
  estimated absolute RMS force accuracy = 0.00028527361
  estimated relative force accuracy = 8.5909301e-07
  using double precision KISS FFT
  3d grid and FFT values/proc = 6859 1728


---------------------------------------------------------------------
    Device Time Info (average) for kspace: 
---------------------------------------------------------------------
CPU Poisson:     1434.0772 s.
CPU Data Cast:   2.0189 s.
CPU Idle Time:   472.8672 s.
Max Mem / Proc:  1.47 MB.
---------------------------------------------------------------------


--------------------------------------------------------------------------
- Using acceleration for pppm:
-  with 8 proc(s) per device.
-  with 1 thread(s) per proc.
-  Horizontal vector operations: ENABLED
-  Shared memory system: No
--------------------------------------------------------------------------
Device 0: NVIDIA A800 40GB Active, 108 CUs, 36/39 GB, 1.4 GHZ (Mixed Precision)
--------------------------------------------------------------------------

Initializing Device and compiling on process 0...Done.
Initializing Device 0 on core 0...Done.
Initializing Device 0 on core 1...Done.
Initializing Device 0 on core 2...Done.
Initializing Device 0 on core 3...Done.
Initializing Device 0 on core 4...Done.
Initializing Device 0 on core 5...Done.
Initializing Device 0 on core 6...Done.
Initializing Device 0 on core 7...Done.



---------------------------------------------------------------------
      Device Time Info (average): 
---------------------------------------------------------------------
CPU Cast/Pack:   2.8431 s.
CPU Driver_Time: 10.7030 s.
CPU Idle_Time:   234.3686 s.
Average split:   1.0000.
Max Mem / Proc:  2.45 MB.
Prefetch mode:   None.
Vector width:    32.
Lanes / atom:    8.
Pair block:      256.
Neigh block:     128.
Neigh mode:      Host.
---------------------------------------------------------------------


--------------------------------------------------------------------------
- Using acceleration for lj/class2/coul/long:
-  with 8 proc(s) per device.
-  with 1 thread(s) per proc.
-  Horizontal vector operations: ENABLED
-  Shared memory system: No
--------------------------------------------------------------------------
Device 0: NVIDIA A800 40GB Active, 108 CUs, 36/39 GB, 1.4 GHZ (Mixed Precision)
--------------------------------------------------------------------------

Initializing Device and compiling on process 0...Done.
Initializing Device 0 on core 0...Done.
Initializing Device 0 on core 1...Done.
Initializing Device 0 on core 2...Done.
Initializing Device 0 on core 3...Done.
Initializing Device 0 on core 4...Done.
Initializing Device 0 on core 5...Done.
Initializing Device 0 on core 6...Done.
Initializing Device 0 on core 7...Done.

Generated 15 of 15 mixed pair_coeff terms from sixthpower/sixthpower mixing rule
STAGE COMPLETE: NPT T=640.0->560.0K P=1.0->1.0atm steps=1000000
