LAMMPS data file via write_data, version 22 Jul 2025, timestep = 1000000, units = real

4020 atoms
6 atom types
4010 bonds
7 bond types
7600 angles
12 angle types
9570 dihedrals
14 dihedral types
4800 impropers
11 improper types

1.303471134671316 41.02098810533389 xlo xhi
1.303471134671316 41.02098810533389 ylo yhi
1.303471134671316 41.02098810533389 zlo zhi

Masses

1 12.01115
2 12.01115
3 1.00797
4 1.00797
5 32.064
6 32.064

Pair Coeffs # lj/class2/coul/long/gpu

1 0.054 4.01
2 0.054 4.01
3 0.02 2.995
4 0.02 2.995
5 0.071 4.027
6 0.071 4.027

Bond Coeffs # class2

1 1.53 299.67 -501.77 679.81
2 1.101 345 -691.89 844.6
3 1.823 225.277 -327.706 488.972
4 1.101 345 -691.89 844.6
5 1.823 225.277 -327.706 488.972
6 1.823 225.277 -327.706 488.972
7 1.3261 275.112 -531.318 562.963

Angle Coeffs # class2

1 112.67 39.516 -7.443 -9.5583
2 110.77 41.453 -10.604 5.129
3 112.564 47.0276 -10.679 -10.1687
4 112.564 47.0276 -10.679 -10.1687
5 97.5 57.6938 -5.0559 -11.8206
6 110.77 41.453 -10.604 5.129
7 112.564 47.0276 -10.679 -10.1687
8 96.8479 56.7336 14.2713 0
9 107.66 39.641 -12.921 -2.4318
10 107.852 51.4949 -13.527 7.026
11 107.852 51.4949 -13.527 7.026
12 107.852 51.4949 -13.527 7.026

BondBond Coeffs

1 0 1.53 1.53
2 3.3872 1.53 1.101
3 10.9186 1.53 1.823
4 10.9186 1.53 1.823
5 -22.3144 1.823 1.823
6 3.3872 1.53 1.101
7 10.9186 1.53 1.823
8 -0.57 1.823 1.3261
9 5.3316 1.101 1.101
10 7.0463 1.101 1.823
11 7.0463 1.101 1.823
12 7.0463 1.101 1.823

BondAngle Coeffs

1 8.016 8.016 1.53 1.53
2 20.754 11.421 1.53 1.101
3 -3.5621 22.3865 1.53 1.823
4 -3.5621 22.3865 1.53 1.823
5 -13.0015 -13.0015 1.823 1.823
6 20.754 11.421 1.53 1.101
7 -3.5621 22.3865 1.53 1.823
8 10.7325 5.1221 1.823 1.3261
9 18.103 18.103 1.101 1.101
10 9.3225 44.9874 1.101 1.823
11 9.3225 44.9874 1.101 1.823
12 9.3225 44.9874 1.101 1.823

Dihedral Coeffs # class2

1 0 0 0.0316 0 -0.1681 0
2 -0.7017 0 0.0201 0 0.104 0
3 -0.4871 0 -0.4514 0 -0.1428 0
4 -0.5073 0 0.0155 0 -0.0671 0
5 -0.3338 0 -0.0684 0 -0.1706 0
6 -0.5073 0 0.0155 0 -0.0671 0
7 -0.3338 0 -0.0684 0 -0.1706 0
8 -0.1432 0 0.0617 0 -0.1083 0
9 -0.2078 0 -0.106 0 -0.3595 0
10 -0.2078 0 -0.106 0 -0.3595 0
11 -0.2078 0 -0.106 0 -0.3595 0
12 -0.5374 0 -0.5091 0 -0.1361 0
13 -1.2002 0 -1.2999 0 -0.1626 0
14 -1.2002 0 -1.2999 0 -0.1626 0

AngleAngleTorsion Coeffs

1 -16.164 112.67 110.77
2 -26.71 112.67 112.564
3 -28.1728 112.564 96.8479
4 -32.8949 112.564 97.5
5 -26.49 97.5 107.852
6 -32.8949 112.564 97.5
7 -26.49 97.5 107.852
8 -12.564 110.77 110.77
9 -13.1026 110.77 112.564
10 -13.1026 110.77 112.564
11 -13.1026 110.77 112.564
12 -18.6334 107.852 96.8479
13 -13.9674 112.564 112.564
14 -13.9674 112.564 112.564

EndBondTorsion Coeffs

1 0.2486 0.2422 -0.0925 0.0814 0.0591 0.2219 1.53 1.101
2 -0.1586 -0.7244 -0.2608 -0.7991 -0.959 0.5855 1.53 1.823
3 0.1026 0.0936 -0.0404 -0.3008 0.0606 0.4501 1.53 1.3261
4 -0.2542 -0.7984 -0.6525 -0.3047 -0.0109 -0.3763 1.53 1.823
5 0.2592 -0.0166 0.1306 -0.41 0.0668 0.4187 1.823 1.101
6 -0.2542 -0.7984 -0.6525 -0.3047 -0.0109 -0.3763 1.53 1.823
7 0.2592 -0.0166 0.1306 -0.41 0.0668 0.4187 1.823 1.101
8 0.213 0.312 0.0777 0.213 0.312 0.0777 1.101 1.101
9 -0.1526 -0.371 0.1048 1.0661 0.3298 0.425 1.101 1.823
10 -0.1526 -0.371 0.1048 1.0661 0.3298 0.425 1.101 1.823
11 -0.1526 -0.371 0.1048 1.0661 0.3298 0.425 1.101 1.823
12 0.4376 0.2001 -1.0696 0.2902 0.0695 0.1726 1.101 1.3261
13 -0.3252 0.5008 0.5191 -0.3252 0.5008 0.5191 1.823 1.823
14 -0.3252 0.5008 0.5191 -0.3252 0.5008 0.5191 1.823 1.823

MiddleBondTorsion Coeffs

1 -14.879 -3.6581 -0.3138 1.53
2 -4.2593 -5.6468 -3.3835 1.53
3 0.502 -1.0204 -0.9177 1.823
4 -2.5172 -2.0107 -2.8547 1.823
5 -0.6955 -2.9427 -1.2372 1.823
6 -2.5172 -2.0107 -2.8547 1.823
7 -0.6955 -2.9427 -1.2372 1.823
8 -14.261 -0.5322 -0.4864 1.53
9 -5.7537 -2.0104 0.2813 1.53
10 -5.7537 -2.0104 0.2813 1.53
11 -5.7537 -2.0104 0.2813 1.53
12 -0.3729 0.5373 -0.7035 1.823
13 1.7001 -3.3479 -0.8067 1.53
14 1.7001 -3.3479 -0.8067 1.53

BondBond13 Coeffs

1 0 1.53 1.101
2 0 1.53 1.823
3 0 1.53 1.3261
4 0 1.53 1.823
5 0 1.823 1.101
6 0 1.53 1.823
7 0 1.823 1.101
8 0 1.101 1.101
9 0 1.101 1.823
10 0 1.101 1.823
11 0 1.101 1.823
12 0 1.101 1.3261
13 0 1.823 1.823
14 0 1.823 1.823

AngleTorsion Coeffs

1 -0.2454 0 -0.1136 0.3113 0.4516 -0.1988 112.67 110.77
2 -2.0927 -0.1498 -1.7848 1.1179 0.3638 0.9423 112.67 112.564
3 -0.6045 3.8941 0.8885 1.0193 -0.6016 0.2097 112.564 96.8479
4 5.1289 2.0927 -2.4004 -4.5489 0.0886 0.6237 112.564 97.5
5 -1.0888 -0.2 -0.0909 0.5962 3.3479 0.2265 97.5 107.852
6 5.1289 2.0927 -2.4004 -4.5489 0.0886 0.6237 112.564 97.5
7 -1.0888 -0.2 -0.0909 0.5962 3.3479 0.2265 97.5 107.852
8 -0.8085 0.5569 -0.2466 -0.8085 0.5569 -0.2466 110.77 110.77
9 -2.0382 0.2102 -0.9023 0.3322 -0.0519 -0.3553 110.77 112.564
10 -2.0382 0.2102 -0.9023 0.3322 -0.0519 -0.3553 110.77 112.564
11 -2.0382 0.2102 -0.9023 0.3322 -0.0519 -0.3553 110.77 112.564
12 -2.2533 2.6948 -0.1723 1.434 -0.1915 -0.2611 107.852 96.8479
13 -5.0565 -0.6355 0.6015 -5.0565 -0.6355 0.6015 112.564 112.564
14 -5.0565 -0.6355 0.6015 -5.0565 -0.6355 0.6015 112.564 112.564

Improper Coeffs # class2

1 0 0
2 0 0
3 0 0
4 0 0
5 0 0
6 0 0
7 0 0
8 0 0
9 0 0
10 0 0
11 0 0

AngleAngle Coeffs

1 0.2738 -0.4825 0.2738 110.77 110.77 107.66
2 2.7985 -3.0031 -0.0668 110.77 112.564 107.852
3 -0.3157 -0.3157 -0.3157 107.66 107.66 107.66
4 0.5086 0.5086 -0.064 107.66 107.852 107.852
5 -1.3199 -1.3199 0.1184 112.67 110.77 110.77
6 -0.2564 -0.2564 -0.8766 112.67 112.564 112.564
7 -0.2564 -0.2564 -0.8766 112.67 112.564 112.564
8 2.7985 -3.0031 -0.0668 110.77 112.564 107.852
9 2.7985 -3.0031 -0.0668 110.77 112.564 107.852
10 -0.0668 -3.0031 2.7985 112.564 110.77 107.852
11 -0.0668 -3.0031 2.7985 112.564 110.77 107.852

Atoms # full

800 2 3 0.053 5.111864757632707 5.882602729180314 5.377134228934868 -1 0 0
798 2 1 -0.159 4.586022834365503 4.936876419552741 5.016161464781744 -1 0 0
799 2 3 0.053 3.7469670477356627 4.849254863884499 5.700835991370852 -1 0 0
801 2 3 0.053 5.288710412602121 4.08602841254122 5.375225224833916 -1 0 0
802 2 5 -0.2042 3.6013192175450257 6.578962610910546 3.0086259481938677 -1 0 0
797 2 3 0.053 5.466294276732842 4.998910215189332 2.902608268318339 -1 0 0
796 2 2 0.012 4.413271775972744 4.990798468353772 3.410991938947279 -1 0 0
795 2 3 0.053 2.558145343891436 3.8596384159139996 3.085004956763931 -1 0 0
794 2 3 0.053 4.0867932202875625 2.9096273021727157 3.487954397663142 -1 0 0
804 2 4 0.1392 2.9023419448108467 6.6829910966076795 4.070097333316836 -1 0 0
793 2 1 -0.041 3.638504058276828 3.693882745618547 2.916429514402129 -1 0 0
791 2 3 0.053 6.81536152113877 3.761330629026889 2.128022079933916 -1 0 0
1380 4 2 0.012 11.2140428416636 5.8243386141772255 3.857064230263244 0 0 0
1381 4 3 0.053 12.033364978717096 5.612503726736079 3.0885000448498614 0 0 0
1377 4 1 -0.041 11.333437946233282 5.099156276838346 5.162897530379803 0 0 0
1378 4 3 0.053 12.043360632525763 5.5008662428542 5.846994907338031 0 0 0
1376 4 6 -0.13 9.959804187911999 4.969473001822967 6.40348259801614 0 0 0
1384 4 3 0.053 9.219291390302573 6.493500557892285 3.505250599894362 0 0 0
1382 4 1 -0.159 9.797295544672833 5.595962322077314 3.2389621057783335 0 0 0
1383 4 3 0.053 9.336687508785456 4.782422814278357 3.7868313720403144 0 0 0
1371 4 3 0.053 9.285726292835346 2.8705380576518604 5.511936392827668 0 0 0
1379 4 3 0.053 11.724738907895958 4.057164993584846 4.99314763973765 0 0 0
1385 4 3 0.053 9.640994765835787 5.598100937473902 2.1519933877247035 0 0 0
1374 4 3 0.053 7.313809116250708 3.5319091167112777 5.9844373823191 0 0 0
1370 4 2 0.012 9.330441458546801 3.273281558128754 6.452536564095029 0 0 0
1372 4 1 -0.159 7.875491804222428 3.3378980904825806 6.893007159874887 0 0 0
1366 4 6 -0.13 11.627165005247619 1.7266525424854 6.947667283355789 0 0 0
29 1 3 0.053 18.415848052455676 3.985176409407395 2.085458723703083 0 1 1
30 1 6 -0.13 19.07217977782124 5.1254409524165885 5.142369688874368 0 1 1
31 1 1 -0.041 19.852935527804735 3.8941766722328723 6.242449398518304 0 1 1
32 1 3 0.053 19.144401399568853 2.972119645775374 6.2043780873254635 0 1 1
33 1 3 0.053 20.798689000812807 3.4191042892731325 5.856924603597637 0 1 1
24 1 2 0.012 19.897079799634685 4.842043376712881 3.5602529058477677 0 1 1
21 1 1 -0.041 19.868697390011754 6.104616433868203 2.670823350678284 0 1 1
22 1 3 0.053 20.763098918375665 6.169194831048893 1.9813408599423763 0 1 1
26 1 1 -0.159 19.447964274478885 3.831954023462744 2.5733468683321084 0 1 1
25 1 3 0.053 20.973658249236593 4.6454555076447575 3.813935742526571 0 1 1
28 1 3 0.053 20.28642917552828 3.8098202728136483 1.7944397638428795 0 1 1
27 1 3 0.053 19.498234100439845 2.792643791785089 2.9252807731881796 0 1 1
23 1 3 0.053 18.819659945335808 6.096277074272701 2.182432748350435 0 1 1
3667 10 3 0.053 2.6502657284569393 11.226527614215094 6.516014335212012 1 1 1
3786 10 3 0.053 5.201407207607022 11.096901302972812 2.9165898232302014 1 1 1
3784 10 1 -0.159 5.037635602726042 12.163375106676444 2.9463718921007205 1 1 1
3787 10 3 0.053 5.553549380850512 12.702420324963015 3.8033578308150178 1 1 1
3785 10 3 0.053 3.9369840013142876 12.397986802247441 3.170657828986988 1 1 1
3765 10 3 0.053 2.0050009123500376 7.812881941975852 1.9711237962070212 1 1 1
3766 10 3 0.053 1.4404211206734914 8.92329401888292 3.3012847219433477 1 1 1
1386 4 6 -0.13 11.416191933364447 7.561413939235587 4.381561814105144 0 0 0
1387 4 1 -0.041 11.75166457756689 8.450794020021387 2.693719806297242 0 0 0
1389 4 3 0.053 11.22863514268198 7.774435891831492 1.9340349896670392 0 0 0
1392 4 1 -0.159 11.9969484118632 10.774408614138336 3.4571276197157728 0 0 0
1395 4 3 0.053 12.295586944558526 10.347905578914872 4.359452785683203 0 0 0
1390 4 2 0.012 11.143562978364736 9.831241793714158 2.59891525555115 0 0 0
1394 4 3 0.053 11.729935583530606 11.779216991534529 3.540206431749557 0 0 0
1391 4 3 0.053 10.168120811839 9.923806903863095 3.0392363717641 0 0 0
1388 4 3 0.053 12.84276376186205 8.305522504073556 2.3391569345880265 0 0 0
9 1 3 0.053 15.731559042390618 8.40238125484777 4.566997131450869 0 1 1
6 1 1 -0.159 15.754300652760351 9.4426324100486 4.712365508310857 0 1 1
7 1 3 0.053 15.329510761717415 9.545017521033515 5.742954667479007 0 1 1
1393 4 3 0.053 12.963493194742144 10.797958744508039 2.876785587095431 0 0 0
8 1 3 0.053 15.01733230652765 9.962201228894731 4.025384524388896 0 1 1
401 1 3 0.053 15.96856046414634 12.082054690309732 4.720952362935611 0 1 1
3 1 3 0.053 17.69543949451185 12.19482213793658 4.306126503496879 0 1 1
4 1 2 0.012 17.115840329351425 10.091363815308801 4.456751152637621 0 1 1
1 1 1 -0.159 16.95662697191642 11.611461336686618 4.812273057767671 0 1 1
5 1 3 0.053 17.948574152464086 9.700606546066439 5.042963270771656 0 1 1
10 1 6 -0.13 17.22859883609681 9.768780938388636 2.648886333868612 0 1 1
2 1 3 0.053 17.028143467862204 11.80717324111579 5.86891831904518 0 1 1
20 1 6 -0.13 20.079431660743975 7.683554849283819 3.453447833163768 0 1 1
11 1 1 -0.041 18.971778445493626 9.972206485524978 2.3249328898984207 0 1 1
13 1 3 0.053 19.494842734025543 10.789342774991747 2.8976891213274127 0 1 1
14 1 2 0.012 19.846643623529836 8.737132138504204 2.0275945627491807 0 1 1
3783 10 3 0.053 4.995146164711642 13.874253100110687 1.7015672996197246 1 1 1
1811 5 3 0.053 6.596824758898171 14.806864092895228 6.331891840195978 1 1 0
1817 5 3 0.053 4.704638740070421 16.360089304559345 5.533071676701421 1 1 0
1812 5 2 0.012 6.382405731010675 16.972248061768028 6.594609632290332 1 1 0
1815 5 3 0.053 5.898458481725287 16.806763090434302 4.487697777037878 1 1 0
1816 5 3 0.053 4.930106929574323 18.104772747972152 5.3446690745394845 1 1 0
1814 5 1 -0.159 5.404398426155889 17.1350044046064 5.484421325485053 1 1 0
3665 10 3 0.053 2.579331110385974 12.937721397896372 6.855182918821227 1 1 1
3782 10 2 0.012 5.416398778587459 12.905516817516066 1.5404404664423326 1 1 1
3353 9 3 0.053 1.9077720050995857 17.16423213581542 1.3522289576232964 1 1 0
3806 10 3 0.053 10.994877949992034 14.40054761273625 2.1196105111291663 1 1 1
3801 10 3 0.053 8.612784164615306 17.095745474434075 3.0375970972410444 1 1 1
3811 10 3 0.053 12.679039198999263 17.382645400414567 5.191308373979094 1 1 1
3808 10 6 -0.13 11.475644069737669 17.36655150577309 3.016840635133226 1 1 1
3803 10 3 0.053 10.044932296443143 16.03046576249023 4.564689920413555 1 1 1
3802 10 2 0.012 10.388140045113692 15.929108554115938 3.5392070093438104 1 1 1
3804 10 1 -0.159 11.185859982218084 14.689725145981681 3.248684394681871 1 1 1
3805 10 3 0.053 10.481490100537764 13.814613926096587 3.5927383123512535 1 1 1
3800 10 3 0.053 8.467800838100878 15.346072412681709 2.7608437691380043 1 1 1
3799 10 1 -0.041 9.176460163060199 16.163210965472956 2.7180506660596215 1 1 1
3788 10 6 -0.13 7.204606005203575 13.190601869114898 1.7119421291264263 1 1 1
1305 4 3 0.053 12.234328910838327 15.667775021889172 7.034033919793198 0 0 0
1818 5 6 -0.13 8.101604872790187 17.32615442011674 6.185793404000782 1 1 0
3807 10 3 0.053 12.273236441988432 14.582653426193657 3.407184653328165 1 1 1
3827 10 3 0.053 16.3922967762608 14.376610071775236 3.00103442333871 1 1 1
3824 10 1 -0.159 17.21622121906499 15.098849657515467 3.3554994899848047 1 1 1
3825 10 3 0.053 18.17174875153146 14.55465704934264 3.5469697720580764 1 1 1
3810 10 3 0.053 13.589992053615262 16.321505654269174 4.0927228387823575 1 1 1
3826 10 3 0.053 16.82629550582161 15.389247515254263 4.461566273262541 1 1 1
3822 10 2 0.012 17.349941226714538 16.282789295581992 2.3784171935417113 1 1 1
3823 10 3 0.053 17.158358900409816 15.855507589106955 1.341490672636958 1 1 1
3821 10 3 0.053 15.237830620275322 16.545345995152683 2.4819539985796943 1 1 1
3809 10 1 -0.041 12.933810713535486 17.32212522678463 4.128914635900649 1 1 1
3819 10 1 -0.041 16.062478178430705 17.275096993482066 2.517547528284494 1 1 1
3818 10 6 -0.13 15.576620000133898 18.23292798883201 4.073111026104893 1 1 1
3820 10 3 0.053 15.828395010088386 17.834803042908064 1.641176975414075 1 1 1
3831 10 3 0.053 18.530493421799477 17.41702637760378 4.584085423869546 1 1 1
3832 10 2 0.012 20.74298137012556 17.38294877236517 4.281431554614794 1 1 1
87 1 3 0.053 20.661956446803956 13.994750434577613 2.2444285408145035 0 1 1
3828 10 6 -0.13 18.963511670517608 16.962545443793307 2.1894109688528216 1 1 1
3834 10 1 -0.159 21.018339831923203 18.157549149880754 5.56899661079057 1 1 1
3829 10 1 -0.041 19.299982462950865 17.643565271429658 3.849084602521608 1 1 1
3833 10 3 0.053 20.95434109253683 16.323364365227622 4.533607575186847 1 1 1
3837 10 3 0.053 20.087845036942145 18.246731601908763 6.198368846129585 1 1 1
1830 5 3 0.053 6.786202591720959 20.372178902537012 3.267097320558837 1 1 0
3816 10 3 0.053 12.244008380533856 20.00623596666281 4.233801081317601 1 1 1
1831 5 3 0.053 7.94619056954969 19.49747635532908 4.0426375658486515 1 1 0
1823 5 3 0.053 9.414332298844874 20.10180309931279 5.531584211219964 1 1 0
1828 5 6 -0.13 7.20403182345681 21.043425910092722 5.609107090041199 1 1 0
1834 5 1 -0.159 9.262383817918055 20.36772449196729 1.9969501125862346 1 1 0
1837 5 3 0.053 9.165557704913722 19.23743093960594 2.137430794801503 1 1 0
1822 5 2 0.012 8.678494917651427 20.184149430727178 6.391689144390916 1 1 0
1835 5 3 0.053 10.324645132238851 20.633651209923702 1.8379702203186374 1 1 0
1829 5 1 -0.041 7.571825574071162 20.53167628601995 4.020329942699945 1 1 0
3814 10 1 -0.159 13.397492569709096 19.82838540971177 4.386353535901579 1 1 1
3815 10 3 0.053 13.48399560290489 19.859557315086334 5.512058995689042 1 1 1
3812 10 2 0.012 13.799951624898139 18.57050999396338 3.73047871454202 1 1 1
3813 10 3 0.053 13.795735094738054 18.618372639911648 2.5699734066098583 1 1 1
3817 10 3 0.053 13.921963618728299 20.627792710652766 3.9019688499428753 1 1 1
3830 10 3 0.053 19.23228986737654 18.72530986131558 3.754101875685799 1 1 1
3841 10 3 0.053 20.688666464669314 18.78227223698914 1.406885179399954 1 1 1
1774 5 1 -0.159 5.898344645525568 3.65285508041047 12.428309358460943 1 1 0
1773 5 3 0.053 5.562213311498269 4.161790296054648 10.55037804009157 1 1 0
1771 5 3 0.053 4.53982740387167 6.536189136926477 12.059151711618831 1 1 0
1769 5 1 -0.041 4.321540525603265 5.541744811166089 11.603103693108698 1 1 0
1772 5 2 0.012 5.664880264038779 4.743341313423007 11.459479227071103 1 1 0
1770 5 3 0.053 3.8326309118922914 4.958410069023131 12.417335191524193 1 1 0
1768 5 6 -0.13 3.3890539982720504 5.573031086412294 10.146896443386385 1 1 0
1775 5 3 0.053 6.310672553695183 2.705975814440246 11.92404347373854 1 1 0
1780 5 3 0.053 6.280338701031655 6.203198104760146 9.05565109086513 1 1 0
1779 5 1 -0.041 6.5951605888232985 6.846320340128557 9.832038562801648 1 1 0
1721 5 3 0.053 1.7207308697772317 2.5090065831000508 12.749892496126487 1 1 0
1719 5 1 -0.041 1.6371448744252888 1.5721541401627241 12.111510326330572 1 1 0
1762 5 2 0.012 2.2329883020304 6.877364239697841 10.35727947086795 1 1 0
1764 5 1 -0.159 1.6041431011649332 7.045344527344062 8.993466639246567 1 1 0
1760 5 3 0.053 1.4888956606451837 5.567574322653242 12.106688742401637 1 1 0
1720 5 3 0.053 2.424213693721117 1.6887010707412133 11.316325617209982 1 1 0
1766 5 3 0.053 1.3546185253239424 6.159942453425089 8.388859659855227 1 1 0
1778 5 6 -0.13 7.194818437996485 5.822623296345014 11.157709465883858 1 1 0
1367 4 1 -0.041 10.001616117369267 2.1901695650654096 7.307940550550963 0 0 0
1357 4 1 -0.041 12.679362324291386 1.6123617407988844 9.431723921838639 0 0 0
1368 4 3 0.053 10.074150940006726 2.536379579572131 8.416365663682964 0 0 0
1373 4 3 0.053 7.486208649962172 4.067436047663261 7.724569751933381 0 0 0
1375 4 3 0.053 7.558029398756262 2.313161262643665 7.1483016566684725 0 0 0
1359 4 3 0.053 12.013913292128498 2.468952450701244 9.692243488120537 0 0 0
1356 4 6 -0.13 14.33460119946796 2.2251183581341554 8.911946602425022 0 0 0
1346 4 6 -0.13 14.337764962736296 5.0927285052055336 11.072625495959512 0 0 0
1350 4 2 0.012 14.920776317009556 2.562931978233907 10.548994893374125 0 0 0
1348 4 3 0.053 16.20093167485772 4.125479368825671 9.935768718028346 0 0 0
1351 4 3 0.053 14.05247983769765 2.6154402523400817 11.287162161535218 0 0 0
1349 4 3 0.053 16.2346046807563 3.7300228063868692 11.772487045209942 0 0 0
1347 4 1 -0.041 15.59754327257222 3.846099640536585 10.824752061542691 0 0 0
1342 4 1 -0.159 16.921983594112028 6.418512356152209 11.754714691426905 0 0 0
1344 4 3 0.053 17.601687759344404 5.7225252601950904 11.247192836128738 0 0 0
1340 4 2 0.012 15.51616423286971 6.6187718272059115 11.137323948066888 0 0 0
1339 4 3 0.053 15.563988421554372 6.71375193961609 8.860291805197928 0 0 0
1353 4 3 0.053 16.419542024384 1.308612618811795 11.683125769935064 0 0 0
35 1 3 0.053 18.795221618657862 4.404716199431531 8.115267248225841 0 1 1
34 1 2 0.012 19.83981447936338 4.081185949825789 7.82323499618637 0 1 1
40 1 6 -0.13 20.9814906644194 5.254649453610201 8.624407007527955 0 1 1
37 1 3 0.053 21.08554222784922 2.292160102417201 8.287795123895844 0 1 1
36 1 1 -0.159 19.99685414555861 2.6035924107392434 8.376045326178279 0 1 1
38 1 3 0.053 19.676968129092376 2.590693423072457 9.421931341204274 0 1 1
39 1 3 0.053 19.334659235278483 1.8871743181906777 7.6809815906762 0 1 1
1785 5 3 0.053 6.545952102926641 8.325724062656064 7.3025387575299145 1 1 0
3664 10 1 -0.159 2.7424867149006644 12.029556252683278 7.362216913912992 1 1 1
3666 10 3 0.053 3.8460394979995765 12.115537795032488 7.580656811434875 1 1 1
1781 5 3 0.053 5.815940199659531 7.294442574774717 10.207149864738394 1 1 0
1798 5 6 -0.13 5.7362485009344475 12.095856134242915 11.391084201710187 1 1 0
1763 5 3 0.053 2.713942288743726 7.8304599888040265 10.685319538180762 1 1 0
1765 5 3 0.053 2.3518016938136657 7.578530407525243 8.383787280576819 1 1 0
3663 10 3 0.053 2.2562274706775076 10.887944927136372 9.313159646235786 1 1 1
1790 5 3 0.053 6.109338221553927 9.180619640534212 11.803164577196187 1 1 0
3671 10 3 0.053 1.7899706524733736 12.266883310238764 11.428121992125392 1 1 1
1789 5 1 -0.041 7.047383152899542 9.622528039635744 11.486858668080313 1 1 0
1792 5 2 0.012 7.05097503922984 11.0207470880471 11.993132074291353 1 1 0
3662 10 2 0.012 1.9724041394487926 11.770854047225193 8.69284251862771 1 1 1
1806 5 3 0.053 7.552529541135387 11.70444798372407 8.475865430350797 1 1 0
1804 5 1 -0.159 7.454460254784066 12.741642971945053 8.170669555738222 1 1 0
1787 5 3 0.053 7.723935775397927 7.060481475136635 7.091490346720296 1 1 0
1784 5 1 -0.159 7.6347999833238225 8.009587279941897 7.547891656982493 1 1 0
1786 5 3 0.053 8.450999960697834 8.731272994548931 7.17240731340173 1 1 0
1793 5 3 0.053 7.989221168603931 11.543500539100208 11.764630284887696 1 1 0
1782 5 2 0.012 7.639235860539482 7.841080860957715 9.168496019754917 1 1 0
1783 5 3 0.053 8.619267335422592 7.545806102143033 9.390694008710136 1 1 0
1788 5 6 -0.13 7.530319396818639 9.53268581101137 9.7306360332832 1 1 0
1321 4 3 0.053 11.763349567644278 10.242615558489145 11.330337221260692 0 0 0
1791 5 3 0.053 7.861722679493544 9.206208106269838 12.124673510397988 1 1 0
1324 4 3 0.053 10.117298765323271 9.81231962860473 12.738277340685732 0 0 0
1320 4 2 0.012 12.099535690924352 10.511879708312827 12.352218527738149 0 0 0
1319 4 3 0.053 10.712277428475446 12.2872698838106 12.730118366532999 0 0 0
1317 4 1 -0.041 11.793703778703463 12.01923169524107 12.67037293207727 0 0 0
1331 4 3 0.053 13.113594530330507 10.411298360413628 9.576127373663338 0 0 0
1333 4 3 0.053 14.048266779265294 10.298112954972991 7.753240941794393 0 0 0
1328 4 3 0.053 15.136481304172976 11.525535146773588 11.068699941670646 0 0 0
1335 4 3 0.053 15.276250297882774 11.419651217141412 8.680866458997617 0 0 0
1336 4 6 -0.13 13.739543390103945 8.170734147122435 9.532306484291684 0 0 0
1330 4 2 0.012 14.08590375139425 9.976932569811384 9.76693115470712 0 0 0
1332 4 1 -0.159 14.909361737622605 10.385238675027296 8.471406567611782 0 0 0
1327 4 1 -0.041 14.739837349598012 10.418463897469245 11.054020282617195 0 0 0
1343 4 3 0.053 17.424415131206143 7.345993310247947 11.600762781894835 0 0 0
1334 4 3 0.053 15.783281363044042 9.714586975380154 8.276490799350217 0 0 0
1337 4 1 -0.041 15.433017809248573 7.442262210019441 9.742393337234889 0 0 0
1338 4 3 0.053 16.202687047338983 8.238495428826592 9.686697703467907 0 0 0
1329 4 3 0.053 15.658783720078592 9.791893203730968 11.255872960724325 0 0 0
1284 4 3 0.053 17.7246063845515 10.974945793583755 10.769665930073304 0 0 0
1341 4 3 0.053 15.111089214387437 7.248861747502701 11.89855550094 0 0 0
1282 4 1 -0.159 18.459295721465317 11.828164282465078 10.555641250442584 0 0 0
1326 4 6 -0.13 13.851569027666395 10.075750802669042 12.654285976333135 0 0 0
58 1 3 0.053 20.506986076370474 9.78689478681426 8.510903899909875 0 1 1
57 1 3 0.053 20.67018589723263 11.557851551451908 8.422170970469175 0 1 1
59 1 3 0.053 19.656382358915643 10.834485798851148 7.21521541520331 0 1 1
1285 4 3 0.053 19.171329280797792 11.433949133496984 9.870340016791765 0 0 0
1283 4 3 0.053 19.086666751782214 11.969007343059669 11.506955314359926 0 0 0
3192 8 3 0.053 20.363773356606995 7.281143969110032 12.029483266715419 -1 -1 0
56 1 1 -0.159 20.559399470012085 10.656820613654293 7.805267992826529 0 1 1
1802 5 2 0.012 6.653927076426348 13.562626439730277 9.151928185826659 1 1 0
1803 5 3 0.053 5.6000301908208465 13.547269970453028 9.063108357921493 1 1 0
1800 5 3 0.053 6.367590684372953 14.420673627331475 11.101856986230853 1 1 0
1799 5 1 -0.041 6.789482417378288 13.441714321665987 10.624548089721204 1 1 0
3668 10 6 -0.13 2.635042147894149 13.382920414375079 9.434400114255098 1 1 1
3681 10 3 0.053 3.1682467866984934 15.928605200428754 10.262351789817677 1 1 1
3673 10 3 0.053 3.930632025968383 13.771829503238127 11.970999751482335 1 1 1
3679 10 1 -0.041 3.598586578429002 16.266690937942823 11.272534903692792 1 1 1
3672 10 2 0.012 2.890344293694853 13.926233071977002 12.355027374463617 1 1 1
3682 10 2 0.012 3.709713044078283 17.833518612402 11.36702341585595 1 1 1
3678 10 6 -0.13 2.8472829610843293 15.676172458447633 12.784602710888633 1 1 1
3669 10 1 -0.041 2.0966937964047876 13.394178699192665 11.251010823054925 1 1 1
3680 10 3 0.053 4.561887739300741 15.732599923597435 11.228919794626897 1 1 1
3691 10 3 0.053 1.3194204376365481 17.095277128684437 9.586068235599637 1 1 1
1809 5 1 -0.041 6.261204816522022 15.520509550609585 7.126883306731101 1 1 0
1810 5 3 0.053 5.188036161978778 15.337365308721402 7.2282788891918 1 1 0
1813 5 3 0.053 6.204671280761412 17.712119804128243 7.461169842843064 1 1 0
3684 10 1 -0.159 4.722624778298819 18.414139277180478 10.269362571376831 1 1 1
3685 10 3 0.053 4.248604122076662 18.13988849432999 9.323952767509553 1 1 1
3686 10 3 0.053 5.693694448007573 17.794431708221484 10.353177845635798 1 1 1
3683 10 3 0.053 3.9840172905344615 18.16879648586779 12.439752543269671 1 1 1
1805 5 3 0.053 7.141830008347217 12.844716154899704 7.1715142911327385 1 1 0
1807 5 3 0.053 8.449416460279178 13.206606955267029 8.28891339166902 1 1 0
1304 4 3 0.053 10.968290373921516 16.80401883423442 7.3678626817262 0 0 0
1801 5 3 0.053 7.861630062489725 13.367692437815553 11.025416439265323 1 1 0
1808 5 6 -0.13 7.0577237525516585 15.280381393242584 8.766106369039388 1 1 0
1303 4 3 0.053 10.656496689743669 15.118153133374191 7.701899124161914 0 0 0
1307 4 1 -0.041 11.961559456269041 16.049115659033227 11.869648307235886 0 0 0
1306 4 6 -0.13 10.862109997206327 16.220061088671358 10.279843178849973 0 0 0
1308 4 3 0.053 11.34742929411542 16.679683946427616 12.497848720729786 0 0 0
1316 4 6 -0.13 12.721250898085723 13.251347034034453 11.760544344035942 0 0 0
1310 4 2 0.012 11.909843641913263 14.672764861363117 12.59604001680711 0 0 0
1311 4 3 0.053 10.776175445756564 14.419570296120947 12.616934931166707 0 0 0
1300 4 2 0.012 12.164392596850295 15.948987301827485 9.057167249092068 0 0 0
1302 4 1 -0.159 11.436641527296505 15.876913481772752 7.734314076769846 0 0 0
1301 4 3 0.053 12.677599215430039 14.921863766837044 9.279105752164357 0 0 0
1279 4 3 0.053 16.426111465616522 14.519188232227316 11.624404801974393 0 0 0
1278 4 3 0.053 16.518680604426955 13.023484940388583 11.943967740621316 0 0 0
1277 4 1 -0.041 17.20121769655085 13.773652227724455 11.587114500893055 0 0 0
1286 4 6 -0.13 16.841553643585165 13.463432215452361 8.796203913033303 0 0 0
1280 4 2 0.012 18.001755279873176 13.266645870577179 10.300111312593904 0 0 0
1292 4 1 -0.159 16.50037166711644 17.500070666996653 8.126888849450697 0 0 0
1309 4 3 0.053 13.049535812108468 16.47027556217131 11.816864227489 0 0 0
1296 4 6 -0.13 14.70322887471689 16.30862953039918 9.99944062008125 0 0 0
1290 4 2 0.012 15.880870369812737 16.13040849946226 8.501923293383076 0 0 0
1291 4 3 0.053 15.160071367270245 15.871791574446767 7.839467123766455 0 0 0
1287 4 1 -0.041 17.155796889118832 15.238172878735583 8.599480369511644 0 0 0
1289 4 3 0.053 17.6485053892857 15.73625471907621 9.559127618014342 0 0 0
1297 4 1 -0.041 13.249508238488065 17.0154507453681 9.06729668880331 0 0 0
1299 4 3 0.053 13.68813617639349 17.208119832667208 7.976229533480036 0 0 0
1294 4 3 0.053 16.992053534953016 17.77235904649157 9.039822761341135 0 0 0
1298 4 3 0.053 12.848025795721384 17.94888025598891 9.518319557875783 0 0 0
1295 4 3 0.053 17.182527696144618 17.584173070956304 7.233960464099826 0 0 0
1293 4 3 0.053 15.676736368078652 18.276772161236657 7.986231170864306 0 0 0
1288 4 3 0.053 17.803204286833655 15.396646321883015 7.746735823204998 0 0 0
3157 8 3 0.053 19.630511729347834 18.22138534827089 9.332562248489076 -1 -1 0
3161 8 3 0.053 20.29628593787669 16.240684270712467 8.490844851543335 -1 -1 0
1281 4 3 0.053 18.784873430788583 13.973834088391875 10.131681575856895 0 0 0
3155 8 1 -0.041 20.125148245829642 18.05458677757043 10.266271685950414 -1 -1 0
3156 8 3 0.053 19.411526818346438 17.578889082276586 11.011215179050454 -1 -1 0
3160 8 1 -0.159 21.050662305415447 15.961137721252586 9.267125780715446 -1 -1 0
3163 8 3 0.053 20.492573646264173 15.405817002931297 10.055172762724496 -1 -1 0
3687 10 3 0.053 5.058441520429774 19.518221840416693 10.33366187708811 1 1 1
3072 8 3 0.053 6.834533051582689 20.698099280267932 10.588113977832487 0 -1 0
3688 10 6 -0.13 1.9500464388500025 18.607269159417065 11.329823687988876 1 1 1
1819 5 1 -0.041 8.508654498193938 18.827581544205167 7.180527618608807 1 1 0
3066 8 3 0.053 8.976781572456357 20.624438435757202 12.482722729179786 0 -1 0
1820 5 3 0.053 9.514805579513034 18.66387634513001 7.598597922883869 1 1 0
1821 5 3 0.053 7.823218312368215 18.98500585193062 8.008616943068281 1 1 0
1827 5 3 0.053 9.974811035460121 21.029420577319826 7.870478873626449 1 1 0
3990 10 3 0.053 14.195265272409001 20.60875063071187 10.781552101782449 1 1 1
3997 10 3 0.053 14.53020737061854 18.976142533512125 12.582540952920795 1 1 1
3992 10 2 0.012 15.089800798313641 20.97518346872203 12.79290112617292 1 1 1
3993 10 3 0.053 16.02597516339073 20.629335720732733 12.420583539792178 1 1 1
3985 10 3 0.053 13.554270333213921 20.877301256919655 8.939262512895837 1 1 1
3991 10 3 0.053 13.122820527378503 21.036835616865375 11.932205507108806 1 1 1
3154 8 6 -0.13 20.455965947456644 19.77181667216 10.925679630855294 -1 -1 0
3150 8 1 -0.159 20.41278666351774 21.061911525953093 8.58939846954182 -1 -1 0
3151 8 3 0.053 20.32999492089988 20.164105109943865 7.9162150549654875 -1 -1 0
1225 4 3 0.053 2.992380179644181 6.274712752444951 17.130994127122648 0 0 0
1777 5 3 0.053 4.887837857136621 3.3906657286098705 12.85320305563 1 1 0
1776 5 3 0.053 6.5928527263104275 4.024771654848561 13.22537104233923 1 1 0
1756 5 3 0.053 1.4331982980268236 6.3416971124179256 15.50869994306505 1 1 0
1223 4 3 0.053 1.8069444476045322 5.1225740996494515 17.618567062582773 0 0 0
1227 4 1 -0.041 5.617422525443795 6.5496696823694815 18.041308119775664 0 0 0
1230 4 2 0.012 6.826658782809553 7.045867957746874 17.312068478415267 0 0 0
1222 4 1 -0.159 2.8175544966869706 5.173365636895052 17.18169789159891 0 0 0
1226 4 6 -0.13 5.496823435249921 4.825554973750675 17.70378416994047 0 0 0
1233 4 3 0.053 6.155066776286008 6.231195874709995 15.616733832050157 0 0 0