units real
atom_style full
boundary p p p

# --- Force Field Styles ---
pair_style lj/class2/coul/long 9.5 9.5
kspace_style pppm 1e-6
dielectric 1.000000
bond_style class2
angle_style class2
dihedral_style class2
improper_style class2
special_bonds lj/coul 0 0 1
pair_modify mix sixthpower tail yes
neighbor 2.0 bin
neigh_modify delay 0 every 1 check yes
neigh_modify one 4000
# KOKKOS: package loaded via -pk kokkos on the command line

read_data /home/arz2/PolyJarvis/data/PMMA2/lammps/equil/minimize/minimize_out.data
Reading data file ...
  orthogonal box = (0 0 0) to (51.750998 51.750998 51.750998)
  1 by 1 by 1 MPI processor grid
  reading atoms ...
  7520 atoms
  reading velocities ...
  7520 velocities
  scanning bonds ...
  4 = max bonds/atom
  scanning angles ...
  17 = max angles/atom
  scanning dihedrals ...
  40 = max dihedrals/atom
  scanning impropers ...
  14 = max impropers/atom
  orthogonal box = (0 0 0) to (51.750998 51.750998 51.750998)
  1 by 1 by 1 MPI processor grid
  reading bonds ...
  7510 bonds
  reading angles ...
  14000 angles
  reading dihedrals ...
  18910 dihedrals
  reading impropers ...
  8500 impropers
Finding 1-2 1-3 1-4 neighbors ...
  special bond factors lj:    0        0        1       
  special bond factors coul:  0        0        1       
     4 = max # of 1-2 neighbors
    11 = max # of 1-3 neighbors
    15 = max # of special neighbors
  special bonds CPU = 0.044 seconds
  read_data CPU = 0.430 seconds
include /home/arz2/PolyJarvis/data/PMMA2/lammps/equil/emc_build.params
# LAMMPS parameters created by EMC v9.4.4, build Jul 31 2025 20:33:44

# Variables

variable	seed		index	734812
variable	ntotal		index	7520
variable	fshape		index	1
variable	output		index	emc_build
variable	field		index	pcff/pcff
variable	location1	index	/home/arz2/emc/field/
variable	nav		index	0.6022141179
variable	temperature	index	300
variable	radius		index	5
variable	nrelax		index	100
variable	weight_nonbond	index	0.0001
variable	weight_bond	index	0.0001
variable	weight_focus	index	1
variable	cutoff		index	9.5
variable	charge_cutoff	index	9.5
variable	kappa		index	4
variable	density1	index	0.6
variable	lprevious	index	0
variable	lphase		index	51.7509981335
variable	f_poly		index	10
variable	chem_repeat	index	*CC(C)(C(=O)OC)*
variable	chem_cap	index	*[H]
variable	lg_repeat	index	15
variable	lg_cap		index	1
variable	norm_poly	index	100
variable	l_poly		index	752
variable	mg_repeat	index	88.10716
variable	mg_cap		index	1.00797
variable	m_poly		index	4407.37394
variable	n_poly		index	10
variable	mtotal		index	50079.3144
variable	nphase1		index	7520
variable	mphase1		index	50079.3144
variable	vphase1		index	138597.753721
variable	lbox		index	51.7509981335
variable	lphase1		index	51.7509981335
variable	lxx		index	51.7509981335
variable	lyy		index	51.7509981335
variable	lzz		index	51.7509981335
variable	lzy		index	0
variable	lzx		index	0
variable	lyx		index	0
variable	vtotal		index	138597.753721
variable	nl_poly		index	10

# Types

variable	type_c		index	1
variable	type_c1		index	2
variable	type_c_1	index	3
variable	type_hc		index	4
variable	type_o_1	index	5
variable	type_o_2	index	6

variable	type_bond_c_c	index	1
variable	type_bond_c_c1	index	2
variable	type_bond_c_c_1	index	3
variable	type_bond_c_hc	index	4
variable	type_bond_c_o_2	index	5
variable	type_bond_c1_c_1 index	6
variable	type_bond_c1_hc	index	7
variable	type_bond_c_1_o_1 index	8
variable	type_bond_c_1_o_2 index	9

variable	type_angle_c_c_c index	1
variable	type_angle_c_c_c1 index	2
variable	type_angle_c_c_c_1 index	3
variable	type_angle_c_c_hc index	4
variable	type_angle_c_c1_c index	5
variable	type_angle_c_c1_c_1 index	6
variable	type_angle_c_c1_hc index	7
variable	type_angle_c_c_1_o_1 index	8
variable	type_angle_c_c_1_o_2 index	9
variable	type_angle_c_o_2_c_1 index	10
variable	type_angle_c1_c_hc index	11
variable	type_angle_c1_c_1_o_1 index	12
variable	type_angle_c1_c_1_o_2 index	13
variable	type_angle_c_1_c1_hc index	14
variable	type_angle_hc_c_hc index	15
variable	type_angle_hc_c_o_2 index	16
variable	type_angle_o_1_c_1_o_2 index	17

# Clusters

variable	n0_poly		index	1
variable	n1_poly		index	10
variable	nl_poly		index	10

# Flags

variable	flag_charged	index	1

# Masses

mass		1    12.01115  # c
mass		2    12.01115  # c1
mass		3    12.01115  # c_1
mass		4     1.00797  # hc
mass		5    15.99940  # o_1
mass		6    15.99940  # o_2

# Potentials

pair_modify	mix sixthpower tail yes
special_bonds	lj/coul 0 0 1

# Pair Coeffs

pair_coeff	 1  1    0.05400    4.01000  # c,c
pair_coeff	 2  2    0.05400    4.01000  # c1,c1
pair_coeff	 3  3    0.12000    3.81000  # c_1,c_1
pair_coeff	 4  4    0.02000    2.99500  # hc,hc
pair_coeff	 5  5    0.26700    3.30000  # o_1,o_1
pair_coeff	 6  6    0.24000    3.42000  # o_2,o_2

# Bond Coeffs

bond_coeff	1    1.53000  299.67000 -501.77000  679.81000  # c,c
bond_coeff	2    1.53000  299.67000 -501.77000  679.81000  # c,c1
bond_coeff	3    1.52020  253.70670 -423.03700  396.90000  # c,c_1
bond_coeff	4    1.10100  345.00000 -691.89000  844.60000  # c,hc
bond_coeff	5    1.43000  326.72730 -608.53060  689.03330  # c,o_2
bond_coeff	6    1.52020  253.70670 -423.03700  396.90000  # c1,c_1
bond_coeff	7    1.10100  345.00000 -691.89000  844.60000  # c1,hc
bond_coeff	8    1.20200  851.14030 -1918.48820 2160.76590  # c_1,o_1
bond_coeff	9    1.36830  367.14810 -794.79080 1055.23190  # c_1,o_2

# Angle Coeffs

angle_coeff	 1  112.67000   39.51600   -7.44300   -9.55830  # c,c,c
angle_coeff	 2  112.67000   39.51600   -7.44300   -9.55830  # c,c,c1
angle_coeff	 3  108.52950   51.97470   -9.48510  -10.99850  # c,c,c_1
angle_coeff	 4  110.77000   41.45300  -10.60400    5.12900  # c,c,hc
angle_coeff	 5  112.67000   39.51600   -7.44300   -9.55830  # c,c1,c
angle_coeff	 6  108.52950   51.97470   -9.48510  -10.99850  # c,c1,c_1
angle_coeff	 7  110.77000   41.45300  -10.60400    5.12900  # c,c1,hc
angle_coeff	 8  123.14510   55.54310  -17.21230    0.13480  # c,c_1,o_1
angle_coeff	 9  100.31820   38.86310   -3.83230   -7.98020  # c,c_1,o_2
angle_coeff	10  113.28800   61.28680  -28.97860    7.99290  # c,o_2,c_1
angle_coeff	11  110.77000   41.45300  -10.60400    5.12900  # c1,c,hc
angle_coeff	12  123.14510   55.54310  -17.21230    0.13480  # c1,c_1,o_1
angle_coeff	13  100.31820   38.86310   -3.83230   -7.98020  # c1,c_1,o_2
angle_coeff	14  107.73360   40.60990  -28.81210    0.00000  # c_1,c1,hc
angle_coeff	15  107.66000   39.64100  -12.92100   -2.43180  # hc,c,hc
angle_coeff	16  107.68800   65.48010  -10.34980    5.88660  # hc,c,o_2
angle_coeff	17  120.79700   95.34460  -32.28690    6.37780  # o_1,c_1,o_2

# BondBond Coeffs

angle_coeff	 1 bb    0.00000    1.53000    1.53000  # c,c,c
angle_coeff	 2 bb    0.00000    1.53000    1.53000  # c,c,c1
angle_coeff	 3 bb    5.41990    1.53000    1.52020  # c,c,c_1
angle_coeff	 4 bb    3.38720    1.53000    1.10100  # c,c,hc
angle_coeff	 5 bb    0.00000    1.53000    1.53000  # c,c1,c
angle_coeff	 6 bb    5.41990    1.53000    1.52020  # c,c1,c_1
angle_coeff	 7 bb    3.38720    1.53000    1.10100  # c,c1,hc
angle_coeff	 8 bb   46.06850    1.52020    1.20200  # c,c_1,o_1
angle_coeff	 9 bb   19.10690    1.52020    1.36830  # c,c_1,o_2
angle_coeff	10 bb   45.45030    1.43000    1.36830  # c,o_2,c_1
angle_coeff	11 bb    3.38720    1.53000    1.10100  # c1,c,hc
angle_coeff	12 bb   46.06850    1.52020    1.20200  # c1,c_1,o_1
angle_coeff	13 bb   19.10690    1.52020    1.36830  # c1,c_1,o_2
angle_coeff	14 bb    0.71150    1.52020    1.10100  # c_1,c1,hc
angle_coeff	15 bb    5.33160    1.10100    1.10100  # hc,c,hc
angle_coeff	16 bb    5.64540    1.10100    1.43000  # hc,c,o_2
angle_coeff	17 bb  121.48800    1.20200    1.36830  # o_1,c_1,o_2

# BondAngle Coeffs

angle_coeff	 1 ba    8.01600    8.01600    1.53000    1.53000  # c,c,c
angle_coeff	 2 ba    8.01600    8.01600    1.53000    1.53000  # c,c,c1
angle_coeff	 3 ba   18.16780   15.87580    1.53000    1.52020  # c,c,c_1
angle_coeff	 4 ba   20.75400   11.42100    1.53000    1.10100  # c,c,hc
angle_coeff	 5 ba    8.01600    8.01600    1.53000    1.53000  # c,c1,c
angle_coeff	 6 ba   18.16780   15.87580    1.53000    1.52020  # c,c1,c_1
angle_coeff	 7 ba   20.75400   11.42100    1.53000    1.10100  # c,c1,hc
angle_coeff	 8 ba   34.99820   37.12980    1.52020    1.20200  # c,c_1,o_1
angle_coeff	 9 ba    1.34350    4.69780    1.52020    1.36830  # c,c_1,o_2
angle_coeff	10 ba   41.91160   46.46080    1.43000    1.36830  # c,o_2,c_1
angle_coeff	11 ba   20.75400   11.42100    1.53000    1.10100  # c1,c,hc
angle_coeff	12 ba   34.99820   37.12980    1.52020    1.20200  # c1,c_1,o_1
angle_coeff	13 ba    1.34350    4.69780    1.52020    1.36830  # c1,c_1,o_2
angle_coeff	14 ba   12.46320    9.17650    1.52020    1.10100  # c_1,c1,hc
angle_coeff	15 ba   18.10300   18.10300    1.10100    1.10100  # hc,c,hc
angle_coeff	16 ba    8.68640   57.49750    1.10100    1.43000  # hc,c,o_2
angle_coeff	17 ba   76.26140   71.87610    1.20200    1.36830  # o_1,c_1,o_2

# Dihedral Coeffs

dihedral_coeff	 1    0.00000    0.00000    0.05140    0.00000   -0.14300    0.00000  # c,c,c,c
dihedral_coeff	 2    0.00000    0.00000    0.05140    0.00000   -0.14300    0.00000  # c,c,c,c1
dihedral_coeff	 3    0.09720    0.00000    0.07220    0.00000   -0.25810    0.00000  # c,c,c,c_1
dihedral_coeff	 4    0.00000    0.00000    0.03160    0.00000   -0.16810    0.00000  # c,c,c,hc
dihedral_coeff	 5    0.00000    0.00000    0.05140    0.00000   -0.14300    0.00000  # c,c,c1,c
dihedral_coeff	 6    0.09720    0.00000    0.07220    0.00000   -0.25810    0.00000  # c,c,c1,c_1
dihedral_coeff	 7    0.00000    0.00000    0.03160    0.00000   -0.16810    0.00000  # c,c,c1,hc
dihedral_coeff	 8    0.04420    0.00000    0.02920    0.00000    0.05620    0.00000  # c,c,c_1,o_1
dihedral_coeff	 9    1.83410    0.00000    2.06030    0.00000   -0.01950    0.00000  # c,c,c_1,o_2
dihedral_coeff	10    0.00000    0.00000    0.03160    0.00000   -0.16810    0.00000  # c,c1,c,hc
dihedral_coeff	11    0.04420    0.00000    0.02920    0.00000    0.05620    0.00000  # c,c1,c_1,o_1
dihedral_coeff	12    1.83410    0.00000    2.06030    0.00000   -0.01950    0.00000  # c,c1,c_1,o_2
dihedral_coeff	13   -2.55940    0.00000    2.20130    0.00000    0.03250    0.00000  # c,c_1,o_2,c
dihedral_coeff	14   -2.55940    0.00000    2.20130    0.00000    0.03250    0.00000  # c,o_2,c_1,c1
dihedral_coeff	15    0.00000    0.00000    2.20890    0.00000    0.00000    0.00000  # c,o_2,c_1,o_1
dihedral_coeff	16    0.09720    0.00000    0.07220    0.00000   -0.25810    0.00000  # c1,c,c,c_1
dihedral_coeff	17   -0.02280    0.00000    0.02800    0.00000   -0.18630    0.00000  # c_1,c,c,hc
dihedral_coeff	18   -0.02280    0.00000    0.02800    0.00000   -0.18630    0.00000  # c_1,c1,c,hc
dihedral_coeff	19    0.00000    0.00000    0.00000    0.00000   -0.19320    0.00000  # c_1,o_2,c,hc
dihedral_coeff	20   -0.14320    0.00000    0.06170    0.00000   -0.10830    0.00000  # hc,c,c1,hc
dihedral_coeff	21   -0.18040    0.00000    0.00120    0.00000    0.03710    0.00000  # hc,c1,c_1,o_1
dihedral_coeff	22   -0.63590    0.00000    1.48070    0.00000   -0.04380    0.00000  # hc,c1,c_1,o_2

# MiddleBondTorsion Coeffs

dihedral_coeff	 1 mbt  -17.78700   -7.18770    0.00000    1.53000  # c,c,c,c
dihedral_coeff	 2 mbt  -17.78700   -7.18770    0.00000    1.53000  # c,c,c,c1
dihedral_coeff	 3 mbt   -1.59450    0.22670   -0.69110    1.53000  # c,c,c,c_1
dihedral_coeff	 4 mbt  -14.87900   -3.65810   -0.31380    1.53000  # c,c,c,hc
dihedral_coeff	 5 mbt  -17.78700   -7.18770    0.00000    1.53000  # c,c,c1,c
dihedral_coeff	 6 mbt   -1.59450    0.22670   -0.69110    1.53000  # c,c,c1,c_1
dihedral_coeff	 7 mbt  -14.87900   -3.65810   -0.31380    1.53000  # c,c,c1,hc
dihedral_coeff	 8 mbt    0.33880   -0.10960    0.12190    1.52020  # c,c,c_1,o_1
dihedral_coeff	 9 mbt  -17.32800   -5.79000   -3.21140    1.52020  # c,c,c_1,o_2
dihedral_coeff	10 mbt  -14.87900   -3.65810   -0.31380    1.53000  # c,c1,c,hc
dihedral_coeff	11 mbt    0.33880   -0.10960    0.12190    1.52020  # c,c1,c_1,o_1
dihedral_coeff	12 mbt  -17.32800   -5.79000   -3.21140    1.52020  # c,c1,c_1,o_2
dihedral_coeff	13 mbt    1.34450    3.55150   -4.92020    1.36830  # c,c_1,o_2,c
dihedral_coeff	14 mbt    1.34450    3.55150   -4.92020    1.36830  # c,o_2,c_1,c1
dihedral_coeff	15 mbt    4.26000    0.00000    0.00000    1.36830  # c,o_2,c_1,o_1
dihedral_coeff	16 mbt   -1.59450    0.22670   -0.69110    1.53000  # c1,c,c,c_1
dihedral_coeff	17 mbt   -3.50390    1.24580   -0.76100    1.53000  # c_1,c,c,hc
dihedral_coeff	18 mbt   -3.50390    1.24580   -0.76100    1.53000  # c_1,c1,c,hc
dihedral_coeff	19 mbt    0.00000    0.00000    0.00000    1.43000  # c_1,o_2,c,hc
dihedral_coeff	20 mbt  -14.26100   -0.53220   -0.48640    1.53000  # hc,c,c1,hc
dihedral_coeff	21 mbt    0.23590    0.91390    0.95940    1.52020  # hc,c1,c_1,o_1
dihedral_coeff	22 mbt  -13.76860   -2.59590    1.19340    1.52020  # hc,c1,c_1,o_2

# EndBondTorsion Coeffs

dihedral_coeff	 1 ebt   -0.07320    0.00000    0.00000   -0.07320    0.00000    0.00000    1.53000    1.53000  # c,c,c,c
dihedral_coeff	 2 ebt   -0.07320    0.00000    0.00000   -0.07320    0.00000    0.00000    1.53000    1.53000  # c,c,c,c1
dihedral_coeff	 3 ebt    0.00620   -0.00020    0.00360    0.00550    0.00600   -0.00090    1.53000    1.52020  # c,c,c,c_1
dihedral_coeff	 4 ebt    0.24860    0.24220   -0.09250    0.08140    0.05910    0.22190    1.53000    1.10100  # c,c,c,hc
dihedral_coeff	 5 ebt   -0.07320    0.00000    0.00000   -0.07320    0.00000    0.00000    1.53000    1.53000  # c,c,c1,c
dihedral_coeff	 6 ebt    0.00620   -0.00020    0.00360    0.00550    0.00600   -0.00090    1.53000    1.52020  # c,c,c1,c_1
dihedral_coeff	 7 ebt    0.24860    0.24220   -0.09250    0.08140    0.05910    0.22190    1.53000    1.10100  # c,c,c1,hc
dihedral_coeff	 8 ebt    0.26540    0.05030    0.10460   -0.28100    0.08160   -0.15220    1.53000    1.20200  # c,c,c_1,o_1
dihedral_coeff	 9 ebt    0.00000    0.00000    0.00000    0.00000    0.00000    0.00000    1.53000    1.36830  # c,c,c_1,o_2
dihedral_coeff	10 ebt    0.24860    0.24220   -0.09250    0.08140    0.05910    0.22190    1.53000    1.10100  # c,c1,c,hc
dihedral_coeff	11 ebt    0.26540    0.05030    0.10460   -0.28100    0.08160   -0.15220    1.53000    1.20200  # c,c1,c_1,o_1
dihedral_coeff	12 ebt    0.00000    0.00000    0.00000    0.00000    0.00000    0.00000    1.53000    1.36830  # c,c1,c_1,o_2
dihedral_coeff	13 ebt    0.00000    0.00000    0.00000    0.00000    0.00000    0.00000    1.52020    1.43000  # c,c_1,o_2,c
dihedral_coeff	14 ebt    0.00000    0.00000    0.00000    0.00000    0.00000    0.00000    1.43000    1.52020  # c,o_2,c_1,c1
dihedral_coeff	15 ebt    0.00000    0.00000    0.00000    0.00000    0.00000    0.00000    1.43000    1.20200  # c,o_2,c_1,o_1
dihedral_coeff	16 ebt    0.00620   -0.00020    0.00360    0.00550    0.00600   -0.00090    1.53000    1.52020  # c1,c,c,c_1
dihedral_coeff	17 ebt   -0.02040    0.36280   -0.44260   -0.00970   -0.03150   -0.07550    1.52020    1.10100  # c_1,c,c,hc
dihedral_coeff	18 ebt   -0.02040    0.36280   -0.44260   -0.00970   -0.03150   -0.07550    1.52020    1.10100  # c_1,c1,c,hc
dihedral_coeff	19 ebt    0.00000    0.00000    0.00000    0.00000    0.00000    0.00000    1.36830    1.10100  # c_1,o_2,c,hc
dihedral_coeff	20 ebt    0.21300    0.31200    0.07770    0.21300    0.31200    0.07770    1.10100    1.10100  # hc,c,c1,hc
dihedral_coeff	21 ebt    1.21430    0.28310    0.39160   -0.22980    0.03540    0.38530    1.10100    1.20200  # hc,c1,c_1,o_1
dihedral_coeff	22 ebt    0.00000    0.00000    0.00000    0.00000    0.00000    0.00000    1.10100    1.36830  # hc,c1,c_1,o_2

# AngleTorsion Coeffs

dihedral_coeff	 1 at    0.38860   -0.31390    0.13890    0.38860   -0.31390    0.13890  112.67000  112.67000  # c,c,c,c
dihedral_coeff	 2 at    0.38860   -0.31390    0.13890    0.38860   -0.31390    0.13890  112.67000  112.67000  # c,c,c,c1
dihedral_coeff	 3 at   -0.26070    0.32030   -0.22830    0.05150   -0.06740   -0.04740  112.67000  108.52950  # c,c,c,c_1
dihedral_coeff	 4 at   -0.24540    0.00000   -0.11360    0.31130    0.45160   -0.19880  112.67000  110.77000  # c,c,c,hc
dihedral_coeff	 5 at    0.38860   -0.31390    0.13890    0.38860   -0.31390    0.13890  112.67000  112.67000  # c,c,c1,c
dihedral_coeff	 6 at   -0.26070    0.32030   -0.22830    0.05150   -0.06740   -0.04740  112.67000  108.52950  # c,c,c1,c_1
dihedral_coeff	 7 at   -0.24540    0.00000   -0.11360    0.31130    0.45160   -0.19880  112.67000  110.77000  # c,c,c1,hc
dihedral_coeff	 8 at    0.08850   -1.37030   -0.54520    0.67500    0.59650    0.67250  108.52950  123.14510  # c,c,c_1,o_1
dihedral_coeff	 9 at    0.00000    0.00000    0.00000    0.00000    0.00000    0.00000  108.52950  100.31820  # c,c,c_1,o_2
dihedral_coeff	10 at   -0.24540    0.00000   -0.11360    0.31130    0.45160   -0.19880  112.67000  110.77000  # c,c1,c,hc
dihedral_coeff	11 at    0.08850   -1.37030   -0.54520    0.67500    0.59650    0.67250  108.52950  123.14510  # c,c1,c_1,o_1
dihedral_coeff	12 at    0.00000    0.00000    0.00000    0.00000    0.00000    0.00000  108.52950  100.31820  # c,c1,c_1,o_2
dihedral_coeff	13 at    0.00000    0.00000    0.00000    0.00000    0.00000    0.00000  100.31820  113.28800  # c,c_1,o_2,c
dihedral_coeff	14 at    0.00000    0.00000    0.00000    0.00000    0.00000    0.00000  113.28800  100.31820  # c,o_2,c_1,c1
dihedral_coeff	15 at    0.00000    0.00000    0.00000    0.00000    0.00000    0.00000  113.28800  120.79700  # c,o_2,c_1,o_1
dihedral_coeff	16 at   -0.26070    0.32030   -0.22830    0.05150   -0.06740   -0.04740  112.67000  108.52950  # c1,c,c,c_1
dihedral_coeff	17 at   -0.74660   -0.94480   -0.63210    0.01620    1.42110   -1.40920  108.52950  110.77000  # c_1,c,c,hc
dihedral_coeff	18 at   -0.74660   -0.94480   -0.63210    0.01620    1.42110   -1.40920  108.52950  110.77000  # c_1,c1,c,hc
dihedral_coeff	19 at    0.00000    0.00000    0.00000    0.00000    0.00000    0.00000  113.28800  107.68800  # c_1,o_2,c,hc
dihedral_coeff	20 at   -0.80850    0.55690   -0.24660   -0.80850    0.55690   -0.24660  110.77000  110.77000  # hc,c,c1,hc
dihedral_coeff	21 at    9.12990   -0.48470    0.35820   -1.49460    0.73080   -0.20830  107.73360  123.14510  # hc,c1,c_1,o_1
dihedral_coeff	22 at    0.00000    0.00000    0.00000    0.00000    0.00000    0.00000  107.73360  100.31820  # hc,c1,c_1,o_2

# AngleAngleTorsion Coeffs

dihedral_coeff	 1 aat  -22.04500  112.67000  112.67000  # c,c,c,c
dihedral_coeff	 2 aat  -22.04500  112.67000  112.67000  # c,c,c,c1
dihedral_coeff	 3 aat   -0.38010  112.67000  108.52950  # c,c,c,c_1
dihedral_coeff	 4 aat  -16.16400  112.67000  110.77000  # c,c,c,hc
dihedral_coeff	 5 aat  -22.04500  112.67000  112.67000  # c,c,c1,c
dihedral_coeff	 6 aat   -0.38010  112.67000  108.52950  # c,c,c1,c_1
dihedral_coeff	 7 aat  -16.16400  112.67000  110.77000  # c,c,c1,hc
dihedral_coeff	 8 aat   -8.01900  108.52950  123.14510  # c,c,c_1,o_1
dihedral_coeff	 9 aat    0.00000  108.52950  100.31820  # c,c,c_1,o_2
dihedral_coeff	10 aat  -16.16400  112.67000  110.77000  # c,c1,c,hc
dihedral_coeff	11 aat   -8.01900  108.52950  123.14510  # c,c1,c_1,o_1
dihedral_coeff	12 aat    0.00000  108.52950  100.31820  # c,c1,c_1,o_2
dihedral_coeff	13 aat    0.00000  100.31820  113.28800  # c,c_1,o_2,c
dihedral_coeff	14 aat    0.00000  113.28800  100.31820  # c,o_2,c_1,c1
dihedral_coeff	15 aat    0.00000  113.28800  120.79700  # c,o_2,c_1,o_1
dihedral_coeff	16 aat   -0.38010  112.67000  108.52950  # c1,c,c,c_1
dihedral_coeff	17 aat   -5.36240  108.52950  110.77000  # c_1,c,c,hc
dihedral_coeff	18 aat   -5.36240  108.52950  110.77000  # c_1,c1,c,hc
dihedral_coeff	19 aat    0.00000  113.28800  107.68800  # c_1,o_2,c,hc
dihedral_coeff	20 aat  -12.56400  110.77000  110.77000  # hc,c,c1,hc
dihedral_coeff	21 aat  -15.34960  107.73360  123.14510  # hc,c1,c_1,o_1
dihedral_coeff	22 aat    0.00000  107.73360  100.31820  # hc,c1,c_1,o_2

# BondBond13 Coeffs

dihedral_coeff	 1 bb13    0.00000    1.53000    1.53000  # c,c,c,c
dihedral_coeff	 2 bb13    0.00000    1.53000    1.53000  # c,c,c,c1
dihedral_coeff	 3 bb13    0.00000    1.53000    1.52020  # c,c,c,c_1
dihedral_coeff	 4 bb13    0.00000    1.53000    1.10100  # c,c,c,hc
dihedral_coeff	 5 bb13    0.00000    1.53000    1.53000  # c,c,c1,c
dihedral_coeff	 6 bb13    0.00000    1.53000    1.52020  # c,c,c1,c_1
dihedral_coeff	 7 bb13    0.00000    1.53000    1.10100  # c,c,c1,hc
dihedral_coeff	 8 bb13    0.00000    1.53000    1.20200  # c,c,c_1,o_1
dihedral_coeff	 9 bb13    0.00000    1.53000    1.36830  # c,c,c_1,o_2
dihedral_coeff	10 bb13    0.00000    1.53000    1.10100  # c,c1,c,hc
dihedral_coeff	11 bb13    0.00000    1.53000    1.20200  # c,c1,c_1,o_1
dihedral_coeff	12 bb13    0.00000    1.53000    1.36830  # c,c1,c_1,o_2
dihedral_coeff	13 bb13    0.00000    1.52020    1.43000  # c,c_1,o_2,c
dihedral_coeff	14 bb13    0.00000    1.43000    1.52020  # c,o_2,c_1,c1
dihedral_coeff	15 bb13    0.00000    1.43000    1.20200  # c,o_2,c_1,o_1
dihedral_coeff	16 bb13    0.00000    1.53000    1.52020  # c1,c,c,c_1
dihedral_coeff	17 bb13    0.00000    1.52020    1.10100  # c_1,c,c,hc
dihedral_coeff	18 bb13    0.00000    1.52020    1.10100  # c_1,c1,c,hc
dihedral_coeff	19 bb13    0.00000    1.36830    1.10100  # c_1,o_2,c,hc
dihedral_coeff	20 bb13    0.00000    1.10100    1.10100  # hc,c,c1,hc
dihedral_coeff	21 bb13    0.00000    1.10100    1.20200  # hc,c1,c_1,o_1
dihedral_coeff	22 bb13    0.00000    1.10100    1.36830  # hc,c1,c_1,o_2

# Improper Coeffs

improper_coeff	 1    0.00000    0.00000  # c,c,c,c
improper_coeff	 2    0.00000    0.00000  # c,c,c,c_1
improper_coeff	 3    0.00000    0.00000  # c,c,c,hc
improper_coeff	 4    0.00000    0.00000  # c,c,c1,hc
improper_coeff	 5    0.00000    0.00000  # c,c,hc,hc
improper_coeff	 6    0.00000    0.00000  # c,c1,hc,hc
improper_coeff	 7    0.00000    0.00000  # c,hc,hc,hc
improper_coeff	 8    0.00000    0.00000  # c,hc,hc,o_2
improper_coeff	 9    0.00000    0.00000  # c1,c,c,c_1
improper_coeff	10    0.00000    0.00000  # c1,c,c,hc
improper_coeff	11    0.00000    0.00000  # c1,c,c_1,hc
improper_coeff	12    0.00000    0.00000  # c1,c,hc,c_1
improper_coeff	13   46.92640    0.00000  # c_1,c,o_2,o_1
improper_coeff	14   46.92640    0.00000  # c_1,c1,o_2,o_1

# AngleAngle Coeffs

improper_coeff	 1 aa   -0.17290   -0.17290   -0.17290  112.67000  112.67000  112.67000  # c,c,c,c
improper_coeff	 2 aa    0.00000    0.00000    0.00000  112.67000  108.52950  108.52950  # c,c,c,c_1
improper_coeff	 3 aa   -1.31990   -1.31990    0.11840  112.67000  110.77000  110.77000  # c,c,c,hc
improper_coeff	 4 aa   -1.31990   -1.31990    0.11840  112.67000  110.77000  110.77000  # c,c,c1,hc
improper_coeff	 5 aa    0.27380   -0.48250    0.27380  110.77000  110.77000  107.66000  # c,c,hc,hc
improper_coeff	 6 aa    0.27380   -0.48250    0.27380  110.77000  110.77000  107.66000  # c,c1,hc,hc
improper_coeff	 7 aa   -0.31570   -0.31570   -0.31570  107.66000  107.66000  107.66000  # c,hc,hc,hc
improper_coeff	 8 aa    0.00000    0.00000    0.00000  107.66000  107.68800  107.68800  # c,hc,hc,o_2
improper_coeff	 9 aa    0.00000    0.00000    0.00000  112.67000  108.52950  108.52950  # c1,c,c,c_1
improper_coeff	10 aa   -1.31990   -1.31990    0.11840  112.67000  110.77000  110.77000  # c1,c,c,hc
improper_coeff	11 aa    2.04030   -1.82020    1.08270  108.52950  110.77000  107.73360  # c1,c,c_1,hc
improper_coeff	12 aa    1.08270   -1.82020    2.04030  110.77000  108.52950  107.73360  # c1,c,hc,c_1
improper_coeff	13 aa    0.00000    0.00000    0.00000  100.31820  123.14510  120.79700  # c_1,c,o_2,o_1
improper_coeff	14 aa    0.00000    0.00000    0.00000  100.31820  123.14510  120.79700  # c_1,c1,o_2,o_1


# --- Thermo Output ---
thermo_style custom step time temp press enthalpy etotal ke pe ebond eangle edihed eimp evdwl ecoul elong etail vol lx ly lz density pxx pyy pzz
thermo_modify flush yes
thermo 1000

# --- Trajectory ---
dump dump_nvt all custom 1000 nvt_softheat.dump id type mol x y z ix iy iz vx vy vz

# --- Restart Checkpointing ---
restart 10000 nvt_1.rst nvt_2.rst

# --- Initial Velocities (optional) ---
velocity all create 300.0 631587 mom yes rot yes dist gaussian

# --- SHAKE Constraints ---
# Constrains H-X bonds to allow 2fs timestep
# SHAKE disabled

# --- NVT Thermostat (Nose-Hoover) ---
# T_damp = 50.0 fs  (coupling timescale for heat exchange)
# Ramp: 300.0 K -> 630.0 K over 500000 steps
timestep 0.5
fix nvt_fix all nvt temp 300.0 630.0 50.0

run 500000
PPPM Kokkos initialization ...
  using 12-bit tables for long-range coulomb
  G vector (1/distance) = 0.32196359
  grid = 48 48 48
  stencil order = 5
  estimated absolute RMS force accuracy = 0.00040437164
  estimated relative force accuracy = 1.2177532e-06
  using double precision cuFFT
  3d grid and FFT values/proc = 166375 110592
Generated 15 of 15 mixed pair_coeff terms from sixthpower/sixthpower mixing rule
Neighbor list info ...
  update: every = 1 steps, delay = 0 steps, check = yes
  max neighbors/atom: 4000, page size: 100000
  master list distance cutoff = 11.5
  ghost atom cutoff = 11.5
  binsize = 11.5, bins = 5 5 5
  1 neighbor lists, perpetual/occasional/extra = 1 0 0
  (1) pair lj/class2/coul/long/kk, perpetual
      attributes: full, newton off, kokkos_device
      pair build: full/bin/kk/device
      stencil: full/bin/3d
      bin: kk/device
Per MPI rank memory allocation (min/avg/max) = 53.89 | 53.89 | 53.89 Mbytes
   Step          Time           Temp          Press         Enthalpy        TotEng         KinEng         PotEng         E_bond        E_angle        E_dihed        E_impro         E_vdwl         E_coul         E_long         E_tail         Volume           Lx             Ly             Lz          Density          Pxx            Pyy            Pzz      
         0   0              300            8159.6016      45611.311      29118.258      6723.8132      22394.445      1908.524       6128.3613     -1432.3953      127.27149      2992.865       42364.7       -29694.881     -283.18806      138597.75      51.750998      51.750998      51.750998      0.59999999     9713.4563      7474.9289      7290.4195    
      1000   500            299.24977      600.29389      31265.363      30051.985      6706.9985      23344.987      3516.8039      6876.9409     -1505.6866      199.78107      1677.7717      42280.572     -29701.196     -283.18806      138597.75      51.750998      51.750998      51.750998      0.59999999     697.30124      297.10915      806.47129    
      2000   1000           300.10119     -286.40276      29329.457      29908.365      6726.0813      23182.284      3380.6535      6798.8071     -1494.969       202.73746      1753.5559      42234.938     -29693.44      -283.18806      138597.75      51.750998      51.750998      51.750998      0.59999999    -786.84419     -245.92763      173.56355    
      3000   1500           307.54471     -732.92135      28806.408      30287.866      6892.9107      23394.956      3577.8135      6821.9255     -1521.4857      182.64373      1779.4928      42243.434     -29688.868     -283.18806      138597.75      51.750998      51.750998      51.750998      0.59999999    -472.47025     -1438.0987     -288.19506    
      4000   2000           302.89929     -193.64905      29711.503      30102.927      6788.7942      23314.133      3556.1893      6717.8013     -1536.4301      198.37584      1869.5058      42211.376     -29702.685     -283.18806      138597.75      51.750998      51.750998      51.750998      0.59999999     349.03988     -389.33675     -540.65029    
      5000   2500           298.40986     -177.58952      29888.201      30247.164      6688.174       23558.99       3627.6841      6936.7788     -1548.9016      215.56946      1788.1614      42239.021     -29699.324     -283.18806      138597.75      51.750998      51.750998      51.750998      0.59999999     197.31489      248.80894     -978.8924     
      6000   3000           304.03205     -345.29544      29446.221      30144.168      6814.1824      23329.986      3572.7344      6760.7858     -1515.4244      216.70474      1766.8738      42235.172     -29706.861     -283.18806      138597.75      51.750998      51.750998      51.750998      0.59999999    -481.8314      -538.64603     -15.408904    
      7000   3500           303.05948     -495.87589      29117.05       30119.367      6792.3844      23326.983      3528.3551      6726.1432     -1506.0604      196.49467      1864.0275      42219.281     -29701.259     -283.18806      138597.75      51.750998      51.750998      51.750998      0.59999999    -552.59376     -35.382344     -899.65155    
      8000   4000           303.69762     -553.46904      29036.216      30154.946      6806.6869      23348.259      3624.3168      6732.3823     -1477.9613      205.87384      1719.1241      42242.602     -29698.078     -283.18806      138597.75      51.750998      51.750998      51.750998      0.59999999    -1092.7078      149.5971      -717.29641    
      9000   4500           306.04844     -166.46592      29658.536      29995.014      6859.3752      23135.639      3600.8053      6660.9305     -1531.0113      233.87447      1656.3129      42222.584     -29707.857     -283.18806      138597.75      51.750998      51.750998      51.750998      0.59999999    -10.781562     -279.16973     -209.44645    
     10000   5000           301.76427     -738.53555      28435.149      29927.956      6763.3554      23164.6        3627.732       6781.994      -1564.8171      211.46193      1636.0918      42176.83      -29704.692     -283.18806      138597.75      51.750998      51.750998      51.750998      0.59999999    -632.58465     -658.21464     -924.80737    
     11000   5500           307.04365     -839.65518      28445.853      30143.053      6881.6805      23261.372      3764.8165      6783.2784     -1575.0362      215.82241      1585.0565      42194.826     -29707.391     -283.18806      138597.75      51.750998      51.750998      51.750998      0.59999999    -445.91542     -1147.827      -925.22312    
     12000   6000           312.61706      170.1985       30489.99       30145.967      7006.5959      23139.371      3639.7529      6727.4962     -1601.9762      215.88009      1640.9172      42225.247     -29707.946     -283.18806      138597.75      51.750998      51.750998      51.750998      0.59999999     342.4739       301.10739     -132.98579    
     13000   6500           315.17141      10.674223      30170.306      30148.73       7063.8457      23084.885      3703.9093      6748.0891     -1551.2748      208.30976      1500.0986      42185.472     -29709.719     -283.18806      138597.75      51.750998      51.750998      51.750998      0.59999999    -164.37903      48.170584      148.23111    
     14000   7000           310.05319     -376.06821      29290.388      30050.536      6949.1325      23101.404      3626.9199      6691.2386     -1507.6665      209.29464      1604.977       42191.645     -29715.005     -283.18806      138597.75      51.750998      51.750998      51.750998      0.59999999    -525.93138     -277.46888     -324.80438    
     15000   7500           306.92957      75.501509      30107.352      29954.74       6879.1237      23075.617      3710.7602      6684.6243     -1555.3581      214.1275       1549.5733      42195.067     -29723.177     -283.18806      138597.75      51.750998      51.750998      51.750998      0.59999999    -204.72258     -191.78448      623.01158    
     16000   8000           316.80335     -417.90275      29205.652      30050.361      7100.4219      22949.94       3790.702       6706.9673     -1591.725       215.50935      1373.1881      42167.426     -29712.128     -283.18806      138597.75      51.750998      51.750998      51.750998      0.59999999    -719.88744      83.69774      -617.51856    
     17000   8500           306.2848      -681.73638      28521.931      29899.929      6864.6727      23035.257      3925.1516      6743.7423     -1576.9416      217.46955      1290.9994      42159.214     -29724.378     -283.18806      138597.75      51.750998      51.750998      51.750998      0.59999999    -575.83426     -360.07497     -1109.2999    
     18000   9000           308.8604      -100.11122      29804.662      30007.018      6922.3987      23084.619      3851.0822      6729.9907     -1577.449       211.13566      1386.3624      42196.47      -29712.973     -283.18806      138597.75      51.750998      51.750998      51.750998      0.59999999    -567.83976     -374.999        642.50511    
     19000   9500           314.39776     -231.96101      29446.394      29915.258      7046.5061      22868.752      3826.356       6617.5818     -1590.1051      201.86296      1360.2158      42173.273     -29720.432     -283.18806      138597.75      51.750998      51.750998      51.750998      0.59999999    -741.34112     -478.1347       523.59279    
     20000   10000          311.38638     -173.1439       29686.566      30036.543      6979.0129      23057.53       3810.0333      6842.6555     -1629.6167      202.67821      1392.5137      42159.427     -29720.161     -283.18806      138597.75      51.750998      51.750998      51.750998      0.59999999    -35.240471     -41.493508     -442.69771    
     21000   10500          314.23796     -754.60024      28663.935      30189.213      7042.9246      23146.289      3897.3098      6757.3243     -1574.4417      224.78891      1398.2109      42159.279     -29716.183     -283.18806      138597.75      51.750998      51.750998      51.750998      0.59999999    -913.98667     -279.39353     -1070.4205    
     22000   11000          309.56015     -405.09554      29252.294      30071.116      6938.082       23133.034      3918.0867      6863.9714     -1641.2693      212.65873      1339.5434      42163.537     -29723.494     -283.18806      138597.75      51.750998      51.750998      51.750998      0.59999999    -1182.9458     -404.14584      371.80506    
     23000   11500          317.88713     -481.77084      29044.381      30018.188      7124.7122      22893.475      3869.4598      6771.9907     -1696.1669      229.88318      1292.514       42153.408     -29727.614     -283.18806      138597.75      51.750998      51.750998      51.750998      0.59999999    -1096.6748     -96.305716     -252.33196    
     24000   12000          314.66515     -968.94626      28292.656      30251.193      7052.4991      23198.694      4007.8413      7004.3572     -1664.8915      220.18902      1224.9805      42131.206     -29724.989     -283.18806      138597.75      51.750998      51.750998      51.750998      0.59999999    -703.15631     -1082.0805     -1121.602     
     25000   12500          312.45819     -389.29174      29222.652      30009.53       7003.035       23006.495      3804.3066      6943.6248     -1681.5983      218.06452      1310.6814      42142.909     -29731.493     -283.18806      138597.75      51.750998      51.750998      51.750998      0.59999999     50.940739     -792.30459     -426.51137    
     26000   13000          317.79413     -237.89225      29771.614      30252.467      7122.6278      23129.84       3947.1604      6918.1611     -1680.3745      213.62148      1315.8992      42149.2       -29733.828     -283.18806      138597.75      51.750998      51.750998      51.750998      0.59999999     34.331505     -541.1672      -206.84106    
     27000   13500          323.12879     -97.292396      30006.599      30203.256      7242.1922      22961.064      3896.1711      6842.703      -1649.8757      211.26694      1241.4638      42148.048     -29728.713     -283.18806      138597.75      51.750998      51.750998      51.750998      0.59999999    -4.7917228     -139.70533     -147.38013    
     28000   14000          322.08579      464.58279      31181.404      30242.34       7218.8157      23023.524      3914.4564      6897.5004     -1652.0948      207.93629      1239.0225      42158.058     -29741.354     -283.18806      138597.75      51.750998      51.750998      51.750998      0.59999999    -32.89989       1129.0159      297.63236    
     29000   14500          321.88695     -1169.7226      27943.227      30307.594      7214.3591      23093.235      4037.1119      6825.2154     -1647.1771      215.0515       1230.0347      42161.699     -29728.7       -283.18806      138597.75      51.750998      51.750998      51.750998      0.59999999    -1797.6891     -901.20187     -810.27691    
     30000   15000          315.88948      28.673978      30197.757      30139.799      7079.9396      23059.859      3933.122       6817.7006     -1637.3495      203.42945      1317.2225      42156.437     -29730.703     -283.18806      138597.75      51.750998      51.750998      51.750998      0.59999999    -140.97744      44.723494      182.27588    
     31000   15500          319.46332     -506.33486      29102.079      30125.536      7160.0389      22965.497      3941.9187      6914.432      -1645.205       224.13844      1116.2826      42140.812     -29726.882     -283.18806      138597.75      51.750998      51.750998      51.750998      0.59999999    -862.82847     -776.59654      120.42042    
     32000   16000          317.56623     -430.03709      29438.836      30308.073      7117.5202      23190.553      4077.7869      6936.3395     -1679.8307      219.49311      1219.4423      42143.855     -29726.533     -283.18806      138597.75      51.750998      51.750998      51.750998      0.59999999    -720.39156     -267.78755     -301.93216    
     33000   16500          324.86312     -111.16728      30104.489      30329.193      7281.0633      23048.129      3969.0891      6867.3836     -1682.6902      212.37754      1263.0779      42146.374     -29727.482     -283.18806      138597.75      51.750998      51.750998      51.750998      0.59999999    -40.285843      161.38129     -454.59729    
     34000   17000          320.67201     -977.18754      28255.729      30230.925      7187.1289      23043.796      3976.639       6863.5373     -1631.5317      203.2285       1200.6652      42153.702     -29722.444     -283.18806      138597.75      51.750998      51.750998      51.750998      0.59999999    -356.27893     -2136.9422     -438.34151    
     35000   17500          328.48556     -136.83543      30085.093      30361.68       7362.2519      22999.428      3997.8011      6713.1679     -1601.2906      204.13518      1246.9454      42163.296     -29724.627     -283.18806      138597.75      51.750998      51.750998      51.750998      0.59999999     1048.7234     -579.68422     -879.54542    
     36000   18000          317.59819     -18.084353      30149.39       30185.944      7118.2364      23067.708      4043.3684      6799.723      -1669.1639      226.78739      1240.6796      42154.515     -29728.202     -283.18806      138597.75      51.750998      51.750998      51.750998      0.59999999    -433.01316      356.61517      22.14493     
     37000   18500          321.76726     -1302.6413      27716.947      30349.983      7211.6765      23138.307      4191.6673      6896.3281     -1673.6602      214.4456       1102.5905      42141.698     -29734.762     -283.18806      138597.75      51.750998      51.750998      51.750998      0.59999999    -1747.9722     -688.58039     -1471.3712    
     38000   19000          317.80525     -1769.5549      26721.781      30298.593      7122.8771      23175.716      4059.3447      6963.7459     -1629.5463      207.10776      1136.0802      42164.875     -29725.891     -283.18806      138597.75      51.750998      51.750998      51.750998      0.59999999    -2232.0974     -1788.1837     -1288.3837    
     39000   19500          328.3204      -868.5341       28613.305      30368.878      7358.5502      23010.328      4040.3441      6840.806      -1656.1716      199.02767      1147.6641      42166.223     -29727.565     -283.18806      138597.75      51.750998      51.750998      51.750998      0.59999999    -1744.1349      405.00668     -1266.474     
     40000   20000          327.19155     -461.09778      29442.201      30374.221      7333.2495      23040.972      4039.2614      6881.5231     -1648.0569      219.5831       1121.1918      42158.001     -29730.532     -283.18806      138597.75      51.750998      51.750998      51.750998      0.59999999    -483.20227     -631.71966     -268.3714     
     41000   20500          330.3536      -869.03402      28831.09       30587.674      7404.1196      23183.554      4064.1005      6994.6138     -1685.2737      220.43008      1176.7081      42142.752     -29729.776     -283.18806      138597.75      51.750998      51.750998      51.750998      0.59999999    -1450.4617     -614.573       -542.06739    
     42000   21000          325.73123     -279.63254      29878.457      30443.68       7300.5197      23143.16       3988.8015      6874.8956     -1605.2777      236.7295       1221.185       42155.279     -29728.453     -283.18806      138597.75      51.750998      51.750998      51.750998      0.59999999    -601.11915     -40.479279     -197.29918    
     43000   21500          325.82966     -729.46143      28955.848      30430.312      7302.726       23127.586      4067.7418      6977.5622     -1726.0507      222.50733      1155.6476      42155.651     -29725.473     -283.18806      138597.75      51.750998      51.750998      51.750998      0.59999999    -918.85763     -846.5117      -423.01495    
     44000   22000          326.81446     -95.488678      30254.812      30447.824      7324.798       23123.026      4127.6053      6905.7289     -1693.5332      216.50532      1150.0187      42142.864     -29726.163     -283.18806      138597.75      51.750998      51.750998      51.750998      0.59999999    -469.5426       186.08517     -3.0086082    
     45000   22500          332.99654     -838.14971      29051.053      30745.21       7463.3552      23281.855      4143.691       7033.9604     -1701.2393      232.76033      1139.2398      42153.906     -29720.463     -283.18806      138597.75      51.750998      51.750998      51.750998      0.59999999     74.602069     -1872.6203     -716.43088    
     46000   23000          328.92576     -661.40768      29169.218      30506.126      7372.118       23134.008      4160.1744      6903.2484     -1662.891       224.23509      1094.9708      42146.835     -29732.565     -283.18806      138597.75      51.750998      51.750998      51.750998      0.59999999    -1090.2971     -763.0177      -130.90826    
     47000   23500          332.99836      166.36364      30941.719      30605.447      7463.396       23142.051      4154.0897      6947.8435     -1726.8258      208.70029      1142.8299      42136.652     -29721.239     -283.18806      138597.75      51.750998      51.750998      51.750998      0.59999999    -136.34073      644.18889     -8.7572316    
     48000   24000          329.81319     -581.53325      29450.866      30626.323      7392.0076      23234.316      4127.2308      6907.8661     -1561.2141      217.07045      1106.0954      42160.208     -29722.941     -283.18806      138597.75      51.750998      51.750998      51.750998      0.59999999    -1363.303      -69.689448     -311.60735    
     49000   24500          335.21244     -316.14067      29938.996      30578.013      7513.0195      23064.993      4121.3534      6878.27       -1679.9198      216.20909      1159.0912      42105.687     -29735.698     -283.18806      138597.75      51.750998      51.750998      51.750998      0.59999999     80.660712     -404.87406     -624.20865    
     50000   25000          329.0697       135.84158      30911.556      30636.978      7375.344       23261.634      4056.1664      7088.9627     -1717.3493      229.94825      1192.7054      42140.576     -29729.375     -283.18806      138597.75      51.750998      51.750998      51.750998      0.59999999     265.83882      148.80253     -7.1166187    
     51000   25500          334.84866     -220.07158      30253.872      30698.704      7504.8662      23193.838      4152.7597      6939.5152     -1683.9687      226.39168      1145.4212      42148.749     -29735.031     -283.18806      138597.75      51.750998      51.750998      51.750998      0.59999999    -282.27973     -425.8898       47.954798    
     52000   26000          335.11578     -1073.9871      28669.157      30840.014      7510.853       23329.161      4159.1372      7053.7648     -1704.5085      199.0727       1215.5128      42133.859     -29727.677     -283.18806      138597.75      51.750998      51.750998      51.750998      0.59999999    -56.182886     -1007.4167     -2158.3617    
     53000   26500          334.85994     -645.41159      29556.996      30861.57       7505.1189      23356.451      4187.0308      7060.133      -1653.9714      225.35433      1147.4368      42116.634     -29726.166     -283.18806      138597.75      51.750998      51.750998      51.750998      0.59999999    -1327.2504      556.9094      -1165.8938    
     54000   27000          334.40233     -218.05226      30221.097      30661.847      7494.8627      23166.985      4101.3196      6917.5635     -1684.7597      207.27704      1167.5625      42185.394     -29727.372     -283.18806      138597.75      51.750998      51.750998      51.750998      0.59999999    -448.42186      21.404512     -227.13942    
     55000   27500          339.84665     -10.837645      30866.716      30888.622      7616.8847      23271.738      4074.3687      7029.4238     -1714.5655      241.9037       1217.5371      42151.28      -29728.21      -283.18806      138597.75      51.750998      51.750998      51.750998      0.59999999    -94.623451      40.415432      21.695084    
     56000   28000          339.59507     -87.892335      30797.11       30974.767      7611.246       23363.521      4196.2701      7063.6042     -1716.4754      221.59993      1187.888       42145.443     -29734.809     -283.18806      138597.75      51.750998      51.750998      51.750998      0.59999999    -903.63663      91.876023      548.0836     
     57000   28500          339.06677     -637.11078      29547.242      30835.038      7599.4055      23235.633      4098.415       7049.2566     -1717.6955      221.63938      1166.0621      42150.306     -29732.351     -283.18806      138597.75      51.750998      51.750998      51.750998      0.59999999    -710.75297     -497.62533     -702.95403    
     58000   29000          340.06963     -719.94073      29602.836      31058.056      7621.8822      23436.174      4203.1337      7144.2134     -1699.6921      238.68669      1130.3354      42144.098     -29724.601     -283.18806      138597.75      51.750998      51.750998      51.750998      0.59999999    -444.88519     -818.77933     -896.15767    
     59000   29500          341.88095     -705.10544      29629.199      31054.433      7662.4788      23391.954      4134.0138      7058.3752     -1676.5759      232.02415      1184.0929      42182.812     -29722.788     -283.18806      138597.75      51.750998      51.750998      51.750998      0.59999999    -1203.5982     -1042.9608      131.24268    
     60000   30000          339.24015     -67.193278      30912.769      31048.587      7603.2914      23445.296      4213.4873      7096.7202     -1682.3496      225.11173      1167.3416      42152.101     -29727.116     -283.18806      138597.75      51.750998      51.750998      51.750998      0.59999999     166.33065      844.63838     -1212.5489    
     61000   30500          343.37134     -748.29612      29627.973      31140.508      7695.8826      23444.626      4179.9463      7088.5582     -1691.2112      246.54073      1176.1263      42163.676     -29719.01      -283.18806      138597.75      51.750998      51.750998      51.750998      0.59999999    -3.4523882     -1062.0408     -1179.3952    
     62000   31000          338.31407     -318.52392      30323.544      30967.378      7582.5354      23384.843      4107.716       7160.6169     -1709.5295      216.1749       1190.8957      42148.746     -29729.777     -283.18806      138597.75      51.750998      51.750998      51.750998      0.59999999     107.42082     -728.5205      -334.47207    
     63000   31500          343.16679     -659.54613      29785.101      31118.246      7691.298       23426.948      4251.4202      7085.0205     -1714.3407      229.47865      1183.2559      42126.824     -29734.711     -283.18806      138597.75      51.750998      51.750998      51.750998      0.59999999    -253.54738     -963.2055      -761.88549    
     64000   32000          344.61108     -550.45501      30060.57       31173.208      7723.6685      23449.539      4217.684       7183.128      -1701.4056      226.33003      1121.888       42130.216     -29728.301     -283.18806      138597.75      51.750998      51.750998      51.750998      0.59999999    -304.94617     -560.62781     -785.79104    
     65000   32500          346.08864      268.47295      31647.803      31105.137      7756.7846      23348.353      4092.7344      7122.6053     -1733.4763      209.35436      1253.8749      42142.07      -29738.81      -283.18806      138597.75      51.750998      51.750998      51.750998      0.59999999    -123.43016      249.23837      679.61066    
     66000   33000          342.17474      293.76882      31705.22       31111.424      7669.0634      23442.36       4235.8874      7067.9349     -1706.3623      237.94443      1187.3109      42152.79      -29733.145     -283.18806      138597.75      51.750998      51.750998      51.750998      0.59999999     765.46102      357.43831     -241.59286    
     67000   33500          344.52832     -1007.5373      29344.422      31380.963      7721.8136      23659.149      4297.6568      7186.6271     -1653.5877      240.83632      1166.2061      42147.195     -29725.784     -283.18806      138597.75      51.750998      51.750998      51.750998      0.59999999    -836.91245     -401.23894     -1784.4604    
     68000   34000          347.27627     -847.84914      29520.628      31234.391      7783.4025      23450.988      4232.2363      7189.5455     -1722.1709      230.28991      1135.8396      42119.718     -29734.47      -283.18806      138597.75      51.750998      51.750998      51.750998      0.59999999    -1830.3319     -861.18147      147.96597    
     69000   34500          344.86736     -906.02644      29300.839      31132.195      7729.4124      23402.783      4212.3781      7082.1125     -1669.7656      247.12035      1105.1099      42155.743     -29729.916     -283.18806      138597.75      51.750998      51.750998      51.750998      0.59999999    -1370.9774     -992.06334     -355.03862    
     70000   35000          341.34142     -1247.8725      28730.227      31252.559      7650.3865      23602.173      4298.984       7162.9679     -1654.5034      227.99428      1151.09        42145.783     -29730.143     -283.18806      138597.75      51.750998      51.750998      51.750998      0.59999999    -718.67082     -1128.4067     -1896.54      
     71000   35500          352.86206     -773.25798      29813.16       31376.151      7908.5953      23467.555      4285.1566      7099.5928     -1666.7898      223.25659      1145.5358      42109.056     -29728.252     -283.18806      138597.75      51.750998      51.750998      51.750998      0.59999999     103.14737     -1377.758      -1045.1633    
     72000   36000          347.87015     -1020.8223      29270.238      31333.632      7796.713       23536.919      4289.6328      7108.7332     -1681.0578      224.4263       1200.9296      42130.28      -29736.025     -283.18806      138597.75      51.750998      51.750998      51.750998      0.59999999    -311.55371     -1651.8668     -1099.0465    
     73000   36500          344.25324     -480.17135      30314.27       31284.844      7715.6482      23569.195      4196.3622      7173.5052     -1667.9571      233.70336      1222.7224      42143.342     -29732.483     -283.18806      138597.75      51.750998      51.750998      51.750998      0.59999999    -731.77058     -246.06724     -462.67621    
     74000   37000          347.88668     -996.91777      29389.273      31404.349      7797.0835      23607.265      4234.8676      7271.3222     -1739.8836      228.72123      1208.7699      42138.861     -29735.393     -283.18806      138597.75      51.750998      51.750998      51.750998      0.59999999    -1057.2154     -116.12898     -1817.4089    
     75000   37500          354.13938      337.92029      32074.858      31391.817      7937.2236      23454.594      4130.501       7177.7923     -1726.9278      235.22057      1199.767       42169.412     -29731.171     -283.18806      138597.75      51.750998      51.750998      51.750998      0.59999999    -274.29764      608.44401      679.6145     
     76000   38000          346.06607     -953.39772      29307.337      31234.446      7756.2788      23478.167      4248.5499      7144.8716     -1707.3144      232.90962      1159.8108      42130.42      -29731.08      -283.18806      138597.75      51.750998      51.750998      51.750998      0.59999999    -241.24927     -1067.6339     -1551.31      
     77000   38500          348.23386     -565.06821      30337.584      31479.76       7804.8647      23674.895      4348.917       7137.3153     -1689.386       233.00351      1240.6958      42140.809     -29736.459     -283.18806      138597.75      51.750998      51.750998      51.750998      0.59999999    -111.9296      -1015.3093     -567.96571    
     78000   39000          351.70957     -651.58153      30149.988      31467.033      7882.7648      23584.269      4327.2347      7063.386      -1727.1334      243.72643      1284.8389      42127.868     -29735.652     -283.18806      138597.75      51.750998      51.750998      51.750998      0.59999999    -453.03804     -689.64816     -812.05838    
     79000   39500          361.45942     -455.53997      30768.137      31688.923      8101.2854      23587.637      4260.5591      7175.183      -1682.0403      241.60375      1187.9251      42135.475     -29731.069     -283.18806      138597.75      51.750998      51.750998      51.750998      0.59999999    -913.12601     -1125.0779      671.58404    
     80000   40000          354.04981     -980.08318      29610.951      31591.999      7935.216       23656.783      4388.4974      7145.1424     -1635.5573      228.87945      1138.9619      42121.388     -29730.529     -283.18806      138597.75      51.750998      51.750998      51.750998      0.59999999    -1695.0791     -720.05242     -525.11798    
     81000   40500          350.38566     -830.55105      29665.374      31344.172      7853.0924      23491.08       4220.9157      7205.5952     -1685.0097      241.41198      1093.7104      42147.135     -29732.679     -283.18806      138597.75      51.750998      51.750998      51.750998      0.59999999    -872.34138     -940.63382     -678.67794    
     82000   41000          356.55387     -912.19192      29796.342      31640.161      7991.3387      23648.823      4341.2495      7223.3541     -1702.8712      230.56991      1140.3148      42146.761     -29730.555     -283.18806      138597.75      51.750998      51.750998      51.750998      0.59999999    -1241.8207     -470.09256     -1024.6625    
     83000   41500          354.18434     -1058.9682      29325.003      31465.502      7938.2311      23527.271      4218.1323      7204.3989     -1671.0714      255.63595      1145.693       42113.132     -29738.65      -283.18806      138597.75      51.750998      51.750998      51.750998      0.59999999    -796.19146     -967.58706     -1413.1261    
     84000   42000          348.96358     -497.98829      30497.668      31504.255      7821.2198      23683.035      4346.9323      7266.0186     -1687.2274      221.3467       1145.5596      42130.383     -29739.978     -283.18806      138597.75      51.750998      51.750998      51.750998      0.59999999    -217.71709     -1070.2405     -206.0073     
     85000   42500          355.50561     -948.8267       29765.396      31683.265      7967.8443      23715.42       4478.955       7152.5585     -1752.9077      241.47464      1208.298       42124.225     -29737.183     -283.18806      138597.75      51.750998      51.750998      51.750998      0.59999999    -1765.7116     -808.91162     -271.85682    
     86000   43000          359.15083     -1215.8308      29231.47       31689.036      8049.5438      23639.492      4371.1731      7141.1235     -1678.8447      240.46045      1169.9512      42127.859     -29732.23      -283.18806      138597.75      51.750998      51.750998      51.750998      0.59999999    -1349.5196     -1103.5838     -1194.3891    
     87000   43500          353.17516     -1519.648       28529.979      31601.653      7915.6127      23686.04       4382.5896      7233.0784     -1746.1817      218.76869      1181.0967      42149.124     -29732.435     -283.18806      138597.75      51.750998      51.750998      51.750998      0.59999999    -921.70891     -2573.7235     -1063.5115    
     88000   44000          353.75156     -1223.2382      29247.976      31720.515      7928.5315      23791.983      4443.8042      7254.4829     -1686.8809      257.53881      1173.5403      42090.016     -29740.518     -283.18806      138597.75      51.750998      51.750998      51.750998      0.59999999    -1238.2541     -666.95299     -1764.5074    
     89000   44500          367.36846     -229.99771      31448.967      31913.863      8233.723       23680.14       4303.7222      7212.1603     -1659.094       233.01818      1192.2617      42130.274     -29732.202     -283.18806      138597.75      51.750998      51.750998      51.750998      0.59999999    -174.88805      172.48208     -687.58717    
     90000   45000          360.31169     -106.57608      31618.595      31834.018      8075.5617      23758.456      4352.0951      7234.375      -1712.5254      233.6029       1230.7319      42153.234     -29733.057     -283.18806      138597.75      51.750998      51.750998      51.750998      0.59999999     165.34812     -1324.3251      839.2487     
     91000   45500          360.47594     -557.96991      30798.069      31925.897      8079.243       23846.654      4426.3579      7338.1762     -1729.869       227.95581      1207.5027      42116.205     -29739.674     -283.18806      138597.75      51.750998      51.750998      51.750998      0.59999999    -94.549957     -986.06349     -593.29628    
     92000   46000          356.90025     -330.36438      31059.199      31726.966      7999.102       23727.864      4338.877       7261.7437     -1686.9657      233.5154       1185.5309      42128.619     -29733.457     -283.18806      138597.75      51.750998      51.750998      51.750998      0.59999999    -599.54378     -171.94626     -219.60309    
     93000   46500          357.14729     -910.55723      29818.308      31658.822      8004.639       23654.183      4333.7065      7167.4882     -1628.5062      236.14952      1150.2228      42132.763     -29737.641     -283.18806      138597.75      51.750998      51.750998      51.750998      0.59999999    -405.23361     -878.81991     -1447.6182    
     94000   47000          360.21077     -933.19232      29907.928      31794.195      8073.2998      23720.895      4444.6865      7321.2489     -1725.3876      227.45502      1065.3343      42126.81      -29739.251     -283.18806      138597.75      51.750998      51.750998      51.750998      0.59999999    -920.78608     -287.1904      -1591.6005    
     95000   47500          366.05663     -470.72285      31015.103      31966.578      8204.3214      23762.256      4453.0468      7274.7851     -1687.8079      245.01851      1086.3369      42131.321     -29740.444     -283.18806      138597.75      51.750998      51.750998      51.750998      0.59999999    -543.49396     -454.57242     -414.10215    
     96000   48000          367.66103     -110.8635       31834.11       32058.199      8240.2804      23817.919      4392.7554      7274.3724     -1657.7128      232.52507      1162.05        42146.93      -29733.002     -283.18806      138597.75      51.750998      51.750998      51.750998      0.59999999     594.37978     -155.40161     -771.56867    
     97000   48500          363.13077     -624.93319      30672.086      31935.267      8138.745       23796.522      4304.7966      7327.3247     -1732.7334      236.77438      1264.9382      42135.8       -29740.378     -283.18806      138597.75      51.750998      51.750998      51.750998      0.59999999    -151.70987     -736.65417     -986.43553    
     98000   49000          361.78607     -32.100365      31783.584      31848.469      8108.6065      23739.862      4355.5256      7260.5899     -1700.0325      239.00681      1194.5154      42132.059     -29741.802     -283.18806      138597.75      51.750998      51.750998      51.750998      0.59999999     1025.1542     -1034.8548     -86.600471    
     99000   49500          367.46226     -335.85486      31411.451      32090.317      8235.8253      23854.491      4457.2934      7192.0204     -1649.3604      231.21045      1230.666       42132.699     -29740.037     -283.18806      138597.75      51.750998      51.750998      51.750998      0.59999999     256.06275     -178.78679     -1084.8405    
    100000   50000          362.46329     -787.74968      30338.767      31931.05       8123.7848      23807.265      4470.3957      7167.6794     -1660.4038      234.35628      1182.0949      42141.244     -29728.101     -283.18806      138597.75      51.750998      51.750998      51.750998      0.59999999    -865.12896     -267.63432     -1230.4858    
    101000   50500          368.84633     -366.47343      31354.112      32094.867      8266.8462      23828.021      4457.6146      7205.4015     -1650.0617      219.74891      1193.9429      42138.587     -29737.212     -283.18806      138597.75      51.750998      51.750998      51.750998      0.59999999    -617.35308     -994.50264      512.43542    
    102000   51000          373.36541      131.98632      32536.672      32269.887      8368.1309      23901.756      4467.5114      7385.5745     -1710.4041      224.35186      1147.5008      42127.157     -29739.935     -283.18806      138597.75      51.750998      51.750998      51.750998      0.59999999     844.86966     -234.84325     -214.06744    
    103000   51500          369.12368      69.159608      32210.089      32070.296      8273.0623      23797.234      4310.1521      7278.596      -1667.7684      233.50386      1245.8345      42140.871     -29743.955     -283.18806      138597.75      51.750998      51.750998      51.750998      0.59999999     262.32405      229.79795     -284.64317    
    104000   52000          369.38831      244.12386      32548.913      32055.464      8278.9934      23776.471      4361.2494      7399.8536     -1721.8865      233.09744      1120.4333      42127.832     -29744.108     -283.18806      138597.75      51.750998      51.750998      51.750998      0.59999999     291.81061     -554.71663      995.27761    
    105000   52500          367.26104     -294.75524      31571.464      32167.255      8231.3155      23935.939      4489.8001      7343.8338     -1678.6671      234.08336      1159.956       42127.265     -29740.332     -283.18806      138597.75      51.750998      51.750998      51.750998      0.59999999    -83.521344     -886.27909      85.534723    
    106000   53000          362.74605     -136.47316      31735.595      32011.449      8130.1224      23881.326      4485.9515      7283.1203     -1655.1455      240.46131      1113.0675      42158.015     -29744.144     -283.18806      138597.75      51.750998      51.750998      51.750998      0.59999999     248.11597     -838.56022      181.02478    
    107000   53500          373.64653     -817.22824      30684.682      32336.551      8374.4317      23962.119      4392.104       7375.7502     -1689.1267      239.89416      1248.4072      42144.329     -29749.238     -283.18806      138597.75      51.750998      51.750998      51.750998      0.59999999    -1065.7774     -461.71998     -924.18734    
    108000   54000          376.30124     -315.64863      31619.671      32257.694      8433.9308      23823.763      4438.8781      7305.428      -1672.6229      233.06054      1131.657       42129.147     -29741.784     -283.18806      138597.75      51.750998      51.750998      51.750998      0.59999999     87.282836     -390.75548     -643.47324    
    109000   54500          373.42111     -360.67339      31552.401      32281.432      8369.3793      23912.053      4459.7773      7325.6194     -1681.7323      229.7098       1196.6091      42124.497     -29742.427     -283.18806      138597.75      51.750998      51.750998      51.750998      0.59999999    -451.60535     -966.10424      335.68943    
    110000   55000          370.40498     -390.87886      31565.386      32355.471      8301.7797      24053.692      4484.1923      7469.6638     -1668.6332      248.11104      1159.1273      42106.138     -29744.908     -283.18806      138597.75      51.750998      51.750998      51.750998      0.59999999    -58.708108     -904.0008      -209.92769    
    111000   55500          371.73243     -1184.989       29899.396      32294.622      8331.5315      23963.09       4561.6861      7284.4537     -1638.4472      238.02576      1154.9341      42105.031     -29742.593     -283.18806      138597.75      51.750998      51.750998      51.750998      0.59999999    -902.4         -1047.3086     -1605.2583    
    112000   56000          374.31979     -349.96795      31814.727      32522.119      8389.5211      24132.598      4448.1005      7442.4919     -1606.0882      224.03995      1217.1453      42146.925     -29740.016     -283.18806      138597.75      51.750998      51.750998      51.750998      0.59999999    -609.56738     -188.30213     -252.03434    
    113000   56500          371.27847     -13.185807      32239.892      32266.544      8321.357       23945.187      4436.1317      7407.8542     -1674.5224      243.33851      1117.5004      42153.542     -29738.657     -283.18806      138597.75      51.750998      51.750998      51.750998      0.59999999    -443.23752     -23.292552      426.97265    
    114000   57000          377.76795      190.95201      32955.109      32569.136      8466.8037      24102.333      4456.3586      7455.5316     -1659.1694      241.25737      1195.2576      42151.166     -29738.069     -283.18806      138597.75      51.750998      51.750998      51.750998      0.59999999    -174.46013      291.55619      455.75998    
    115000   57500          376.31454     -600.93119      31277.962      32492.628      8434.229       24058.399      4508.052       7408.0623     -1655.0232      228.36328      1177.3073      42133.036     -29741.399     -283.18806      138597.75      51.750998      51.750998      51.750998      0.59999999    -327.26223     -1097.8651     -377.66627    
    116000   58000          369.39733     -520.16698      31217.029      32268.446      8279.1956      23989.25       4531.2766      7325.4616     -1679.2769      249.13089      1185.0155      42126.974     -29749.331     -283.18806      138597.75      51.750998      51.750998      51.750998      0.59999999    -547.1501      -818.81324     -194.53761    
    117000   58500          377.1869      -393.00425      31693.755      32488.137      8453.781       24034.356      4421.9044      7396.1358     -1684.7681      246.74311      1248.0225      42140.05      -29733.732     -283.18806      138597.75      51.750998      51.750998      51.750998      0.59999999    -694.20287     -736.77865      251.96876    
    118000   59000          377.58535     -899.69913      30898.419      32716.986      8462.7113      24254.275      4644.2663      7512.0134     -1689.7954      257.82572      1160.3077      42111.123     -29741.466     -283.18806      138597.75      51.750998      51.750998      51.750998      0.59999999    -1261.7819     -403.37135     -1033.9442    
    119000   59500          377.09852     -422.81473      31601.957      32456.595      8451.8         24004.795      4531.074       7367.0578     -1673.6736      233.20014      1204.3028      42092.801     -29749.967     -283.18806      138597.75      51.750998      51.750998      51.750998      0.59999999    -79.508482     -301.1887      -887.74702    
    120000   60000          377.61117     -662.81072      31193.321      32533.065      8463.29        24069.775      4519.3748      7414.7767     -1677.3321      235.981        1178.784       42142.159     -29743.968     -283.18806      138597.75      51.750998      51.750998      51.750998      0.59999999    -1052.3758     -44.107649     -891.94875    
    121000   60500          384.26981     -757.91501      31162.818      32694.796      8612.5281      24082.268      4518.2451      7425.3466     -1660.1239      238.05058      1174.4995      42121.838     -29735.588     -283.18806      138597.75      51.750998      51.750998      51.750998      0.59999999    -112.61423     -222.83122     -1938.2996    
    122000   61000          384.63582     -338.35897      32004.239      32688.166      8620.7313      24067.434      4486.6234      7354.3957     -1704.6412      264.05947      1263.073       42136.813     -29732.889     -283.18806      138597.75      51.750998      51.750998      51.750998      0.59999999     262.87437     -746.59216     -531.35913    
    123000   61500          371.70315     -852.33504      30733.291      32456.121      8330.8753      24125.246      4630.4337      7431.9222     -1692.1136      238.09062      1140.5815      42120.17      -29743.838     -283.18806      138597.75      51.750998      51.750998      51.750998      0.59999999    -1266.7596     -1306.3948      16.149285    
    124000   62000          383.90178     -26.495361      32753.456      32807.011      8604.2796      24202.732      4536.7663      7544.721      -1681.3961      233.9041       1187.2576      42126.171     -29744.692     -283.18806      138597.75      51.750998      51.750998      51.750998      0.59999999     42.00534       476.54141     -598.03283    
    125000   62500          381.32973     -58.009331      32510.055      32627.31       8546.633       24080.677      4533.1986      7359.1369     -1669.484       236.34471      1250.7898      42118.457     -29747.766     -283.18806      138597.75      51.750998      51.750998      51.750998      0.59999999    -550.4299       55.712625      320.68928    
    126000   63000          375.73231     -344.29897      32047.667      32743.6        8421.1796      24322.421      4610.3689      7462.769      -1677.4978      252.25008      1308.1488      42114.296     -29747.915     -283.18806      138597.75      51.750998      51.750998      51.750998      0.59999999     833.58478     -691.4457      -1175.036     
    127000   63500          383.47593     -568.78533      31629.621      32779.31       8594.7351      24184.575      4557.337       7454.8946     -1621.5494      253.64003      1164.4623      42114.732     -29738.942     -283.18806      138597.75      51.750998      51.750998      51.750998      0.59999999    -252.36326     -580.3123      -873.68044    
    128000   64000          386.81304     -597.93156      31620.124      32828.727      8669.5288      24159.198      4539.5798      7511.2424     -1689.0003      259.81729      1137.2244      42140.803     -29740.469     -283.18806      138597.75      51.750998      51.750998      51.750998      0.59999999    -234.12817     -723.17549     -836.49103    
    129000   64500          385.58473     -1324.7896      30220.901      32898.706      8641.9991      24256.707      4620.1165      7497.7291     -1615.1802      232.01085      1146.3486      42118.284     -29742.602     -283.18806      138597.75      51.750998      51.750998      51.750998      0.59999999    -2022.7554     -1381.1583     -570.45514    
    130000   65000          384.16995     -481.28705      31968.815      32941.644      8610.29        24331.354      4670.1254      7587.8357     -1698.7346      241.75973      1160.7538      42110.507     -29740.893     -283.18806      138597.75      51.750998      51.750998      51.750998      0.59999999    -1024.9302     -131.86225     -287.0687     
    131000   65500          382.90238     -813.33377      31177.055      32821.051      8581.8804      24239.171      4635.3656      7437.1545     -1662.9164      244.29604      1208.1572      42119.6       -29742.486     -283.18806      138597.75      51.750998      51.750998      51.750998      0.59999999    -249.55822     -936.82509     -1253.618     
    132000   66000          392.56976     -564.51736      31925.181      33066.243      8798.5526      24267.691      4509.2228      7579.7653     -1638.2535      245.15402      1193.386       42123.312     -29744.896     -283.18806      138597.75      51.750998      51.750998      51.750998      0.59999999    -661.6462      -468.27076     -563.63511    
    133000   66500          385.35831     -848.45817      31242.82       32957.814      8636.9244      24320.89       4668.1592      7507.0299     -1637.0555      253.54992      1168.7538      42106.659     -29746.207     -283.18806      138597.75      51.750998      51.750998      51.750998      0.59999999    -900.67025     -351.87134     -1292.8329    
    134000   67000          382.51914      3.1423         32843.089      32836.738      8573.2907      24263.447      4609.4156      7529.5247     -1687.7415      246.67106      1169.9591      42132.776     -29737.157     -283.18806      138597.75      51.750998      51.750998      51.750998      0.59999999    -25.110286      179.33447     -144.79728    
    135000   67500          389.74536     -985.37874      30984.043      32975.795      8735.25        24240.545      4609.2487      7425.3146     -1577.1112      244.73497      1151.4618      42130.197     -29743.301     -283.18806      138597.75      51.750998      51.750998      51.750998      0.59999999    -758.3488      -1016.2432     -1181.5443    
    136000   68000          390.58144     -128.79426      32899.852      33160.185      8753.9889      24406.196      4692.7695      7495.6264     -1633.8021      252.7844       1211.9345      42127.636     -29740.753     -283.18806      138597.75      51.750998      51.750998      51.750998      0.59999999     314.84608     -610.72743     -90.501439    
    137000   68500          384.0905      -225.86551      32520.239      32976.783      8608.5092      24368.273      4545.8288      7589.5052     -1656.0011      244.27641      1245.2494      42142.741     -29743.326     -283.18806      138597.75      51.750998      51.750998      51.750998      0.59999999    -125.33196      230.4074      -782.67196    
    138000   69000          391.90088      58.291828      33264.7        33146.874      8783.561       24363.313      4630.4432      7436.0445     -1541.6623      246.59251      1204.9759      42128.77      -29741.851     -283.18806      138597.75      51.750998      51.750998      51.750998      0.59999999     60.913381      519.6925      -405.7304     
    139000   69500          392.10906     -384.2484       32236.935      33013.618      8788.227       24225.391      4636.4011      7383.0549     -1636.7491      260.73446      1181.7568      42145.785     -29745.591     -283.18806      138597.75      51.750998      51.750998      51.750998      0.59999999    -143.42869     -1087.862       78.545493    
    140000   70000          398.15606     -54.96212       33326.678      33437.773      8923.7566      24514.016      4762.3426      7451.2207     -1607.6754      260.147        1258.0237      42134.054     -29744.096     -283.18806      138597.75      51.750998      51.750998      51.750998      0.59999999    -78.980645      718.38592     -804.29163    
    141000   70500          396.45909     -251.76281      32806.335      33315.225      8885.723       24429.502      4655.913       7464.0175     -1561.0688      279.60926      1202.3158      42135.981     -29747.265     -283.18806      138597.75      51.750998      51.750998      51.750998      0.59999999    -26.106898      703.3689      -1432.5504    
    142000   71000          391.05823     -738.48641      31726.405      33219.113      8764.675       24454.437      4733.6839      7514.4627     -1580.7187      260.77324      1164.6599      42102.977     -29741.4       -283.18806      138597.75      51.750998      51.750998      51.750998      0.59999999    -641.5556      -333.81563     -1240.088     
    143000   71500          393.96114     -1142.1242      30985.356      33293.938      8829.7371      24464.201      4745.6052      7614.2147     -1647.0025      237.59149      1109.7155      42141.856     -29737.779     -283.18806      138597.75      51.750998      51.750998      51.750998      0.59999999    -1143.7825     -1305.9878     -976.60231    
    144000   72000          394.75637     -1183.2425      30885.895      33277.591      8847.5604      24430.03       4706.9243      7505.5749     -1592.0607      257.21493      1169.8494      42127.795     -29745.267     -283.18806      138597.75      51.750998      51.750998      51.750998      0.59999999    -1382.3387     -1172.8809     -994.50792    
    145000   72500          395.0071      -361.66574      32400.969      33132.006      8853.18        24278.826      4676.207       7463.6653     -1677.2009      235.74851      1184.089       42134.124     -29737.807     -283.18806      138597.75      51.750998      51.750998      51.750998      0.59999999    -1188.8539     -32.418439      136.27515    
    146000   73000          403.44605     -1277.3037      30919.845      33501.666      9042.3197      24459.347      4748.3212      7498.6929     -1644.5756      256.32316      1208.9827      42132.488     -29740.886     -283.18806      138597.75      51.750998      51.750998      51.750998      0.59999999    -1743.0912     -1102.9355     -985.88435    
    147000   73500          399.14929      173.7094       33921.162      33570.042      8946.0176      24624.025      4793.3828      7603.272      -1607.9896      269.15377      1186.6053      42125.758     -29746.158     -283.18806      138597.75      51.750998      51.750998      51.750998      0.59999999    -167.56066      674.85495      13.833922    
    148000   74000          396.98944     -289.36047      32700.933      33285.819      8897.6096      24388.21       4694.4082      7548.1054     -1666.9639      244.05814      1193.8026      42117.608     -29742.808     -283.18806      138597.75      51.750998      51.750998      51.750998      0.59999999    -816.2594      -99.389556      47.567538    
    149000   74500          397.93464     -980.2993       31505.145      33486.63       8918.794       24567.836      4732.7253      7655.3404     -1603.7019      246.55914      1185.6139      42095.623     -29744.324     -283.18806      138597.75      51.750998      51.750998      51.750998      0.59999999    -838.54588     -318.11311     -1784.2389    
    150000   75000          395.344       -202.47375      32882.881      33292.143      8860.7307      24431.412      4650.6367      7532.1776     -1684.7855      262.32051      1269.9181      42143.649     -29742.504     -283.18806      138597.75      51.750998      51.750998      51.750998      0.59999999    -640.93344     -185.14119      218.65338    
[...]
    455000   227500         611.89316      70.109028      43166.107      43024.395      13714.184      29310.211      6587.9435      9576.7589     -1404.2089      360.75425      1746.8071      42154.418     -29712.262     -283.18806      138597.75      51.750998      51.750998      51.750998      0.59999999    -544.07885     -459.46114      1213.8671    
    456000   228000         600.45411     -749.7018       41011.003      42526.38       13457.804      29068.576      6684.9939      9389.2863     -1520.3434      337.20573      1752.3951      42133.789     -29708.751     -283.18806      138597.75      51.750998      51.750998      51.750998      0.59999999    -871.30908      107.40693     -1485.2032    
    457000   228500         597.42739     -1666.0037      39485.835      42853.338      13389.967      29463.371      6736.0878      9726.084      -1455.8813      363.06924      1681.6715      42126.236     -29713.897     -283.18806      138597.75      51.750998      51.750998      51.750998      0.59999999    -955.46059     -1564.4352     -2478.1152    
    458000   229000         604.46289      955.53878      44747.353      42815.916      13547.652      29268.265      6518.676       9552.6809     -1387.6075      320.71941      1818.9207      42156.384     -29711.509     -283.18806      138597.75      51.750998      51.750998      51.750998      0.59999999     256.5286       1164.8288      1445.2589    
    459000   229500         596.71685     -370.46875      41961.627      42710.457      13374.042      29336.415      6614.2523      9608.834      -1400.1423      364.15295      1759.863       42105.317     -29715.862     -283.18806      138597.75      51.750998      51.750998      51.750998      0.59999999    -617.3686      -364.0911      -129.94656    
    460000   230000         602.45024     -293.41273      42332.738      42925.814      13502.543      29423.271      6753.8633      9566.1684     -1420.1042      377.11175      1763.3121      42104.389     -29721.469     -283.18806      138597.75      51.750998      51.750998      51.750998      0.59999999    -724.17941     -465.41052      309.35175    
    461000   230500         603.3558       17.669521      42649.393      42613.677      13522.839      29090.838      6582.519       9532.1668     -1486.0781      340.34179      1691.2824      42136.101     -29705.494     -283.18806      138597.75      51.750998      51.750998      51.750998      0.59999999     193.87971      646.22809     -787.09924    
    462000   231000         608.51711     -435.37507      42018.688      42898.715      13638.518      29260.197      6587.5169      9576.4152     -1476.1107      370.91234      1811.3624      42115.5       -29725.399     -283.18806      138597.75      51.750998      51.750998      51.750998      0.59999999    -961.09739     -732.13704      387.10923    
    463000   231500         602.20835     -352.92178      41930.972      42644.335      13497.122      29147.213      6523.1831      9492.5439     -1476.2211      358.72588      1826.5087      42135.656     -29713.183     -283.18806      138597.75      51.750998      51.750998      51.750998      0.59999999    -284.12528     -279.80447     -494.83559    
    464000   232000         606.62442     -920.72767      41097.564      42958.636      13596.098      29362.539      6694.7155      9533.9468     -1433.0733      349.58077      1833.0697      42111.285     -29726.986     -283.18806      138597.75      51.750998      51.750998      51.750998      0.59999999    -1383.7992     -279.93802     -1098.4458    
    465000   232500         602.97613     -791.0353       41050.238      42649.162      13514.33       29134.832      6643.964       9454.743      -1419.4767      331.2876       1706.314       42130.498     -29712.497     -283.18806      138597.75      51.750998      51.750998      51.750998      0.59999999    -900.75378     -534.00766     -938.34445    
    466000   233000         611.89767     -1421.3505      40110.281      42983.265      13714.286      29268.98       6739.1246      9599.5884     -1474.4929      361.62961      1661.8883      42103.175     -29721.933     -283.18806      138597.75      51.750998      51.750998      51.750998      0.59999999    -2572.9114      772.38178     -2463.5218    
    467000   233500         617.12344     -937.09235      41268.541      43162.691      13831.409      29331.282      6704.7131      9519.4459     -1354.3422      375.36318      1686.1856      42108.718     -29708.802     -283.18806      138597.75      51.750998      51.750998      51.750998      0.59999999    -2265.2418      103.74739     -649.78259    
    468000   234000         597.99377     -144.85156      42388.276      42681.065      13402.661      29278.404      6757.1466      9487.9407     -1460.5495      345.91524      1726.6054      42131.736     -29710.391     -283.18806      138597.75      51.750998      51.750998      51.750998      0.59999999    -476.94233     -339.86478      382.25242    
    469000   234500         605.16709      367.7118       43530.919      42787.66       13563.435      29224.226      6646.3268      9540.3757     -1371.4304      330.91565      1670.3192      42118.535     -29710.816     -283.18806      138597.75      51.750998      51.750998      51.750998      0.59999999     298.82954      452.59089      351.71498    
    470000   235000         616.02655      64.929674      43378.027      43246.785      13806.825      29439.96       6608.7608      9661.5808     -1398.3878      370.43084      1769.1265      42141.063     -29712.615     -283.18806      138597.75      51.750998      51.750998      51.750998      0.59999999     737.06523      89.457759     -631.73397    
    471000   235500         610.93722     -1555.8856      39956.084      43101.005      13692.759      29408.246      6697.9632      9753.8717     -1379.7966      341.12074      1601.6093      42102.823     -29709.345     -283.18806      138597.75      51.750998      51.750998      51.750998      0.59999999    -2055.4165     -1720.3131     -891.92709    
    472000   236000         611.01964      726.61944      44384.472      42915.752      13694.606      29221.146      6566.0173      9636.4775     -1546.4427      350.09245      1782.2863      42146.529     -29713.814     -283.18806      138597.75      51.750998      51.750998      51.750998      0.59999999     112.14824      942.22779      1125.4823    
    473000   236500         610.41188     -484.51927      42158.676      43138.038      13680.985      29457.053      6665.624       9747.5358     -1502.5671      354.92664      1778.4485      42118.521     -29705.436     -283.18806      138597.75      51.750998      51.750998      51.750998      0.59999999    -728.89097     -673.58688     -51.079955    
    474000   237000         608.49222     -753.86696      41389.301      42913.097      13637.96       29275.137      6661.4294      9617.4249     -1416.8176      348.20641      1669.8432      42104.37      -29709.319     -283.18806      138597.75      51.750998      51.750998      51.750998      0.59999999     41.751314     -1161.8163     -1141.5359    
    475000   237500         621.24372     -728.31527      41786.127      43258.275      13923.756      29334.52       6575.3592      9660.6808     -1431.1564      365.53         1722.586       42142.837     -29701.317     -283.18806      138597.75      51.750998      51.750998      51.750998      0.59999999    -766.87658     -2014.8583      596.78909    
    476000   238000         616.01697      267.0323       43624.855      43085.101      13806.61       29278.491      6492.82        9676.0454     -1411.2251      310.51898      1779.256       42131.2       -29700.124     -283.18806      138597.75      51.750998      51.750998      51.750998      0.59999999    -357.62898      190.55963      968.16626    
    477000   238500         617.43419     -44.926651      43123.446      43214.256      13838.374      29375.882      6651.8681      9532.9909     -1368.9679      367.8941       1770.1295      42133.528     -29711.56      -283.18806      138597.75      51.750998      51.750998      51.750998      0.59999999     195.89567     -158.26387     -172.41175    
    478000   239000         609.81507      6.8649374      43153.334      43139.458      13667.609      29471.849      6637.839       9747.6376     -1427.4411      364.09862      1719.2862      42140.58      -29710.151     -283.18806      138597.75      51.750998      51.750998      51.750998      0.59999999    -177.1615      -321.04291      518.79923    
    479000   239500         614.18306      236.5141       43748.842      43270.775      13765.507      29505.268      6738.5468      9579.6364     -1367.1085      369.37877      1780.6892      42121.591     -29717.466     -283.18806      138597.75      51.750998      51.750998      51.750998      0.59999999     942.60372     -162.80241     -70.259006    
    480000   240000         615.46313     -417.86729      42526.883      43371.52       13794.197      29577.323      6780.1397      9565.1766     -1347.1408      373.45883      1783.2184      42134.405     -29711.934     -283.18806      138597.75      51.750998      51.750998      51.750998      0.59999999    -60.505676     -914.40419     -278.69199    
    481000   240500         626.82401      71.530347      43940.413      43795.828      14048.825      29747.003      6850.3504      9879.676      -1476.0936      341.35482      1722.8404      42133.278     -29704.404     -283.18806      138597.75      51.750998      51.750998      51.750998      0.59999999     770.94401     -860.3436       303.99063    
    482000   241000         622.92876     -898.47437      41617.006      43433.097      13961.522      29471.575      6807.7937      9635.2464     -1441.6477      352.97336      1692.0808      42132.373     -29707.245     -283.18806      138597.75      51.750998      51.750998      51.750998      0.59999999    -1322.4854     -631.78205     -741.15564    
    483000   241500         619.87396     -313.99277      42762.074      43396.75       13893.056      29503.694      6709.9447      9619.915      -1351.8358      350.86361      1750.5925      42129.968     -29705.754     -283.18806      138597.75      51.750998      51.750998      51.750998      0.59999999    -682.17054      148.64538     -408.45315    
    484000   242000         629.15845     -446.74444      43015.077      43918.084      14101.146      29816.937      6845.2524      9850.7119     -1411.4484      357.9395       1729.8838      42150.668     -29706.069     -283.18806      138597.75      51.750998      51.750998      51.750998      0.59999999    -111.86084     -1219.6168     -8.7556829    
    485000   242500         616.7344      -501.90627      42655.051      43669.557      13822.69       29846.867      6775.633       9869.6479     -1394.1001      362.94884      1787.7109      42150.233     -29705.206     -283.18806      138597.75      51.750998      51.750998      51.750998      0.59999999    -707.18944     -299.70864     -498.82074    
    486000   243000         614.70001     -615.98381      42196.615      43441.707      13777.094      29664.614      6814.8656      9700.7185     -1465.7833      447.18015      1762.501       42126.315     -29721.183     -283.18806      138597.75      51.750998      51.750998      51.750998      0.59999999    -469.41509     -856.7335      -521.80285    
    487000   243500         625.0935      -136.10368      43293.342      43568.449      14010.04       29558.409      6685.6615      9756.7658     -1459.4616      375.99477      1763.4604      42142.349     -29706.36      -283.18806      138597.75      51.750998      51.750998      51.750998      0.59999999    -194.37813     -254.2079       40.274989    
    488000   244000         619.5752      -902.39286      41869.64       43693.652      13886.36       29807.292      6839.3349      9777.1928     -1554.0412      376.97312      1927.966       42137.5       -29697.633     -283.18806      138597.75      51.750998      51.750998      51.750998      0.59999999    -326.61341     -1105.0761     -1275.4891    
    489000   244500         616.00494     -579.5518       42384.32       43555.771      13806.341      29749.431      6950.2119      9694.0157     -1370.1618      336.01809      1702.4618      42137.743     -29700.858     -283.18806      138597.75      51.750998      51.750998      51.750998      0.59999999    -696.4002      -1312.9419      270.68666    
    490000   245000         620.70904      507.83178      44629.355      43602.871      13911.772      29691.099      6930.8276      9594.6681     -1521.8891      378.69549      1895.7504      42130.64      -29717.593     -283.18806      138597.75      51.750998      51.750998      51.750998      0.59999999    -369.34592      1224.6463      668.19501    
    491000   245500         626.72589     -987.47792      41899.076      43895.071      14046.626      29848.445      6840.924       9909.0711     -1413.1555      342.05999      1730.19        42140.031     -29700.676     -283.18806      138597.75      51.750998      51.750998      51.750998      0.59999999    -910.65845     -1200.7325     -851.04279    
    492000   246000         621.27983      443.0387       44532.611      43637.094      13924.565      29712.529      6860.7945      9788.2858     -1479.9131      337.79828      1771.3121      42142.534     -29708.283     -283.18806      138597.75      51.750998      51.750998      51.750998      0.59999999     423.82384     -107.15146      1012.4437    
    493000   246500         631.49483      218.2361       44228.049      43786.927      14153.511      29633.417      6672.8054      9814.5341     -1423.5383      345.31703      1801.5775      42130.87      -29708.149     -283.18806      138597.75      51.750998      51.750998      51.750998      0.59999999     1030.2255      278.07591     -653.59314    
    494000   247000         636.38799     -974.66445      42199.901      44169.996      14263.18       29906.816      6941.5932      9915.6507     -1445.8277      341.56411      1729.8989      42134.553     -29710.615     -283.18806      138597.75      51.750998      51.750998      51.750998      0.59999999    -936.52356     -893.68787     -1093.7819    
    495000   247500         628.08398     -198.50487      43466.88       43868.119      14077.065      29791.054      6724.4019      9848.5387     -1492.1481      386.04247      1896.1265      42133.207     -29705.114     -283.18806      138597.75      51.750998      51.750998      51.750998      0.59999999     307.80555     -800.75003     -102.57014    
    496000   248000         625.90305     -389.71028      42975.886      43763.61       14028.184      29735.426      6884.3989      9828.3719     -1556.8263      328.70014      1826.5636      42125.692     -29701.474     -283.18806      138597.75      51.750998      51.750998      51.750998      0.59999999    -117.00184     -599.22301     -452.906      
    497000   248500         631.36775     -1197.6184      41768.313      44189.067      14150.663      30038.404      7027.2943      9872.3223     -1492.4271      369.66539      1864.1427      42103.913     -29706.507     -283.18806      138597.75      51.750998      51.750998      51.750998      0.59999999    -577.70609     -1051.6861     -1963.4629    
    498000   249000         633.18058     -1042.3027      41986.202      44093.015      14191.293      29901.722      6975.2464      9766.3207     -1474.4453      352.73795      1859.7555      42136.707     -29714.6       -283.18806      138597.75      51.750998      51.750998      51.750998      0.59999999    -1480.1115     -1066.8603     -579.93618    
    499000   249500         626.94655      904.49091      45282.264      43454.011      14051.572      29402.439      6621.6199      9640.6045     -1510.9339      394.14791      1852.4166      42114.996     -29710.412     -283.18806      138597.75      51.750998      51.750998      51.750998      0.59999999     1473.0875      376.68156      863.70363    
    500000   250000         628.38674     -149.33002      43833.267      44135.109      14083.85       30051.258      6964.7265      9943.3223     -1478.7136      358.03116      1859.5882      42120.479     -29716.175     -283.18806      138597.75      51.750998      51.750998      51.750998      0.59999999    -702.12283      352.20181     -98.069048    
Loop time of 1667.19 on 1 procs for 500000 steps with 7520 atoms

Performance: 12.956 ns/day, 1.852 hours/ns, 299.907 timesteps/s, 2.255 Matom-step/s
99.9% CPU use with 1 MPI tasks x 1 OpenMP threads

MPI task timing breakdown:
Section |  min time  |  avg time  |  max time  |%varavg| %total
---------------------------------------------------------------
Pair    | 9.9873     | 9.9873     | 9.9873     |   0.0 |  0.60
Bond    | 834.67     | 834.67     | 834.67     |   0.0 | 50.06
Kspace  | 631.93     | 631.93     | 631.93     |   0.0 | 37.90
Neigh   | 79.611     | 79.611     | 79.611     |   0.0 |  4.78
Comm    | 13.313     | 13.313     | 13.313     |   0.0 |  0.80
Output  | 8.1938     | 8.1938     | 8.1938     |   0.0 |  0.49
Modify  | 72.135     | 72.135     | 72.135     |   0.0 |  4.33
Other   |            | 17.35      |            |       |  1.04

Nlocal:           7520 ave        7520 max        7520 min
Histogram: 1 0 0 0 0 0 0 0 0 0
Nghost:          14722 ave       14722 max       14722 min
Histogram: 1 0 0 0 0 0 0 0 0 0
Neighs:              0 ave           0 max           0 min
Histogram: 1 0 0 0 0 0 0 0 0 0
FullNghs:  3.14843e+06 ave 3.14843e+06 max 3.14843e+06 min
Histogram: 1 0 0 0 0 0 0 0 0 0

Total # of neighbors = 3148428
Ave neighs/atom = 418.67394
Ave special neighs/atom = 5.7207447
Neighbor list builds = 13356
Dangerous builds = 0

# --- Cleanup ---
unfix nvt_fix

undump dump_nvt

# --- Write Output ---
write_dump all custom nvt_softheat_last.dump id type mol x y z xu yu zu vx vy vz modify sort id
write_data /home/arz2/PolyJarvis/data/PMMA2/lammps/equil/nvt_softheat/nvt_softheat_out.data
System init for write_data ...
PPPM Kokkos initialization ...
  using 12-bit tables for long-range coulomb
  G vector (1/distance) = 0.32196359
  grid = 48 48 48
  stencil order = 5
  estimated absolute RMS force accuracy = 0.00040437164
  estimated relative force accuracy = 1.2177532e-06
  using double precision cuFFT
  3d grid and FFT values/proc = 166375 110592
Generated 15 of 15 mixed pair_coeff terms from sixthpower/sixthpower mixing rule

print "STAGE COMPLETE: NVT T=300.0->630.0K steps=500000"
STAGE COMPLETE: NVT T=300.0->630.0K steps=500000
quit
.35      |            |       |  1.04

Nlocal:           7520 ave        7520 max        7520 min
Histogram: 1 0 0 0 0 0 0 0 0 0
Nghost:          14722 ave       14722 max       14722 min
Histogram: 1 0 0 0 0 0 0 0 0 0
Neighs:              0 ave           0 max           0 min
Histogram: 1 0 0 0 0 0 0 0 0 0
FullNghs:  3.14843e+06 ave 3.14843e+06 max 3.14843e+06 min
Histogram: 1 0 0 0 0 0 0 0 0 0

Total # of neighbors = 3148428
Ave neighs/atom = 418.67394
Ave special neighs/atom = 5.7207447
Neighbor list builds = 13356
Dangerous builds = 0
System init for write_data ...
PPPM Kokkos initialization ...
  using 12-bit tables for long-range coulomb
  G vector (1/distance) = 0.32196359
  grid = 48 48 48
  stencil order = 5
  estimated absolute RMS force accuracy = 0.00040437164
  estimated relative force accuracy = 1.2177532e-06
  using double precision cuFFT
  3d grid and FFT values/proc = 166375 110592
Generated 15 of 15 mixed pair_coeff terms from sixthpower/sixthpower mixing rule
STAGE COMPLETE: NVT T=300.0->630.0K steps=500000
