LAMMPS data file via write_data, version 22 Jul 2025, timestep = 2500, units = real

8656 atoms
8 atom types
9288 bonds
10 bond types
15680 angles
16 angle types
23344 dihedrals
19 dihedral types
6400 impropers
11 improper types

4.5891084262069555 52.86780285379341 xlo xhi
4.5891084262069555 52.86780285379341 ylo yhi
4.5891084262069555 52.86780285379341 zlo zhi

Masses

1 12.01115
2 12.01115
3 1.00797
4 1.00797
5 15.9994
6 15.9994
7 15.9994
8 32.064

Pair Coeffs # lj/class2/coul/long/gpu

1 0.054 4.01
2 0.064 4.01
3 0.02 2.995
4 0.013 1.098
5 0.06 3.535
6 0.24 3.535
7 0.24 3.535
8 0.25 4.027

Bond Coeffs # class2

1 1.53 299.67 -501.77 679.81
2 1.501 321.902 -521.821 572.163
3 1.101 345 -691.89 844.6
4 1.417 470.836 -627.618 1327.63
5 1.0982 372.825 -803.453 894.317
6 1.3768 428.88 -738.235 1114.97
7 1.3768 428.88 -738.235 1114.97
8 1.72 239.802 0 0
9 0.965 532.506 -1282.9 2004.77
10 1.4308 743.76 0 0

Angle Coeffs # class2

1 112.67 39.516 -7.443 -9.5583
2 108.4 43.9594 -8.3924 -9.3379
3 110.77 41.453 -10.604 5.129
4 120.05 44.7148 -22.7352 0
5 111 44.3234 -9.4454 0
6 118.9 61.0226 -34.9931 0
7 117.94 35.1558 -12.4682 0
8 123.42 73.6781 -21.6787 0
9 123.42 73.6781 -21.6787 0
10 120 60 0 0
11 109.5 60 0 0
12 108.19 53.125 -8.5016 0
13 102 58 0 0
14 113.1 42.3 0 0
15 107.66 39.641 -12.921 -2.4318
16 119.329 135 0 0

BondBond Coeffs

1 0 1.53 1.53
2 0 1.53 1.501
3 3.3872 1.53 1.101
4 12.0676 1.501 1.417
5 0 1.501 1.501
6 68.2856 1.417 1.417
7 1.0795 1.417 1.0982
8 48.4754 1.417 1.3768
9 48.4754 1.417 1.3768
10 0 1.417 1.72
11 0 1.3768 1.3768
12 20.6577 1.3768 0.965
13 0 1.72 1.72
14 0 1.72 1.4308
15 5.3316 1.101 1.101
16 40 1.4308 1.4308

BondAngle Coeffs

1 8.016 8.016 1.53 1.53
2 0 0 1.53 1.501
3 20.754 11.421 1.53 1.101
4 47.0579 31.0771 1.501 1.417
5 0 0 1.501 1.501
6 28.8708 28.8708 1.417 1.417
7 20.0033 24.2183 1.417 1.0982
8 58.479 107.681 1.417 1.3768
9 58.479 107.681 1.417 1.3768
10 0 0 1.417 1.72
11 0 0 1.3768 1.3768
12 53.8614 23.9224 1.3768 0.965
13 0 0 1.72 1.72
14 0 0 1.72 1.4308
15 18.103 18.103 1.101 1.101
16 0 0 1.4308 1.4308

Dihedral Coeffs # class2

1 0 0 0.0316 0 -0.1681 0
2 -0.2802 0 -0.0678 0 -0.0122 0
3 0 0 4.4072 0 0 0
4 0 0 1.559 0 0 0
5 -0.0228 0 0.028 0 -0.1863 0
6 -0.2802 0 -0.0678 0 -0.0122 0
7 8.3667 0 1.1932 0 0 0
8 0 0 3.9661 0 0 0
9 0 0 4.8498 0 0 0
10 0 0 4.8498 0 0 0
11 0 0 3 0 0 0
12 0 0 1.8 0 0 0
13 -0.69 0 0.5097 0 0.0095 0
14 0 0 1.5 0 0 0
15 0 0 1.5 0 0 0
16 0 0 1.8769 0 0 0
17 0 0 1.7234 0 0 0
18 0 0 1.7234 0 0 0
19 0 0 3 0 0 0

AngleAngleTorsion Coeffs

1 -16.164 112.67 110.77
2 0 108.4 120.05
3 -14.4097 120.05 118.9
4 4.4444 120.05 117.94
5 0 108.4 110.77
6 0 111 120.05
7 0 118.9 118.9
8 -4.8141 118.9 117.94
9 -21.0247 118.9 123.42
10 -21.0247 118.9 123.42
11 0 118.9 120
12 0 123.42 109.5
13 -4.6072 123.42 108.19
14 0 120 102
15 0 120 113.1
16 0.3598 117.94 117.94
17 4.2296 117.94 123.42
18 4.2296 117.94 123.42
19 0 117.94 120

EndBondTorsion Coeffs

1 0.2486 0.2422 -0.0925 0.0814 0.0591 0.2219 1.53 1.101
2 0 0 0 0 0 0 1.53 1.417
3 0 0.2421 0 0 -0.6918 0 1.501 1.417
4 0 -1.797 0 0 -0.4879 0 1.501 1.0982
5 0 0 0 0 0 0 1.501 1.101
6 0 0 0 0 0 0 1.501 1.417
7 -0.1185 6.3204 0 -0.1185 6.3204 0 1.417 1.417
8 0 -6.8958 0 0 -0.4669 0 1.417 1.0982
9 0 0.2655 0 0 4.8905 0 1.417 1.3768
10 0 0.2655 0 0 4.8905 0 1.417 1.3768
11 0 0 0 0 0 0 1.417 1.72
12 0 0 0 0 0 0 1.417 1.3768
13 0.9 -1.3456 1.19 3.4132 0.5873 -0.1323 1.417 0.965
14 0 0 0 0 0 0 1.417 1.72
15 0 0 0 0 0 0 1.417 1.4308
16 0 -0.689 0 0 -0.689 0 1.0982 1.0982
17 0 -1.5867 0 0 4.2641 0 1.0982 1.3768
18 0 -1.5867 0 0 4.2641 0 1.0982 1.3768
19 0 0 0 0 0 0 1.0982 1.72

MiddleBondTorsion Coeffs

1 -14.879 -3.6581 -0.3138 1.53
2 0 0 0 1.501
3 0 9.1792 0 1.417
4 0 3.9421 0 1.417
5 0 0 0 1.53
6 0 0 0 1.501
7 27.5989 -2.312 0 1.417
8 0 -1.1521 0 1.417
9 0 4.8255 0 1.417
10 0 4.8255 0 1.417
11 0 0 0 1.417
12 0 0 0 1.3768
13 1.158 3.2697 3.5132 1.3768
14 0 0 0 1.72
15 0 0 0 1.72
16 0 4.8228 0 1.417
17 0 5.5432 0 1.417
18 0 5.5432 0 1.417
19 0 0 0 1.417

BondBond13 Coeffs

1 0 1.53 1.101
2 0 1.53 1.417
3 2.5085 1.501 1.417
4 0.8743 1.501 1.0982
5 0 1.501 1.101
6 0 1.501 1.417
7 53 1.417 1.417
8 -6.2741 1.417 1.0982
9 -2.2436 1.417 1.3768
10 -2.2436 1.417 1.3768
11 0 1.417 1.72
12 0 1.417 1.3768
13 1.159 1.417 0.965
14 0 1.417 1.72
15 0 1.417 1.4308
16 -1.7077 1.0982 1.0982
17 2.0517 1.0982 1.3768
18 2.0517 1.0982 1.3768
19 0 1.0982 1.72

AngleTorsion Coeffs

1 -0.2454 0 -0.1136 0.3113 0.4516 -0.1988 112.67 110.77
2 0 0 0 0 0 0 108.4 120.05
3 0 -4.4683 0 0 3.8987 0 120.05 118.9
4 0 -0.1242 0 0 3.4601 0 120.05 117.94
5 0 0 0 0 0 0 108.4 110.77
6 0 0 0 0 0 0 111 120.05
7 1.9767 1.0239 0 1.9767 1.0239 0 118.9 118.9
8 0 2.5014 0 0 2.7147 0 118.9 117.94
9 0 10.0155 0 0 1.7404 0 118.9 123.42
10 0 10.0155 0 0 1.7404 0 118.9 123.42
11 0 0 0 0 0 0 118.9 120
12 0 0 0 0 0 0 123.42 109.5
13 -5.136 -1.0122 0 4.6852 0.023 -0.598 123.42 108.19
14 0 0 0 0 0 0 120 102
15 0 0 0 0 0 0 120 113.1
16 0 2.4501 0 0 2.4501 0 117.94 117.94
17 0 1.8729 0 0 2.5706 0 117.94 123.42
18 0 1.8729 0 0 2.5706 0 117.94 123.42
19 0 0 0 0 0 0 117.94 120

Improper Coeffs # class2

1 0 0
2 0 0
3 0 0
4 0 0
5 7.8153 0
6 4.8912 0
7 13.0421 0
8 13.0421 0
9 0 0
10 0 0
11 0 0

AngleAngle Coeffs

1 0 0 0 112.67 108.4 108.4
2 0 0 0 108.4 108.4 111
3 0.2738 -0.4825 0.2738 110.77 110.77 107.66
4 -0.3157 -0.3157 -0.3157 107.66 107.66 107.66
5 0 0 0 120.05 120.05 118.9
6 0 0 0 118.9 117.94 117.94
7 0 0 0 118.9 123.42 123.42
8 0 0 0 118.9 123.42 123.42
9 0 0 0 118.9 120 120
10 0 0 0 102 113.1 113.1
11 0 0 0 113.1 113.1 119.329

Atoms # full

1925 2 2 0.0732 8.85658491466274 6.969701248798739 9.573146406228457 -1 3 2
1935 2 2 -0.1268 9.713989491145472 5.784917235520374 6.723438616677205 -1 3 2
1926 2 2 -0.1268 8.971328131897067 8.029505824842728 8.763126784140574 -1 3 2
481 1 2 -0.1268 7.220626535824541 8.414402061348618 5.446712895116411 1 0 1
482 1 3 0.1268 7.580524406432087 7.36148869427556 5.332129746069162 1 0 1
1936 2 3 0.1268 8.637563559421086 6.007974781008694 6.591975995409889 -1 3 2
449 1 2 0 5.8950117849104675 8.75319863696938 5.6850385955357225 1 0 1
1937 2 2 -0.1268 10.286766304719611 5.859288093595638 5.392030974339908 -1 3 2
7274 7 3 0.1268 5.164137464970525 21.32459647692287 24.982892289979564 0 1 0
448 1 3 0.053 5.992167676529184 6.14582463972334 7.2264560213777 1 0 1
446 1 3 0.053 5.903215508841026 7.640135039922699 8.010901704294971 1 0 1
440 1 1 0 4.86310080471658 7.577078924345598 5.98780617773717 1 0 1
445 1 1 -0.159 5.288615948654292 6.989441867926967 7.245128677308246 1 0 1
1927 2 3 0.1268 9.498215254293116 7.919096967020863 7.729206752498847 -1 3 2
454 1 2 0.0265 7.939946996428237 10.861154513605152 5.3702275531127786 1 0 1
1928 2 2 -0.1268 8.726277652008951 9.281598417986459 9.123088494526204 -1 3 2
1930 2 2 0.0265 7.940859301892026 9.46981972920951 10.313753338710667 -1 3 2
1929 2 3 0.1268 8.940478096171173 10.110840779432223 8.311337605256188 -1 3 2
450 1 2 -0.1268 5.6427663406141315 10.144265262302659 5.692890654588881 1 0 1
5382 5 3 0.1268 28.56382775070978 6.042836438851406 16.64600593471075 0 1 0
2567 3 2 -0.1268 20.667484053769886 33.98872805236123 4.646812239047961 0 1 1
6613 7 1 -0.159 5.1140408325148705 36.15122020022685 9.381588452181855 1 0 0
2610 3 3 0.053 22.51707957817558 43.98637322814264 4.795358641887317 0 1 1
484 1 3 0.1268 5.165648584491025 4.87030754666928 6.0214851119434405 1 0 1
439 1 2 0 4.965133579500377 6.673921650416817 4.75416010058622 1 0 1
483 1 2 -0.1268 4.968431356130661 5.334088121457307 5.01918019412752 1 0 1
1922 2 8 0.0822 9.712970913043133 5.468924805846066 9.357108371354347 -1 3 2
1921 2 2 0.0732 10.506686406022176 5.571788462782209 7.800679589383989 -1 3 2
1919 2 2 -0.1268 11.850952273759635 5.298741404331613 7.590511973702739 -1 3 2
1924 2 5 -0.1143 10.64787720475626 5.488712329541296 10.474316916477695 -1 3 2
1920 2 3 0.1268 12.385424610180209 4.9813141738261155 8.519453358974006 -1 3 2
4161 4 2 -0.1268 15.372285617620623 10.201360545440114 8.475676307079757 1 1 -1
4117 4 2 0 15.414123145675282 9.24850974513978 7.511859154916991 1 1 -1
1916 2 2 0.0265 11.741649303853304 5.769993372705413 5.241264192158115 -1 3 2
4115 4 2 -0.1268 14.194929104993378 8.545656372700051 7.141684696372294 1 1 -1
4112 4 2 0.0265 12.9596432064799 9.919221809304219 8.58190386171715 1 1 -1
4113 4 2 -0.1268 13.027485000400866 8.833099322411202 7.689738749954822 1 1 -1
4114 4 3 0.1268 12.121872360254395 8.34063456597885 7.209313218074158 1 1 -1
4116 4 3 0.1268 14.279023809709512 7.724012078861852 6.365148812432575 1 1 -1
1918 2 3 0.1268 13.623850079335524 5.255966726967924 6.215902720899938 -1 3 2
4163 4 2 -0.1268 14.218846457148969 10.430426364664054 9.149742482985623 1 1 -1
1917 2 2 -0.1268 12.499442177678286 5.412534299595683 6.380083251773894 -1 3 2
4119 4 1 -0.159 16.650738016169925 7.02684715499477 6.561872732762708 1 1 -1
4162 4 3 0.1268 16.36475535421384 10.53588187682174 8.886299612283832 1 1 -1
4120 4 3 0.053 16.04114856007194 6.604312645593001 5.801325454418795 1 1 -1
4121 4 3 0.053 17.65587474272271 6.490988510817792 6.386804039484928 1 1 -1
4118 4 1 0 16.71742568770859 8.548240530981664 6.938554928809518 1 1 -1
4122 4 3 0.053 16.42412749224874 6.466804078455177 7.478669913471201 1 1 -1
4127 4 2 0 17.78452182588113 8.9392809602966 7.965844893857952 1 1 -1
4132 4 2 0.0265 20.043171064971233 9.395483724099906 9.512391431703026 1 1 -1
4128 4 2 -0.1268 18.14150837994586 8.018556828164211 9.023870122877799 1 1 -1
4130 4 2 -0.1268 19.301925823874456 8.201607324433692 9.747833299822583 1 1 -1
4157 4 2 -0.1268 19.55771439439675 10.28353338795386 8.636414033572091 1 1 -1
4159 4 2 -0.1268 18.43807897099991 10.06141800438451 7.834968242336393 1 1 -1
4129 4 3 0.1268 17.49046160525581 7.194945078155838 9.307136738746244 1 1 -1
6614 7 3 0.053 5.1781607860004275 35.00300798409438 9.555428111561351 1 0 0
5267 5 3 0.1268 27.900085668436386 18.68473217727598 20.93676667744317 0 1 0
4136 4 3 0.1268 22.63231334430723 8.086314368881641 8.321966938117878 1 1 -1
6602 7 2 0.0265 5.404974024065382 35.69617501144691 14.541627540107754 1 0 0
4138 4 3 0.1268 23.983532241712304 6.218152370984196 8.71600719081518 1 1 -1
4137 4 2 -0.1268 23.557448329567762 6.663502864397081 9.61503312960538 1 1 -1
5238 5 3 0.1268 26.252066097386997 9.517836414903762 8.718430785030339 0 1 0
4145 4 3 0.1268 24.665030758017107 52.46220413341022 8.131955367358971 1 0 -1
4142 4 5 -0.1143 25.913118152380324 4.605659200888979 10.31544906973157 1 1 -1
5237 5 2 -0.1268 27.129375511530657 9.928688385056134 8.112535672610125 0 1 0
7088 7 2 0.0265 22.703724140915735 50.81671935771837 27.264466759752093 0 0 0
1947 2 6 -0.053 7.417705909985134 10.687239394825466 10.768278970172174 -1 3 2
7028 7 3 0.1268 6.762630430346672 15.416407523668786 7.059918257713539 0 1 0
7027 7 2 -0.1268 7.884621949945133 15.547300060329448 7.258997232314904 0 1 0
1949 2 2 -0.1268 5.703786461460516 11.499212071351778 9.328471868461452 -1 3 2
1950 2 3 0.1268 6.487786212146551 11.563381589981262 8.51866338281345 -1 3 2
1948 2 2 0.0265 6.036550853351578 10.872266152781291 10.453220448003638 -1 3 2
7026 7 3 0.1268 8.620287687651711 13.417912492323993 7.25256614926869 0 1 0
7025 7 2 -0.1268 8.826405534672405 14.461308107601011 7.16172989416418 0 1 0
5381 5 2 -0.1268 28.610072032749436 7.057206277697209 17.148341754504493 0 1 0
452 1 2 -0.1268 6.582212902099525 11.176160742184543 5.411155606111377 1 0 1
2625 3 2 0.0732 28.076684893849247 37.03711015057975 9.675861624045957 0 1 1
7004 7 3 0.1268 13.13428624170271 12.62953996659025 6.128711576121806 0 1 0
7003 7 2 -0.1268 13.430581628859596 13.216750768487858 7.0174991910586435 0 1 0
7002 7 2 0.0265 12.474409609878183 14.041515827557824 7.669896452207244 0 1 0
7007 7 2 0.0732 15.187480527672522 14.06966616778697 8.534693178232637 0 1 0
7000 7 2 0.0265 10.165873199029893 14.86107763101904 7.25225972701749 0 1 0
7001 7 6 -0.053 11.095569689376607 13.782902135814812 7.319415403235306 0 1 0
7023 7 2 -0.1268 12.906765845097727 14.978724889873366 8.669225544775236 0 1 0
7021 7 2 -0.1268 14.272527579072543 15.05579886964415 9.063135352904363 0 1 0
7005 7 2 -0.1268 14.731154795162778 13.23327431770204 7.4426419985651275 0 1 0
7006 7 3 0.1268 15.432602149294313 12.598001477528118 6.916892147884126 0 1 0
7024 7 3 0.1268 12.140300452068535 15.681159628923226 9.21710553488407 0 1 0
4111 4 6 -0.053 11.690781895210307 10.10832051655102 9.090417800087703 1 1 -1
4096 4 3 0.1268 10.461628503766097 12.184221302114626 10.211782249341894 1 1 -1
4126 4 3 0.053 16.023895363943865 9.091258544491298 4.940073458541445 1 1 -1
4123 4 1 -0.159 16.97488876599874 9.070683295885125 5.46143699247314 1 1 -1
4125 4 3 0.053 17.644206345329955 10.052399848373021 5.344225920047535 1 1 -1
4158 4 3 0.1268 20.319478265243298 11.017243976436994 8.514893965536563 1 1 -1
4124 4 3 0.053 17.610110698925233 8.389970349301025 4.8610543554372505 1 1 -1
4160 4 3 0.1268 18.13350240041418 10.785535750914914 7.026342542534458 1 1 -1
7010 7 5 -0.1143 17.743047400928766 13.518788751701429 8.007536473422727 0 1 0
7020 7 3 0.1268 18.975996798212712 12.336495583638872 9.944110833288025 0 1 0
7008 7 8 0.0822 16.92444328608584 14.354512212634882 8.89698307966276 0 1 0
4403 5 3 0.1268 23.36761280108351 10.114474611422853 6.640445996710817 0 0 0
4713 5 2 0 4.605702359817173 23.184584515935352 14.989539774564532 0 0 0
4408 5 3 0.1268 20.292120917307876 14.10819164494528 7.20058988545322 0 0 0
4428 5 3 0.1268 24.58225057657876 12.93941454337575 7.131775995260893 0 0 0
4402 5 2 -0.1268 23.789499261338527 10.638850107269535 5.83056318032154 0 0 0
4407 5 2 -0.1268 21.3273319249554 13.953941263621497 7.573805310181658 0 0 0
4409 5 2 -0.1268 21.629626040873045 14.599572212627008 8.676145897266395 0 0 0
4404 5 2 0.0265 23.149656257558032 11.77551910168806 5.246748397385859 0 0 0
4427 5 2 -0.1268 23.670387963483396 13.235181782574703 7.66315764102791 0 0 0
4405 5 6 -0.053 22.12090832408671 12.435357456574788 5.9538351308517115 0 0 0
4406 5 2 0.0265 22.37474882269666 13.114321914666684 7.02100718745934 0 0 0
4425 5 2 -0.1268 23.942365163308466 13.893093359038199 8.802944365345272 0 0 0
5223 5 5 -0.1143 27.125366782659537 14.503428647555708 7.594158334804928 0 1 0
5235 5 2 -0.1268 27.178049136917473 11.386561503626552 8.145733861021302 0 1 0
5236 5 3 0.1268 26.452723614810992 11.964712490224365 8.753343742689005 0 1 0
4411 5 2 0.0732 22.82570913145167 14.585239216910756 9.383539566112791 0 0 0
5222 5 8 0.0822 28.41191637807444 13.89328138532386 7.51001016770399 0 1 0
5221 5 2 0.0732 28.275758313571984 12.04860820744234 7.522076013394117 0 1 0
7489 7 2 -0.1268 28.612900821676632 48.17133176678311 22.36990031986953 -1 1 0
5227 5 3 0.1268 27.482945121260364 14.717891492902277 9.935994525644805 0 1 0
6988 7 3 0.053 5.637366310976345 17.025105316692017 6.360121878660275 0 1 0
6987 7 1 -0.159 5.869138657435752 17.803531393101917 7.114578089789226 0 1 0
6989 7 3 0.053 5.695596267935487 17.30495337793656 8.102453571892696 0 1 0
6995 7 2 0 8.265897861486742 16.95107486273843 7.316863813377877 0 1 0
6986 7 1 0 7.33534359762092 18.14272028955931 7.116694905982239 0 1 0
6996 7 2 -0.1268 9.658835156327196 17.251291187932786 7.2281617132724865 0 1 0
6991 7 1 -0.159 7.569537981410804 18.70470519686213 5.609652240293583 0 1 0
6985 7 2 0 7.271279867324945 19.322073265372225 8.341873109224135 0 1 0
7029 7 2 -0.1268 7.1166361459904985 20.704925672952875 8.085088479591265 0 1 0
7030 7 3 0.1268 7.086530691938059 21.187213838126176 7.005260096067021 0 1 0
6994 7 3 0.053 6.960924533525031 19.630933828101924 5.27776506813014 0 1 0
7031 7 2 -0.1268 7.369525176971003 21.54158178794842 9.208541916122243 0 1 0
6993 7 3 0.053 8.677257109887485 19.031732303583606 5.306779896315638 0 1 0
6997 7 3 0.1268 9.923950126296093 18.40823481034149 7.19307196687941 0 1 0
4678 5 3 0.1268 11.653384536259455 19.546397989319065 10.15414785186232 0 0 0
6992 7 3 0.053 7.282555501633555 17.737585262870198 4.907756573495272 0 1 0
6984 7 3 0.1268 7.3623731276580004 17.697825715380564 9.86033302389568 0 1 0
6983 7 2 -0.1268 7.379804149581624 18.825585391563518 9.708857123083853 0 1 0
6980 7 2 0.0265 7.693048478393237 21.041669624341004 10.48858432825833 0 1 0
6990 7 3 0.053 5.2934550554562625 18.654068591795216 6.963881713107002 0 1 0
6998 7 2 -0.1268 10.590955135891928 16.272946743649232 7.20391868979784 0 1 0
4675 5 6 -0.053 11.817623194036095 20.910880320492215 7.889877132876972 0 0 0
4700 5 3 0.1268 13.980248563784759 20.9590440927775 6.416659259477341 0 0 0
4699 5 2 -0.1268 13.17777190627368 21.63665322633848 6.079156201491676 0 0 0
6999 7 3 0.1268 11.590578847108812 16.780965350426165 7.33846863109177 0 1 0
5665 6 2 -0.1268 16.98280502329834 17.63652250854145 6.9040508103590525 0 0 0
5684 6 3 0.1268 15.43411936665785 18.427699087252293 10.714289986307504 0 0 0
5683 6 2 -0.1268 16.09666454289098 19.11978083645564 10.346822026099911 0 0 0
5682 6 2 0.0265 15.914131151404778 19.42835529893086 8.989826946060717 0 0 0
5733 6 2 -0.1268 16.74738789523291 20.433267233128273 8.458317447258908 0 0 0
5681 6 6 -0.053 15.038641950934299 18.778138445402732 8.090712997587723 0 0 0
5734 6 3 0.1268 16.794523265743734 20.78253327537363 7.456130706547118 0 0 0
5664 6 2 0.0265 15.574845723427284 17.872936185585345 7.085414907592632 0 0 0
4701 5 2 -0.1268 13.513073751485557 22.511217018582563 5.060425566497363 0 0 0
5663 6 3 0.1268 13.693337692527207 17.522944464060174 6.486883924190287 0 0 0
5659 6 2 0.0732 16.534718112943793 15.89275751404781 5.3802412910674 0 0 0
5660 6 2 -0.1268 15.188765400161579 16.23595183507772 5.464476387751144 0 0 0
5662 6 2 -0.1268 14.730269830970268 17.18234424738082 6.284325143278294 0 0 0
5666 6 3 0.1268 17.667984255565177 17.88348656524305 7.774582224980078 0 0 0
5731 6 2 -0.1268 17.64888266775114 21.263698170908444 9.174322938462375 0 0 0
7009 7 5 -0.1143 17.13157414846173 15.795960512532849 8.857010248619783 0 1 0
5667 6 2 -0.1268 17.480231271058635 16.492896053176963 6.259663785139484 0 0 0
1392 2 3 0.1268 21.19498487941109 22.23925418715935 8.450293159601019 -1 1 1
5668 6 3 0.1268 18.50226207726712 16.126908293713058 6.483407949536227 0 0 0
2623 3 2 -0.1268 28.27518873023668 37.88937219850875 8.55497799426523 0 1 1
4410 5 3 0.1268 20.695292613885282 15.205126864708271 8.979313885606537 0 0 0
2692 3 3 0.1268 26.92855948333932 17.566271987246715 9.331826939811128 0 1 1
2682 3 5 -0.1143 25.317829966816667 19.916514895294192 9.894231523835614 0 1 1
6884 7 3 0.053 27.343062545191636 19.65291901121602 6.6217712057083045 0 1 0
2691 3 2 -0.1268 27.83802198074687 18.071849000716988 9.773555553666753 0 1 1
2678 3 3 0.1268 27.17231354057401 22.206883413435065 10.193710104987748 0 1 1
5229 5 3 0.1268 28.22187507133583 14.945513709292891 12.016438904490801 0 1 0
7896 8 3 0.1268 22.73959816871933 35.10258496913922 28.07327227787109 0 0 0
7032 7 3 0.1268 7.253091446696237 22.65062343707734 9.108775527243113 0 1 0
1014 1 3 0.1268 8.247031889962635 26.19395252903722 7.0706099730033225 1 0 1
7229 7 3 0.1268 4.857540720409969 7.338865042421826 16.86339634869567 0 1 0
1005 1 2 0.0732 7.712719812089215 25.53173177268216 5.0064736519968775 1 0 1
1013 1 2 -0.1268 8.335354663766912 26.379398020331752 5.959319639458839 1 0 1
1011 1 2 -0.1268 8.951366988147324 27.47754906977732 5.428266822250169 1 0 1
479 1 2 -0.1268 8.247544076614256 9.417386460883547 5.288628899129986 1 0 1
6961 7 3 0.1268 10.135148103246504 22.66840310935344 9.99264612414379 0 1 0
6959 7 3 0.1268 11.146922913425206 24.888705702072805 9.528793448301244 0 1 0
1002 1 8 0.0822 6.91551606398688 24.164430723744413 5.520617137276292 1 0 1
1003 1 5 -0.1143 7.211141645167858 23.84486634658964 6.915001099734188 1 0 1
6960 7 2 -0.1268 9.594230330787976 23.547017852816197 10.41404726201754 0 1 0
6958 7 2 -0.1268 10.08844942095197 24.749984358243154 10.080146400548596 0 1 0
4668 5 3 0.053 13.11790355201191 25.794130234257988 5.353058816520701 0 0 0
4673 5 3 0.1268 10.13630130567876 22.865666108642262 7.069967206610633 0 0 0
4676 5 2 0.0265 12.257435497475546 21.387749920487956 9.111716308806514 0 0 0
4674 5 2 0.0265 12.120018723741186 21.780891830906175 6.936124945958453 0 0 0
4672 5 2 -0.1268 11.088441822284109 22.71044714818589 6.474112323149032 0 0 0
4697 5 2 -0.1268 12.62370525726952 22.681710874262652 9.370245126799748 0 0 0
4698 5 3 0.1268 12.996099156886629 23.338335727522242 8.627399756174128 0 0 0
6952 7 3 0.1268 12.729223738305842 27.613716299561553 8.877580869728531 0 1 0
4670 5 2 -0.1268 11.301770123764829 23.510279285741237 5.370381497092288 0 0 0
4671 5 3 0.1268 10.403782024866441 23.998723986386803 5.01692349452678 0 0 0
5732 6 3 0.1268 18.20056841855415 22.123731816163005 8.762719718841577 0 0 0
1393 2 2 -0.1268 20.389756537486335 23.62356626562015 6.967086100284753 -1 1 1
1383 2 5 -0.1143 18.236301446247396 25.869561428398324 6.177212056857528 -1 1 1
1382 2 8 0.0822 19.06707855564496 25.361054196211903 5.145790767371273 -1 1 1
1394 2 3 0.1268 19.45875782604829 23.049876201986088 6.962255138230914 -1 1 1
2603 3 2 0 23.717123418524654 41.473556326388504 4.722521023264308 0 1 1
1385 2 2 0.0732 20.439028121555342 24.783169917594876 6.212146317713001 -1 1 1
1391 2 2 -0.1268 21.35377219167485 23.26152941601037 7.845365785456439 -1 1 1
1386 2 2 -0.1268 21.537107371814592 25.633094533586327 6.430279814825403 -1 1 1
1387 2 3 0.1268 21.670204969360015 26.568611680128384 5.836363868249948 -1 1 1
6928 7 3 0.1268 21.281478257986166 28.101577228813365 7.203533381078189 0 1 0
5692 6 3 0.053 19.552586653125125 23.10392661323082 10.038439887806703 0 0 0
1396 2 3 0.1268 16.66001205849483 23.758099574622552 5.073077327036698 -1 1 1
6886 7 3 0.053 27.622482540207763 20.923949535220668 7.554725010192641 0 1 0
1800 2 3 0.053 5.134641491446828 28.847342998669884 24.28338021658692 -1 2 1
4205 4 2 -0.1268 12.787166622207058 46.35172090352289 4.986457210348009 1 0 -1
1390 2 2 0.0265 22.55205922819779 23.989006066628537 8.093761406665369 -1 1 1
1388 2 2 -0.1268 22.718198507749765 25.127406134341967 7.224287833846459 -1 1 1
1389 2 3 0.1268 23.627693984590188 25.698551431547145 7.140723546648541 -1 1 1
6910 7 3 0.1268 24.86539809294239 26.760816677839944 9.36988094687181 0 1 0
1407 2 6 -0.053 23.29507878767226 23.57407994548732 9.130818105948201 -1 1 1
1410 2 3 0.1268 21.835655108419033 25.88424942750386 9.941470977954934 -1 1 1
5450 6 3 0.1268 25.710898723478522 26.47103851468498 5.461562305534101 0 0 0
2676 3 3 0.1268 27.354253840930078 24.196882483430493 11.672865425579428 0 1 1
2624 3 3 0.1268 28.713540445585412 37.41263184751153 7.645644505882427 0 1 1
6920 7 3 0.1268 28.30413104883774 24.139145000166657 6.3520895180073405 0 1 0
6956 7 5 -0.1143 9.746718711747928 27.49230250225273 8.556018684055669 0 1 0
792 1 2 -0.1268 6.663887231808513 29.306271337693367 7.674568847977193 1 0 1
1030 1 3 0.1268 7.57748828168455 29.542310600471744 4.713448540890848 1 0 1
793 1 3 0.1268 7.027176987825216 28.949256173728983 6.733365658288272 1 0 1
811 1 6 -0.053 8.007481335447036 31.1200674119668 7.441772981260774 1 0 1
812 1 2 0.0265 8.81660706426208 32.08373200936373 7.990144939387239 1 0 1
794 1 2 0.0265 7.2889546269146575 30.401829292041846 8.231629603676417 1 0 1
790 1 2 -0.1268 5.579609522401301 28.70559463668517 8.292068749605 1 0 1
791 1 3 0.1268 5.234193739172725 28.024675008376732 7.6267495887958425 1 0 1
4956 5 2 -0.1268 22.09379868390767 42.75011404828359 28.35630136913279 0 0 -1
863 1 2 -0.1268 8.81558972810997 33.447003288354 7.5518129165093555 1 0 1
1032 1 3 0.1268 7.12002656681547 31.96021244258124 5.056741541499257 1 0 1
797 1 2 -0.1268 5.789729284343175 30.071149534077662 10.133966964845591 1 0 1
796 1 3 0.1268 6.936971542724932 31.750070046829087 10.084119240900172 1 0 1
795 1 2 -0.1268 6.74072453025255 30.84483433769528 9.518156490435185 1 0 1
789 1 2 0.0732 5.046363209801101 29.054687476345563 9.475099752327772 1 0 1
4189 4 2 -0.1268 14.06742211277162 41.74226372353525 4.684382030858059 1 0 -1
5216 5 2 0.0265 28.200135481451916 9.227667202859742 7.5589065184111845 0 1 0
813 1 2 -0.1268 9.983016025816342 31.702691607827358 8.709587381743782 1 0 1
2552 3 3 0.053 12.309848119998188 30.701043041864242 6.2487532330634865 0 1 1
2553 3 3 0.053 13.832893045204571 29.73729262475885 6.13997051587561 0 1 1
2551 3 1 -0.159 13.425387182644842 30.751316082110318 6.190763854981679 0 1 1
2554 3 3 0.053 13.676148920526392 31.222649526611193 7.18791901954222 0 1 1
2550 3 1 0 13.584677028815618 31.660521996186613 4.882221743986054 0 1 1
6943 7 3 0.1268 16.64727504002741 31.47510164719059 11.766056253977824 0 1 0
2558 3 3 0.053 12.142070673446309 32.88808665564949 5.7678432018095425 0 1 1
6883 7 1 -0.159 28.116762540081265 20.27527810843034 6.8225977121216825 0 1 0
814 1 3 0.1268 10.130097185259324 30.62964467570482 8.947099050281622 1 0 1
816 1 3 0.1268 11.83810861290063 32.184503266757076 9.693813341202155 1 0 1
815 1 2 -0.1268 10.906437529693699 32.60914000570425 9.180641058625813 1 0 1
2559 3 2 0 14.904781399401788 32.35899224087425 5.137137059732716 0 1 1
6936 7 3 0.053 17.112693412453904 30.769499211506293 8.406348027600027 0 1 0
6935 7 3 0.053 17.12749862295862 32.20656282205897 9.202314461543352 0 1 0
6940 7 3 0.053 17.96649476186093 32.76698167197725 10.935195750766312 0 1 0
6933 7 1 -0.159 17.850922469843354 31.551610744645703 8.693589182486747 0 1 0
6934 7 3 0.053 18.336345344182213 32.05352268532773 7.922247334642732 0 1 0
6937 7 1 -0.159 18.96186101427194 32.28317334031811 10.694987736137882 0 1 0
6939 7 3 0.053 19.5322266463984 32.912156456715834 10.022147286040706 0 1 0
6931 7 2 0 20.128776780217557 30.48438695324272 9.435333813994344 0 1 0
6932 7 1 0 18.76926552434616 30.95705407154402 9.951068577151066 0 1 0
6930 7 3 0.1268 19.30705734983183 29.6417683620294 7.559923153452688 0 1 0
6927 7 2 -0.1268 21.21106415340106 28.860001742015392 7.962820729254441 0 1 0
6929 7 2 -0.1268 20.12006024955813 29.580740256760773 8.384131504781905 0 1 0
6975 7 2 -0.1268 21.38688265324172 30.731039640643402 10.084105789037286 0 1 0
4469 5 2 0.0732 4.743575993904242 15.378482294961731 13.39966351400121 0 0 0
6812 7 3 0.1268 5.270671400155314 51.7332207377273 13.30564786675952 1 0 0
6976 7 3 0.1268 21.39152337498737 31.362748668334252 11.008707324003115 0 1 0
1768 2 2 0.0265 5.24899925836109 32.57561992989463 18.674914363010124 -1 2 1
6925 7 6 -0.053 23.577476839037047 28.45133377281753 8.023577482030975 0 1 0
6926 7 2 0.0265 22.41995358505383 29.10351410609919 8.575937767559441 0 1 0
6909 7 2 -0.1268 25.479390704252502 27.59381106760422 9.467451072933727 0 1 0
6903 7 2 0.0732 27.318209774780943 29.171764414828285 9.992165924037518 0 1 0
6911 7 2 -0.1268 26.555088316417645 27.920274793906867 10.323717546142063 0 1 0
6908 7 2 0.0265 24.74238795987898 28.604500517846038 8.791771374284291 0 1 0
6904 7 2 -0.1268 26.64578881793032 30.058895935212057 9.124704210171569 0 1 0
6906 7 2 -0.1268 25.37900556074532 29.837987156611895 8.69696721982767 0 1 0
5449 6 2 -0.1268 25.90662144187711 27.18818531673965 4.693160933265173 0 0 0
5420 6 3 0.053 23.72552402130134 33.7357883674393 10.38447370220088 0 0 0
6978 7 3 0.1268 23.33233439526912 30.206627240177188 10.167633567770284 0 1 0
6977 7 2 -0.1268 22.464353340243647 30.075903527749706 9.60737009311702 0 1 0
6907 7 3 0.1268 24.849727688541286 30.639379444413326 8.102484549950148 0 1 0
6905 7 3 0.1268 27.157780853846987 31.020870005212892 8.950066404267154 0 1 0
6141 6 2 0.0732 28.48850189024168 37.841285562572814 23.63671497356519 0 0 0
5452 6 3 0.1268 27.848474806363498 27.42937243710552 5.373059452612027 0 0 0
6601 7 6 -0.053 5.0558306927864995 35.07345827361928 15.805777333235007 1 0 0
7852 8 1 0 24.21175830105561 37.703900397779144 28.32183399852216 0 0 0
7323 7 3 0.1268 10.527501411414445 32.6302057415934 28.2084599767721 0 1 0
6619 7 3 0.1268 6.710064410385272 38.25827546754412 8.050776843084659 1 0 0
1040 1 3 0.053 7.1418013256210795 34.38291618969234 5.011264064614251 1 0 1
864 1 3 0.1268 8.095335968592082 33.861826159116674 6.8525149142326764 1 0 1
6609 7 1 -0.159 7.669689535248871 36.41580581025275 9.76509053799817 1 0 0
6618 7 2 -0.1268 6.299624039619631 38.84151319574022 8.944889972649868 1 0 0
862 1 3 0.1268 9.638689279716719 35.43500638685177 7.855394477897473 1 0 1
861 1 2 -0.1268 9.655188403863821 34.32474670176378 8.22821627555266 1 0 1
6617 7 2 0 5.89113480558666 38.25820247920471 10.125404550577384 1 0 0
6610 7 3 0.053 7.677368776248878 35.63504865097397 9.05465959516123 1 0 0
2609 3 1 -0.159 23.329142351824345 43.75798793899032 5.488255453073039 0 1 1
6608 7 1 0 6.161468578769882 36.76640640056007 10.324687745669618 1 0 0
4016 4 3 0.053 14.802145601627712 46.778105483432526 27.786420233531786 1 0 -1
6616 7 3 0.053 5.358832268302342 36.0983467721002 8.238655317649432 1 0 0
857 1 2 -0.1268 10.544791510380435 38.60165131638835 8.497577366876273 1 0 1
821 1 3 0.053 13.296164439922412 33.48039684737563 9.864090441506773 1 0 1
817 1 2 0 10.719715970215228 34.01845716430343 9.02232469655197 1 0 1
832 1 2 0.0265 11.341519352276158 38.74067834422989 7.248304782426268 1 0 1
2591 3 2 -0.1268 15.002479400092403 33.683368225464974 5.421847896995303 0 1 1
2592 3 3 0.1268 14.036363000463725 34.166536658749116 5.664409895890921 0 1 1
831 1 3 0.1268 12.875361813519486 37.91110442341459 6.016139514522731 1 0 1
830 1 2 -0.1268 12.1955522529651 37.688131065256734 6.8794970634763555 1 0 1
829 1 3 0.1268 12.834765378128509 35.721040555226935 6.95438913081548 1 0 1
1704 2 3 0.1268 14.894640670719827 37.06932558494025 9.72578692043701 -1 2 1
828 1 2 -0.1268 12.438019881046198 36.578921294169945 7.611260818147926 1 0 1
827 1 2 0 11.797826388155357 36.4305497643568 8.863459068636104 1 0 1
2590 3 3 0.1268 16.477067988908328 35.15449524271348 6.0563336000151775 0 1 1
2589 3 2 -0.1268 16.254124286978225 34.20166577870498 5.6047407490241765 0 1 1
822 1 3 0.053 13.508852441769523 34.200197285188345 8.242666730314127 1 0 1
820 1 3 0.053 14.089321583132897 35.12765448666654 9.453323788417483 1 0 1