units real
atom_style full
boundary p p p

# --- Force Field Styles ---
pair_style lj/class2/coul/long 9.5 9.5
kspace_style pppm 1e-6
dielectric 1.000000
bond_style class2
angle_style class2
dihedral_style class2
improper_style class2
special_bonds lj/coul 0 0 1
pair_modify mix sixthpower tail yes
neighbor 2.0 bin
neigh_modify delay 0 every 1 check yes
neigh_modify one 4000
# KOKKOS: package loaded via -pk kokkos on the command line

read_data /home/alexzhao/PolyJarvis/data/PS3/lammps/equil/npt_cool300/npt_cool300_out.data
Reading data file ...
  orthogonal box = (4.6816685 4.6816685 4.6816685) to (46.053016 46.053016 46.053016)
  1 by 1 by 1 MPI processor grid
  reading atoms ...
  6420 atoms
  reading velocities ...
  6420 velocities
  scanning bonds ...
  4 = max bonds/atom
  scanning angles ...
  14 = max angles/atom
  scanning dihedrals ...
  34 = max dihedrals/atom
  scanning impropers ...
  11 = max impropers/atom
  orthogonal box = (4.6816685 4.6816685 4.6816685) to (46.053016 46.053016 46.053016)
  1 by 1 by 1 MPI processor grid
  reading bonds ...
  6810 bonds
  reading angles ...
  12000 angles
  reading dihedrals ...
  19110 dihedrals
  reading impropers ...
  5600 impropers
Finding 1-2 1-3 1-4 neighbors ...
  special bond factors lj:    0        0        1       
  special bond factors coul:  0        0        1       
     4 = max # of 1-2 neighbors
     8 = max # of 1-3 neighbors
    12 = max # of special neighbors
  special bonds CPU = 0.003 seconds
  read_data CPU = 0.276 seconds
include /home/alexzhao/PolyJarvis/data/PS3/lammps/equil/emc_build.params
# LAMMPS parameters created by EMC v9.4.4, build Jul 31 2025 20:33:44

# Variables

variable	seed		index	472913
variable	ntotal		index	6420
variable	fshape		index	1
variable	output		index	emc_build
variable	field		index	pcff/pcff
variable	location1	index	~/emc/field/
variable	nav		index	0.6022141179
variable	temperature	index	300
variable	radius		index	5
variable	nrelax		index	100
variable	weight_nonbond	index	0.0001
variable	weight_bond	index	0.0001
variable	weight_focus	index	1
variable	cutoff		index	9.5
variable	charge_cutoff	index	9.5
variable	kappa		index	4
variable	density1	index	0.53
variable	lprevious	index	0
variable	lphase		index	50.7346850343
variable	f_poly		index	10
variable	chem_repeat	index	*CC(c1ccccc1)*
variable	chem_cap	index	*[H]
variable	lg_repeat	index	16
variable	lg_cap		index	1
variable	norm_poly	index	100
variable	l_poly		index	642
variable	mg_repeat	index	92.14181
variable	mg_cap		index	1.00797
variable	m_poly		index	3687.68834
variable	n_poly		index	10
variable	mtotal		index	41681.3434
variable	nphase1		index	6420
variable	mphase1		index	41681.3434
variable	vphase1		index	130591.498627
variable	lbox		index	50.7346850343
variable	lphase1		index	50.7346850343
variable	lxx		index	50.7346850343
variable	lyy		index	50.7346850343
variable	lzz		index	50.7346850343
variable	lzy		index	0
variable	lzx		index	0
variable	lyx		index	0
variable	vtotal		index	130591.498627
variable	nl_poly		index	10

# Types

variable	type_c		index	1
variable	type_c1		index	2
variable	type_cp		index	3
variable	type_hc		index	4

variable	type_bond_c_c	index	1
variable	type_bond_c_c1	index	2
variable	type_bond_c_cp	index	3
variable	type_bond_c_hc	index	4
variable	type_bond_c1_cp	index	5
variable	type_bond_c1_hc	index	6
variable	type_bond_cp_cp	index	7
variable	type_bond_cp_hc	index	8

variable	type_angle_c_c_c1 index	1
variable	type_angle_c_c_cp index	2
variable	type_angle_c_c_hc index	3
variable	type_angle_c_c1_c index	4
variable	type_angle_c_c1_cp index	5
variable	type_angle_c_c1_hc index	6
variable	type_angle_c_cp_cp index	7
variable	type_angle_c1_c_c1 index	8
variable	type_angle_c1_c_hc index	9
variable	type_angle_c1_cp_cp index	10
variable	type_angle_cp_c_hc index	11
variable	type_angle_cp_c1_hc index	12
variable	type_angle_cp_cp_cp index	13
variable	type_angle_cp_cp_hc index	14
variable	type_angle_hc_c_hc index	15

# Clusters

variable	n0_poly		index	1
variable	n1_poly		index	10
variable	nl_poly		index	10

# Flags

variable	flag_charged	index	1

# Masses

mass		1    12.01115  # c
mass		2    12.01115  # c1
mass		3    12.01115  # cp
mass		4     1.00797  # hc

# Potentials

pair_modify	mix sixthpower tail yes
special_bonds	lj/coul 0 0 1

# Pair Coeffs

pair_coeff	 1  1    0.05400    4.01000  # c,c
pair_coeff	 2  2    0.05400    4.01000  # c1,c1
pair_coeff	 3  3    0.06400    4.01000  # cp,cp
pair_coeff	 4  4    0.02000    2.99500  # hc,hc

# Bond Coeffs

bond_coeff	1    1.53000  299.67000 -501.77000  679.81000  # c,c
bond_coeff	2    1.53000  299.67000 -501.77000  679.81000  # c,c1
bond_coeff	3    1.50100  321.90210 -521.82080  572.16280  # c,cp
bond_coeff	4    1.10100  345.00000 -691.89000  844.60000  # c,hc
bond_coeff	5    1.50100  321.90210 -521.82080  572.16280  # c1,cp
bond_coeff	6    1.10100  345.00000 -691.89000  844.60000  # c1,hc
bond_coeff	7    1.41700  470.83610 -627.61790 1327.63450  # cp,cp
bond_coeff	8    1.09820  372.82510 -803.45260  894.31730  # cp,hc

# Angle Coeffs

angle_coeff	 1  112.67000   39.51600   -7.44300   -9.55830  # c,c,c1
angle_coeff	 2  108.40000   43.95940   -8.39240   -9.33790  # c,c,cp
angle_coeff	 3  110.77000   41.45300  -10.60400    5.12900  # c,c,hc
angle_coeff	 4  112.67000   39.51600   -7.44300   -9.55830  # c,c1,c
angle_coeff	 5  108.40000   43.95940   -8.39240   -9.33790  # c,c1,cp
angle_coeff	 6  110.77000   41.45300  -10.60400    5.12900  # c,c1,hc
angle_coeff	 7  120.05000   44.71480  -22.73520    0.00000  # c,cp,cp
angle_coeff	 8  112.67000   39.51600   -7.44300   -9.55830  # c1,c,c1
angle_coeff	 9  110.77000   41.45300  -10.60400    5.12900  # c1,c,hc
angle_coeff	10  120.05000   44.71480  -22.73520    0.00000  # c1,cp,cp
angle_coeff	11  111.00000   44.32340   -9.44540    0.00000  # cp,c,hc
angle_coeff	12  111.00000   44.32340   -9.44540    0.00000  # cp,c1,hc
angle_coeff	13  118.90000   61.02260  -34.99310    0.00000  # cp,cp,cp
angle_coeff	14  117.94000   35.15580  -12.46820    0.00000  # cp,cp,hc
angle_coeff	15  107.66000   39.64100  -12.92100   -2.43180  # hc,c,hc

# BondBond Coeffs

angle_coeff	 1 bb    0.00000    1.53000    1.53000  # c,c,c1
angle_coeff	 2 bb    0.00000    1.53000    1.50100  # c,c,cp
angle_coeff	 3 bb    3.38720    1.53000    1.10100  # c,c,hc
angle_coeff	 4 bb    0.00000    1.53000    1.53000  # c,c1,c
angle_coeff	 5 bb    0.00000    1.53000    1.50100  # c,c1,cp
angle_coeff	 6 bb    3.38720    1.53000    1.10100  # c,c1,hc
angle_coeff	 7 bb   12.06760    1.50100    1.41700  # c,cp,cp
angle_coeff	 8 bb    0.00000    1.53000    1.53000  # c1,c,c1
angle_coeff	 9 bb    3.38720    1.53000    1.10100  # c1,c,hc
angle_coeff	10 bb   12.06760    1.50100    1.41700  # c1,cp,cp
angle_coeff	11 bb    2.91680    1.50100    1.10100  # cp,c,hc
angle_coeff	12 bb    2.91680    1.50100    1.10100  # cp,c1,hc
angle_coeff	13 bb   68.28560    1.41700    1.41700  # cp,cp,cp
angle_coeff	14 bb    1.07950    1.41700    1.09820  # cp,cp,hc
angle_coeff	15 bb    5.33160    1.10100    1.10100  # hc,c,hc

# BondAngle Coeffs

angle_coeff	 1 ba    8.01600    8.01600    1.53000    1.53000  # c,c,c1
angle_coeff	 2 ba    0.00000    0.00000    1.53000    1.50100  # c,c,cp
angle_coeff	 3 ba   20.75400   11.42100    1.53000    1.10100  # c,c,hc
angle_coeff	 4 ba    8.01600    8.01600    1.53000    1.53000  # c,c1,c
angle_coeff	 5 ba    0.00000    0.00000    1.53000    1.50100  # c,c1,cp
angle_coeff	 6 ba   20.75400   11.42100    1.53000    1.10100  # c,c1,hc
angle_coeff	 7 ba   47.05790   31.07710    1.50100    1.41700  # c,cp,cp
angle_coeff	 8 ba    8.01600    8.01600    1.53000    1.53000  # c1,c,c1
angle_coeff	 9 ba   20.75400   11.42100    1.53000    1.10100  # c1,c,hc
angle_coeff	10 ba   47.05790   31.07710    1.50100    1.41700  # c1,cp,cp
angle_coeff	11 ba   26.46080   11.77170    1.50100    1.10100  # cp,c,hc
angle_coeff	12 ba   26.46080   11.77170    1.50100    1.10100  # cp,c1,hc
angle_coeff	13 ba   28.87080   28.87080    1.41700    1.41700  # cp,cp,cp
angle_coeff	14 ba   20.00330   24.21830    1.41700    1.09820  # cp,cp,hc
angle_coeff	15 ba   18.10300   18.10300    1.10100    1.10100  # hc,c,hc

# Dihedral Coeffs

dihedral_coeff	 1    0.00000    0.00000    0.05140    0.00000   -0.14300    0.00000  # c,c,c1,c
dihedral_coeff	 2    0.00000    0.00000    0.00000    0.00000    0.15800  180.00000  # c,c,c1,cp
dihedral_coeff	 3    0.00000    0.00000    0.03160    0.00000   -0.16810    0.00000  # c,c,c1,hc
dihedral_coeff	 4   -0.28020    0.00000   -0.06780    0.00000   -0.01220    0.00000  # c,c,cp,cp
dihedral_coeff	 5    0.00000    0.00000    0.05140    0.00000   -0.14300    0.00000  # c,c1,c,c1
dihedral_coeff	 6    0.00000    0.00000    0.03160    0.00000   -0.16810    0.00000  # c,c1,c,hc
dihedral_coeff	 7   -0.28020    0.00000   -0.06780    0.00000   -0.01220    0.00000  # c,c1,cp,cp
dihedral_coeff	 8    0.00000    0.00000    4.40720    0.00000    0.00000    0.00000  # c,cp,cp,cp
dihedral_coeff	 9    0.00000    0.00000    1.55900    0.00000    0.00000    0.00000  # c,cp,cp,hc
dihedral_coeff	10    0.00000    0.00000    0.00000    0.00000    0.15800  180.00000  # c1,c,c,cp
dihedral_coeff	11    0.00000    0.00000    0.03160    0.00000   -0.16810    0.00000  # c1,c,c,hc
dihedral_coeff	12    0.00000    0.00000    0.00000    0.00000    0.15800  180.00000  # c1,c,c1,cp
dihedral_coeff	13    0.00000    0.00000    0.03160    0.00000   -0.16810    0.00000  # c1,c,c1,hc
dihedral_coeff	14    0.00000    0.00000    4.40720    0.00000    0.00000    0.00000  # c1,cp,cp,cp
dihedral_coeff	15    0.00000    0.00000    1.55900    0.00000    0.00000    0.00000  # c1,cp,cp,hc
dihedral_coeff	16   -0.02280    0.00000    0.02800    0.00000   -0.18630    0.00000  # cp,c,c,hc
dihedral_coeff	17   -0.02280    0.00000    0.02800    0.00000   -0.18630    0.00000  # cp,c1,c,hc
dihedral_coeff	18   -0.28010    0.00000   -0.06780    0.00000   -0.01220    0.00000  # cp,cp,c,hc
dihedral_coeff	19   -0.28010    0.00000   -0.06780    0.00000   -0.01220    0.00000  # cp,cp,c1,hc
dihedral_coeff	20    8.36670    0.00000    1.19320    0.00000    0.00000    0.00000  # cp,cp,cp,cp
dihedral_coeff	21    0.00000    0.00000    3.96610    0.00000    0.00000    0.00000  # cp,cp,cp,hc
dihedral_coeff	22   -0.14320    0.00000    0.06170    0.00000   -0.10830    0.00000  # hc,c,c,hc
dihedral_coeff	23   -0.14320    0.00000    0.06170    0.00000   -0.10830    0.00000  # hc,c,c1,hc
dihedral_coeff	24    0.00000    0.00000    1.87690    0.00000    0.00000    0.00000  # hc,cp,cp,hc

# MiddleBondTorsion Coeffs

dihedral_coeff	 1 mbt  -17.78700   -7.18770    0.00000    1.53000  # c,c,c1,c
dihedral_coeff	 2 mbt    0.00000    0.00000    0.00000    1.53000  # c,c,c1,cp
dihedral_coeff	 3 mbt  -14.87900   -3.65810   -0.31380    1.53000  # c,c,c1,hc
dihedral_coeff	 4 mbt    0.00000    0.00000    0.00000    1.50100  # c,c,cp,cp
dihedral_coeff	 5 mbt  -17.78700   -7.18770    0.00000    1.53000  # c,c1,c,c1
dihedral_coeff	 6 mbt  -14.87900   -3.65810   -0.31380    1.53000  # c,c1,c,hc
dihedral_coeff	 7 mbt    0.00000    0.00000    0.00000    1.50100  # c,c1,cp,cp
dihedral_coeff	 8 mbt    0.00000    9.17920    0.00000    1.41700  # c,cp,cp,cp
dihedral_coeff	 9 mbt    0.00000    3.94210    0.00000    1.41700  # c,cp,cp,hc
dihedral_coeff	10 mbt    0.00000    0.00000    0.00000    1.53000  # c1,c,c,cp
dihedral_coeff	11 mbt  -14.87900   -3.65810   -0.31380    1.53000  # c1,c,c,hc
dihedral_coeff	12 mbt    0.00000    0.00000    0.00000    1.53000  # c1,c,c1,cp
dihedral_coeff	13 mbt  -14.87900   -3.65810   -0.31380    1.53000  # c1,c,c1,hc
dihedral_coeff	14 mbt    0.00000    9.17920    0.00000    1.41700  # c1,cp,cp,cp
dihedral_coeff	15 mbt    0.00000    3.94210    0.00000    1.41700  # c1,cp,cp,hc
dihedral_coeff	16 mbt    0.00000    0.00000    0.00000    1.53000  # cp,c,c,hc
dihedral_coeff	17 mbt    0.00000    0.00000    0.00000    1.53000  # cp,c1,c,hc
dihedral_coeff	18 mbt   -5.56790    1.40830    0.30100    1.50100  # cp,cp,c,hc
dihedral_coeff	19 mbt   -5.56790    1.40830    0.30100    1.50100  # cp,cp,c1,hc
dihedral_coeff	20 mbt   27.59890   -2.31200    0.00000    1.41700  # cp,cp,cp,cp
dihedral_coeff	21 mbt    0.00000   -1.15210    0.00000    1.41700  # cp,cp,cp,hc
dihedral_coeff	22 mbt  -14.26100   -0.53220   -0.48640    1.53000  # hc,c,c,hc
dihedral_coeff	23 mbt  -14.26100   -0.53220   -0.48640    1.53000  # hc,c,c1,hc
dihedral_coeff	24 mbt    0.00000    4.82280    0.00000    1.41700  # hc,cp,cp,hc

# EndBondTorsion Coeffs

dihedral_coeff	 1 ebt   -0.07320    0.00000    0.00000   -0.07320    0.00000    0.00000    1.53000    1.53000  # c,c,c1,c
dihedral_coeff	 2 ebt    0.00000    0.00000    0.00000    0.00000    0.00000    0.00000    1.53000    1.50100  # c,c,c1,cp
dihedral_coeff	 3 ebt    0.24860    0.24220   -0.09250    0.08140    0.05910    0.22190    1.53000    1.10100  # c,c,c1,hc
dihedral_coeff	 4 ebt    0.00000    0.00000    0.00000    0.00000    0.00000    0.00000    1.53000    1.41700  # c,c,cp,cp
dihedral_coeff	 5 ebt   -0.07320    0.00000    0.00000   -0.07320    0.00000    0.00000    1.53000    1.53000  # c,c1,c,c1
dihedral_coeff	 6 ebt    0.24860    0.24220   -0.09250    0.08140    0.05910    0.22190    1.53000    1.10100  # c,c1,c,hc
dihedral_coeff	 7 ebt    0.00000    0.00000    0.00000    0.00000    0.00000    0.00000    1.53000    1.41700  # c,c1,cp,cp
dihedral_coeff	 8 ebt    0.00000    0.24210    0.00000    0.00000   -0.69180    0.00000    1.50100    1.41700  # c,cp,cp,cp
dihedral_coeff	 9 ebt    0.00000   -1.79700    0.00000    0.00000   -0.48790    0.00000    1.50100    1.09820  # c,cp,cp,hc
dihedral_coeff	10 ebt    0.00000    0.00000    0.00000    0.00000    0.00000    0.00000    1.53000    1.50100  # c1,c,c,cp
dihedral_coeff	11 ebt    0.24860    0.24220   -0.09250    0.08140    0.05910    0.22190    1.53000    1.10100  # c1,c,c,hc
dihedral_coeff	12 ebt    0.00000    0.00000    0.00000    0.00000    0.00000    0.00000    1.53000    1.50100  # c1,c,c1,cp
dihedral_coeff	13 ebt    0.24860    0.24220   -0.09250    0.08140    0.05910    0.22190    1.53000    1.10100  # c1,c,c1,hc
dihedral_coeff	14 ebt    0.00000    0.24210    0.00000    0.00000   -0.69180    0.00000    1.50100    1.41700  # c1,cp,cp,cp
dihedral_coeff	15 ebt    0.00000   -1.79700    0.00000    0.00000   -0.48790    0.00000    1.50100    1.09820  # c1,cp,cp,hc
dihedral_coeff	16 ebt    0.00000    0.00000    0.00000    0.00000    0.00000    0.00000    1.50100    1.10100  # cp,c,c,hc
dihedral_coeff	17 ebt    0.00000    0.00000    0.00000    0.00000    0.00000    0.00000    1.50100    1.10100  # cp,c1,c,hc
dihedral_coeff	18 ebt   -0.58350    1.12200    0.39780    1.39970    0.77560    0.00000    1.41700    1.10100  # cp,cp,c,hc
dihedral_coeff	19 ebt   -0.58350    1.12200    0.39780    1.39970    0.77560    0.00000    1.41700    1.10100  # cp,cp,c1,hc
dihedral_coeff	20 ebt   -0.11850    6.32040    0.00000   -0.11850    6.32040    0.00000    1.41700    1.41700  # cp,cp,cp,cp
dihedral_coeff	21 ebt    0.00000   -6.89580    0.00000    0.00000   -0.46690    0.00000    1.41700    1.09820  # cp,cp,cp,hc
dihedral_coeff	22 ebt    0.21300    0.31200    0.07770    0.21300    0.31200    0.07770    1.10100    1.10100  # hc,c,c,hc
dihedral_coeff	23 ebt    0.21300    0.31200    0.07770    0.21300    0.31200    0.07770    1.10100    1.10100  # hc,c,c1,hc
dihedral_coeff	24 ebt    0.00000   -0.68900    0.00000    0.00000   -0.68900    0.00000    1.09820    1.09820  # hc,cp,cp,hc

# AngleTorsion Coeffs

dihedral_coeff	 1 at    0.38860   -0.31390    0.13890    0.38860   -0.31390    0.13890  112.67000  112.67000  # c,c,c1,c
dihedral_coeff	 2 at    0.00000    0.00000    0.00000    0.00000    0.00000    0.00000  112.67000  108.40000  # c,c,c1,cp
dihedral_coeff	 3 at   -0.24540    0.00000   -0.11360    0.31130    0.45160   -0.19880  112.67000  110.77000  # c,c,c1,hc
dihedral_coeff	 4 at    0.00000    0.00000    0.00000    0.00000    0.00000    0.00000  108.40000  120.05000  # c,c,cp,cp
dihedral_coeff	 5 at    0.38860   -0.31390    0.13890    0.38860   -0.31390    0.13890  112.67000  112.67000  # c,c1,c,c1
dihedral_coeff	 6 at   -0.24540    0.00000   -0.11360    0.31130    0.45160   -0.19880  112.67000  110.77000  # c,c1,c,hc
dihedral_coeff	 7 at    0.00000    0.00000    0.00000    0.00000    0.00000    0.00000  108.40000  120.05000  # c,c1,cp,cp
dihedral_coeff	 8 at    0.00000   -4.46830    0.00000    0.00000    3.89870    0.00000  120.05000  118.90000  # c,cp,cp,cp
dihedral_coeff	 9 at    0.00000   -0.12420    0.00000    0.00000    3.46010    0.00000  120.05000  117.94000  # c,cp,cp,hc
dihedral_coeff	10 at    0.00000    0.00000    0.00000    0.00000    0.00000    0.00000  112.67000  108.40000  # c1,c,c,cp
dihedral_coeff	11 at   -0.24540    0.00000   -0.11360    0.31130    0.45160   -0.19880  112.67000  110.77000  # c1,c,c,hc
dihedral_coeff	12 at    0.00000    0.00000    0.00000    0.00000    0.00000    0.00000  112.67000  108.40000  # c1,c,c1,cp
dihedral_coeff	13 at   -0.24540    0.00000   -0.11360    0.31130    0.45160   -0.19880  112.67000  110.77000  # c1,c,c1,hc
dihedral_coeff	14 at    0.00000   -4.46830    0.00000    0.00000    3.89870    0.00000  120.05000  118.90000  # c1,cp,cp,cp
dihedral_coeff	15 at    0.00000   -0.12420    0.00000    0.00000    3.46010    0.00000  120.05000  117.94000  # c1,cp,cp,hc
dihedral_coeff	16 at    0.00000    0.00000    0.00000    0.00000    0.00000    0.00000  108.40000  110.77000  # cp,c,c,hc
dihedral_coeff	17 at    0.00000    0.00000    0.00000    0.00000    0.00000    0.00000  108.40000  110.77000  # cp,c1,c,hc
dihedral_coeff	18 at    0.22510    0.65480    0.12370    4.62660    0.16320    0.04610  120.05000  111.00000  # cp,cp,c,hc
dihedral_coeff	19 at    0.22510    0.65480    0.12370    4.62660    0.16320    0.04610  120.05000  111.00000  # cp,cp,c1,hc
dihedral_coeff	20 at    1.97670    1.02390    0.00000    1.97670    1.02390    0.00000  118.90000  118.90000  # cp,cp,cp,cp
dihedral_coeff	21 at    0.00000    2.50140    0.00000    0.00000    2.71470    0.00000  118.90000  117.94000  # cp,cp,cp,hc
dihedral_coeff	22 at   -0.80850    0.55690   -0.24660   -0.80850    0.55690   -0.24660  110.77000  110.77000  # hc,c,c,hc
dihedral_coeff	23 at   -0.80850    0.55690   -0.24660   -0.80850    0.55690   -0.24660  110.77000  110.77000  # hc,c,c1,hc
dihedral_coeff	24 at    0.00000    2.45010    0.00000    0.00000    2.45010    0.00000  117.94000  117.94000  # hc,cp,cp,hc

# AngleAngleTorsion Coeffs

dihedral_coeff	 1 aat  -22.04500  112.67000  112.67000  # c,c,c1,c
dihedral_coeff	 2 aat    0.00000  112.67000  108.40000  # c,c,c1,cp
dihedral_coeff	 3 aat  -16.16400  112.67000  110.77000  # c,c,c1,hc
dihedral_coeff	 4 aat    0.00000  108.40000  120.05000  # c,c,cp,cp
dihedral_coeff	 5 aat  -22.04500  112.67000  112.67000  # c,c1,c,c1
dihedral_coeff	 6 aat  -16.16400  112.67000  110.77000  # c,c1,c,hc
dihedral_coeff	 7 aat    0.00000  108.40000  120.05000  # c,c1,cp,cp
dihedral_coeff	 8 aat  -14.40970  120.05000  118.90000  # c,cp,cp,cp
dihedral_coeff	 9 aat    4.44440  120.05000  117.94000  # c,cp,cp,hc
dihedral_coeff	10 aat    0.00000  112.67000  108.40000  # c1,c,c,cp
dihedral_coeff	11 aat  -16.16400  112.67000  110.77000  # c1,c,c,hc
dihedral_coeff	12 aat    0.00000  112.67000  108.40000  # c1,c,c1,cp
dihedral_coeff	13 aat  -16.16400  112.67000  110.77000  # c1,c,c1,hc
dihedral_coeff	14 aat  -14.40970  120.05000  118.90000  # c1,cp,cp,cp
dihedral_coeff	15 aat    4.44440  120.05000  117.94000  # c1,cp,cp,hc
dihedral_coeff	16 aat    0.00000  108.40000  110.77000  # cp,c,c,hc
dihedral_coeff	17 aat    0.00000  108.40000  110.77000  # cp,c1,c,hc
dihedral_coeff	18 aat   -5.88880  120.05000  111.00000  # cp,cp,c,hc
dihedral_coeff	19 aat   -5.88880  120.05000  111.00000  # cp,cp,c1,hc
dihedral_coeff	20 aat    0.00000  118.90000  118.90000  # cp,cp,cp,cp
dihedral_coeff	21 aat   -4.81410  118.90000  117.94000  # cp,cp,cp,hc
dihedral_coeff	22 aat  -12.56400  110.77000  110.77000  # hc,c,c,hc
dihedral_coeff	23 aat  -12.56400  110.77000  110.77000  # hc,c,c1,hc
dihedral_coeff	24 aat    0.35980  117.94000  117.94000  # hc,cp,cp,hc

# BondBond13 Coeffs

dihedral_coeff	 1 bb13    0.00000    1.53000    1.53000  # c,c,c1,c
dihedral_coeff	 2 bb13    0.00000    1.53000    1.50100  # c,c,c1,cp
dihedral_coeff	 3 bb13    0.00000    1.53000    1.10100  # c,c,c1,hc
dihedral_coeff	 4 bb13    0.00000    1.53000    1.41700  # c,c,cp,cp
dihedral_coeff	 5 bb13    0.00000    1.53000    1.53000  # c,c1,c,c1
dihedral_coeff	 6 bb13    0.00000    1.53000    1.10100  # c,c1,c,hc
dihedral_coeff	 7 bb13    0.00000    1.53000    1.41700  # c,c1,cp,cp
dihedral_coeff	 8 bb13    2.50850    1.50100    1.41700  # c,cp,cp,cp
dihedral_coeff	 9 bb13    0.87430    1.50100    1.09820  # c,cp,cp,hc
dihedral_coeff	10 bb13    0.00000    1.53000    1.50100  # c1,c,c,cp
dihedral_coeff	11 bb13    0.00000    1.53000    1.10100  # c1,c,c,hc
dihedral_coeff	12 bb13    0.00000    1.53000    1.50100  # c1,c,c1,cp
dihedral_coeff	13 bb13    0.00000    1.53000    1.10100  # c1,c,c1,hc
dihedral_coeff	14 bb13    2.50850    1.50100    1.41700  # c1,cp,cp,cp
dihedral_coeff	15 bb13    0.87430    1.50100    1.09820  # c1,cp,cp,hc
dihedral_coeff	16 bb13    0.00000    1.50100    1.10100  # cp,c,c,hc
dihedral_coeff	17 bb13    0.00000    1.50100    1.10100  # cp,c1,c,hc
dihedral_coeff	18 bb13   -3.48260    1.41700    1.10100  # cp,cp,c,hc
dihedral_coeff	19 bb13   -3.48260    1.41700    1.10100  # cp,cp,c1,hc
dihedral_coeff	20 bb13   53.00000    1.41700    1.41700  # cp,cp,cp,cp
dihedral_coeff	21 bb13   -6.27410    1.41700    1.09820  # cp,cp,cp,hc
dihedral_coeff	22 bb13    0.00000    1.10100    1.10100  # hc,c,c,hc
dihedral_coeff	23 bb13    0.00000    1.10100    1.10100  # hc,c,c1,hc
dihedral_coeff	24 bb13   -1.70770    1.09820    1.09820  # hc,cp,cp,hc

# Improper Coeffs

improper_coeff	 1    0.00000    0.00000  # c,c,cp,hc
improper_coeff	 2    0.00000    0.00000  # c,c,hc,c1
improper_coeff	 3    0.00000    0.00000  # c,c,hc,cp
improper_coeff	 4    0.00000    0.00000  # c,c,hc,hc
improper_coeff	 5    0.00000    0.00000  # c,c1,c1,hc
improper_coeff	 6    0.00000    0.00000  # c,c1,hc,hc
improper_coeff	 7    0.00000    0.00000  # c,cp,hc,hc
improper_coeff	 8    0.00000    0.00000  # c,hc,hc,hc
improper_coeff	 9    0.00000    0.00000  # c1,c,c,cp
improper_coeff	10    0.00000    0.00000  # c1,c,c,hc
improper_coeff	11    0.00000    0.00000  # c1,c,cp,hc
improper_coeff	12    7.81530    0.00000  # cp,c,cp,cp
improper_coeff	13    7.81530    0.00000  # cp,c1,cp,cp
improper_coeff	14    4.89120    0.00000  # cp,cp,cp,hc

# AngleAngle Coeffs

improper_coeff	 1 aa    2.04030   -1.82020    1.08270  108.40000  110.77000  111.00000  # c,c,cp,hc
improper_coeff	 2 aa    0.11840   -1.31990   -1.31990  110.77000  112.67000  110.77000  # c,c,hc,c1
improper_coeff	 3 aa    1.08270   -1.82020    2.04030  110.77000  108.40000  111.00000  # c,c,hc,cp
improper_coeff	 4 aa    0.27380   -0.48250    0.27380  110.77000  110.77000  107.66000  # c,c,hc,hc
improper_coeff	 5 aa   -1.31990   -1.31990    0.11840  112.67000  110.77000  110.77000  # c,c1,c1,hc
improper_coeff	 6 aa    0.27380   -0.48250    0.27380  110.77000  110.77000  107.66000  # c,c1,hc,hc
improper_coeff	 7 aa    2.37940    3.01180    2.37940  111.00000  111.00000  107.66000  # c,cp,hc,hc
improper_coeff	 8 aa   -0.31570   -0.31570   -0.31570  107.66000  107.66000  107.66000  # c,hc,hc,hc
improper_coeff	 9 aa    0.00000    0.00000    0.00000  112.67000  108.40000  108.40000  # c1,c,c,cp
improper_coeff	10 aa   -1.31990   -1.31990    0.11840  112.67000  110.77000  110.77000  # c1,c,c,hc
improper_coeff	11 aa    2.04030   -1.82020    1.08270  108.40000  110.77000  111.00000  # c1,c,cp,hc
improper_coeff	12 aa    0.00000    0.00000    0.00000  120.05000  120.05000  118.90000  # cp,c,cp,cp
improper_coeff	13 aa    0.00000    0.00000    0.00000  120.05000  120.05000  118.90000  # cp,c1,cp,cp
improper_coeff	14 aa    0.00000    0.00000    0.00000  118.90000  117.94000  117.94000  # cp,cp,cp,hc


# --- Thermo Output ---
thermo_style custom step time temp press enthalpy etotal ke pe ebond eangle edihed eimp evdwl ecoul elong etail vol lx ly lz density pxx pyy pzz
thermo_modify flush yes
thermo 1000

# --- Trajectory ---
dump dump_npt all custom 1000 npt_prod300.dump id type mol x y z ix iy iz vx vy vz

# --- Restart Checkpointing ---
# No restart checkpointing

# --- Initial Velocities (optional) ---
# Velocities read from data file

# --- SHAKE Constraints ---
# SHAKE disabled

# --- NPT Thermostat + Barostat (Nose-Hoover) ---
# T_damp = 100.0 fs  (heat bath coupling)
# P_damp = 1000.0 fs  (pressure bath coupling, ~10x T_damp typical)
# Ramp: T=300.0->300.0K  P=1.0->1.0atm
timestep 1.0
fix npt_fix all npt temp 300.0 300.0 100.0 iso 1.0 1.0 1000.0

run 2000000
PPPM Kokkos initialization ...
  using 12-bit tables for long-range coulomb
  G vector (1/distance) = 0.30237406
  grid = 30 30 30
  stencil order = 5
  estimated absolute RMS force accuracy = 0.00027390804
  estimated relative force accuracy = 8.2486593e-07
  using double precision cuFFT
  3d grid and FFT values/proc = 50653 27000
Generated 6 of 6 mixed pair_coeff terms from sixthpower/sixthpower mixing rule
Neighbor list info ...
  update: every = 1 steps, delay = 0 steps, check = yes
  max neighbors/atom: 4000, page size: 100000
  master list distance cutoff = 11.5
  ghost atom cutoff = 11.5
  binsize = 11.5, bins = 4 4 4
  1 neighbor lists, perpetual/occasional/extra = 1 0 0
  (1) pair lj/class2/coul/long/kk, perpetual
      attributes: full, newton off, kokkos_device
      pair build: full/bin/kk/device
      stencil: full/bin/3d
      bin: kk/device
Per MPI rank memory allocation (min/avg/max) = 41.85 | 41.85 | 41.85 Mbytes
   Step          Time           Temp          Press         Enthalpy        TotEng         KinEng         PotEng         E_bond        E_angle        E_dihed        E_impro         E_vdwl         E_coul         E_long         E_tail         Volume           Lx             Ly             Lz          Density          Pxx            Pyy            Pzz      
         0   0              298.2364      -753.71495      8638.0753      9416.438       5706.4015      3710.0365      2848.7232      2614.8825     -1973.1651      206.69777      135.37005      3833.9149     -3956.3868     -406.18562      70810.72       41.371348      41.371348      41.371348      0.97744371    -76.201605     -1674.0489     -510.89435    
      1000   1000           301.7791      -1099.4189      8457.6155      9588.1207      5774.1869      3813.9338      2883.7431      2683.4048     -1961.2341      209.62012      128.16951      3832.7992     -3962.5688     -407.93415      70507.205      41.312153      41.312153      41.312153      0.98165135    -876.2212      -1753.1199     -668.91541    
      2000   2000           296.53651     -1202.138       8149.483       9385.4246      5673.8762      3711.5484      2756.0839      2656.3633     -1938.0354      212.23445      152.81978      3828.8221     -3956.7398     -407.99592      70496.529      41.310068      41.310068      41.310068      0.98180001    -852.48432     -1690.0068     -1063.9228    
      3000   3000           304.06726     -236.26706      9338.3755      9579.5851      5817.9682      3761.6169      2935.7673      2669.1364     -2021.3405      203.59053      103.24738      3830.5026     -3959.2868     -410.87337      70002.825      41.213407      41.213407      41.213407      0.98872428     632.41592     -1812.204       470.98691    
      4000   4000           303.67413     -393.44315      9113.2833      9517.2437      5810.4461      3706.7976      2770.9588      2689.7372     -1945.4893      211.74541      99.06478       3843.3988     -3962.6181     -408.54757      70401.34       41.291467      41.291467      41.291467      0.98312749     17.456515     -881.67684     -316.10913    
      5000   5000           297.92973      388.59056      9821.3192      9424.5603      5700.5337      3724.0266      2839.541       2661.9095     -1991.4344      202.99128      128.43235      3839.0407     -3956.4538     -410.83274      70009.748      41.214766      41.214766      41.214766      0.98862651     326.42598     -325.02323      1164.3689    
      6000   6000           298.06331      242.39085      9794.2978      9548.3339      5703.0896      3845.2443      2852.5399      2681.8466     -1932.818       219.2645       146.90904      3836.4033     -3958.9011     -413.37514      69579.163      41.130097      41.130097      41.130097      0.99474454     80.743429     -136.83313      783.26225    
      7000   7000           301.09025     -936.61365      8532.6784      9487.7321      5761.0066      3726.7256      2815.0696      2607.5997     -1945.3723      206.48126      166.66376      3834.9643     -3958.6808     -411.36954      69918.392      41.196831      41.196831      41.196831      0.98991826    -216.16722     -1425.8426     -1167.8311    
      8000   8000           294.13834      1159.5414      10482.874      9292.589       5627.99        3664.599       2842.9482      2633.935      -2033.1688      200.9119       135.62835      3844.0052     -3959.6608     -408.63422      70386.413      41.288548      41.288548      41.288548      0.98333599     1353.3515      1067.7122      1057.5607    
      9000   9000           299.47252     -1033.034       8427.9289      9490.1757      5730.0532      3760.1226      2869.2204      2673.9881     -2002.2794      204.34907      149.43584      3825.1181     -3959.7096     -407.93281      70507.436      41.312199      41.312199      41.312199      0.98164813     726.64673     -1985.8959     -1839.853     
     10000   10000          298.1042       670.62772      10156.327      9464.9882      5703.8721      3761.1161      2923.8136      2659.3813     -2066.6772      206.39785      162.7928       3834.738      -3959.3301     -406.90242      70685.981      41.347041      41.347041      41.347041      0.9791686      322.61488      1766.6565     -77.388185    
     11000   11000          299.09641     -585.50895      8818.3367      9419.0955      5722.8568      3696.2387      2785.5489      2621.2067     -1965.3925      211.2649       164.99717      3837.1145     -3958.5009     -408.82068      70354.308      41.28227       41.28227       41.28227       0.98378471     797.00473     -2503.8302     -49.701412    
     12000   12000          299.91457      555.86834      10016.844      9448.6173      5738.5114      3710.1059      2888.7118      2634.0914     -2033.1738      199.45238      155.02964      3828.4257     -3962.4312     -410.34564      70092.853      41.231067      41.231067      41.231067      0.98745436    -296.80235      2062.7409     -98.333538    
     13000   13000          304.98701     -293.49449      9332.9967      9635.9488      5835.5665      3800.3822      3011.7099      2622.9156     -2047.9971      212.0822       123.67322      3834.6769     -3956.6786     -406.37352      70777.978      41.36497       41.36497       41.36497       0.97789587     118.20039     -615.14663     -383.53721    
     14000   14000          297.70113     -133.77489      9296.6055      9433.8914      5696.1597      3737.7317      2860.342       2683.3967     -1996.5367      210.87052      103.03528      3835.7621     -3959.1383     -408.74102      70368.021      41.284952      41.284952      41.284952      0.983593      -122.23699     -1057.7583      778.67061    
     15000   15000          300.59416     -32.351998      9330.7301      9363.753       5751.5145      3612.2386      2833.3824      2597.081      -2008.4586      203.49116      118.34761      3830.1305     -3961.7356     -410.94553      69990.533      41.210995      41.210995      41.210995      0.98889793     278.61392      876.7977      -1252.4676    
     16000   16000          302.91803     -777.6741       8714.1235      9516.2878      5795.9789      3720.3088      2865.9527      2639.161      -1998.2923      214.82963      127.91241      3829.2578     -3958.5124     -406.66217      70727.74       41.355181      41.355181      41.355181      0.97859048    -1380.5343      638.76876     -1591.2567    
     17000   17000          300.17723     -2018.0315      7468.4528      9516.6776      5743.537       3773.1406      2796.8461      2693.933      -1920.3146      213.22852      124.23159      3827.2961     -3962.0801     -413.28511      69594.32       41.133083      41.133083      41.133083      0.9945279     -1232.3697     -3142.9172     -1678.8075    
     18000   18000          302.35639      1150.7559      10685.984      9504.8517      5785.2327      3719.619       2927.0571      2598.6643     -2022.8193      218.56387      131.00403      3826.639      -3959.4901     -408.68081      70378.389      41.286979      41.286979      41.286979      0.98344811     1722.1012      823.61431      906.55209    
     19000   19000          300.50296     -1556.0912      7883.5544      9472.313       5749.7695      3722.5435      2874.9119      2665.3278     -1987.7686      206.60332      103.00502      3820.933      -3960.4689     -410.84365      70007.889      41.214401      41.214401      41.214401      0.98865277    -2017.5125     -1820.9628     -829.79841    
     20000   20000          301.82745      550.72603      10061.146      9494.6981      5775.112       3719.586       2819.1726      2655.6406     -1998.7484      206.25913      161.28996      3833.4675     -3957.4954     -407.82647      70525.82       41.315789      41.315789      41.315789      0.98139225    -140.9294       1745.6317      47.475822    
     21000   21000          297.64341      52.742769      9439.9338      9385.9393      5695.0554      3690.8839      2863.3713      2619.4848     -2016.8203      207.12031      139.7305       3834.3603     -3956.363      -409.7444       70195.704      41.251224      41.251224      41.251224      0.98600754     1072.9928     -696.24224     -218.52221    
     22000   22000          299.43033     -1899.1758      7482.0234      9424.6752      5729.2459      3695.4293      2845.3326      2609.2282     -1898.1653      205.72939      58.035177      3833.4817     -3958.2125     -410.08099      70138.088      41.239935      41.239935      41.239935      0.98681751    -2721.6621     -1267.8893     -1707.9759    
     23000   23000          302.45879      584.73311      10132.357      9534.3038      5787.1919      3747.1119      2888.4771      2711.3036     -2016.2496      202.3743       108.33248      3815.5899     -3962.7159     -410.12572      70130.439      41.238436      41.238436      41.238436      0.98692514     2195.4985      31.693605     -472.99283    
     24000   24000          298.11169     -490.22963      8921.5695      9420.9341      5704.0154      3716.9187      2826.2953      2738.1173     -2000.2362      206.00327      80.04314       3828.7654     -3962.0695     -411.79521      69846.117      41.182631      41.182631      41.182631      0.99094261     792.10583     -890.30687     -1372.4879    
     25000   25000          303.74349     -434.37241      9164.8838      9611.5642      5811.7731      3799.7911      2854.5026      2648.5097     -1944.4458      210.43466      152.09482      3836.2471     -3957.5521     -407.91045      70511.301      41.312953      41.312953      41.312953      0.98159432    -12.966795     -532.86794     -757.28248    
     26000   26000          302.93813     -118.63651      9387.3681      9508.8986      5796.3635      3712.535       2869.3099      2644.99       -2027.7903      204.23325      151.18552      3830.4105     -3959.8038     -409.48002      70241.025      41.2601        41.2601        41.2601        0.98537134     513.84953     -265.13328     -604.62579    
     27000   27000          294.15387     -109.10696      9170.9027      9282.1962      5628.2871      3653.9091      2862.2329      2589.9459     -2014.0417      205.93107      137.85424      3831.1814     -3959.1947     -411.22744      69942.552      41.201576      41.201576      41.201576      0.98957631     489.97719     -452.21247     -365.0856     
     28000   28000          301.43897     -759.20549      8742.747       9529.4054      5767.679       3761.7264      2879.4769      2635.4552     -1985.6789      217.35714      148.10178      3825.6216     -3958.6073     -404.82992      71047.853      41.417478      41.417478      41.417478      0.97418135     127.01987     -1605.8176     -798.8188     
     29000   29000          293.53533      76.106127      9417.877       9339.707       5616.4522      3723.2548      2958.6706      2708.6803     -2107.1351      209.21847      66.844849      3844.3894     -3957.4138     -408.39358      70427.886      41.296656      41.296656      41.296656      0.98275693    -152.96483      461.46304     -80.179827    
     30000   30000          301.70264     -734.67553      8790.2617      9540.5086      5772.7239      3767.7847      2823.1128      2663.0629     -1912.6513      203.13946      109.94544      3837.191      -3956.0155     -410.76252      70021.715      41.217114      41.217114      41.217114      0.98845755    -319.67203     -1352.6152     -531.7394     
     31000   31000          308.1917       1790.345       11539.152      9705.664       5896.8845      3808.7795      3034.2106      2630.8157     -2111.3606      201.98621      175.11914      3835.9002     -3957.8917     -409.59837      70220.73       41.256126      41.256126      41.256126      0.98565613     2226.7817      554.27679      2589.9767    
     32000   32000          298.7084       283.0708       9720.0809      9431.0694      5715.4327      3715.6366      2885.795       2598.8392     -1975.8063      212.68019      124.13727      3830.3164     -3960.3251     -410.84621      70007.452      41.214315      41.214315      41.214315      0.98865894     431.48877      1760.9299     -1343.2062    
     33000   33000          301.67071      1387.8547      10984.375      9564.4212      5772.113       3792.3082      2910.6263      2649.7415     -2024.0382      207.30196      176.18         3830.0488     -3957.5522     -409.98629      70154.289      41.24311       41.24311       41.24311       0.98658961     1168.2032      717.73959      2277.6212    
     34000   34000          300.07806     -336.40536      9126.283       9470.998       5741.6394      3729.3586      2892.0746      2647.5048     -2058.522       206.61709      179.39928      3823.7123     -3961.4275     -409.3569       70262.152      41.264237      41.264237      41.264237      0.98507505    -284.26093     -89.856298     -635.09884    
     35000   35000          295.98664     -757.70696      8662.2784      9442.5288      5663.355       3779.1737      2881.5554      2656.8006     -1968.7198      209.05214      122.86878      3831.0604     -3953.4438     -407.34906      70608.476      41.331923      41.331923      41.331923      0.9802434      743.67263     -1809.4779     -1207.3156    
     36000   36000          299.95716     -16.908217      9469.7023      9487.0209      5739.3263      3747.6946      2894.3004      2688.4658     -2049.5213      201.56852      146.55622      3827.0622     -3960.7373     -409.52852      70232.708      41.258472      41.258472      41.258472      0.98548804     313.77092     -830.59253      466.09696    
     37000   37000          305.39492     -46.194846      9593.2793      9640.9632      5843.3713      3797.5919      2891.4089      2616.0044     -1973.6254      212.46651      178.42061      3831.0031     -3958.0863     -406.36981      70778.625      41.365096      41.365096      41.365096      0.97788694     97.957798     -528.92211      292.37977    
     38000   38000          301.02499     -165.21202      9277.3731      9445.9692      5759.758       3686.2112      2857.4596      2651.1431     -1982.0219      200.04592      87.466388      3833.9623     -3961.8442     -411.04907      69972.902      41.207534      41.207534      41.207534      0.98914709     241.95011      239.4367      -977.02288    
     39000   39000          300.22291     -674.37645      8871.3333      9565.1273      5744.411       3820.7162      2933.2698      2678.1201     -2007.1123      209.08199      129.22379      3835.1201     -3956.9871     -407.72876      70542.722      41.319089      41.319089      41.319089      0.9811571      601.81455     -967.77258     -1657.1713    
     40000   40000          303.16804      12.467843      9540.6732      9527.8815      5800.7627      3727.1189      2821.0222      2662.764      -1996.3302      198.77699      166.70797      3833.086      -3958.9081     -408.84964      70349.326      41.281295      41.281295      41.281295      0.98385439     155.75925     -171.75577      53.400046    
     41000   41000          296.37231      108.70949      9508.0043      9397.053       5670.7344      3726.3186      2875.464       2642.46       -2000.5204      202.15928      134.65999      3831.7728     -3959.6771     -410.99315      69982.423      41.209403      41.209403      41.209403      0.98901253    -232.50194     -839.65981      1398.2902    
     42000   42000          302.8396       1084.8684      10700.122      9587.096       5794.4783      3792.6177      2999.9513      2664.1488     -2103.0672      205.04614      154.78331      3830.9801     -3959.2248     -408.85665      70348.12       41.281059      41.281059      41.281059      0.98387125     876.82072      727.00921      1650.7754    
     43000   43000          301.46401     -686.52923      8891.3099      9591.9709      5768.1579      3823.813       2979.9607      2636.2717     -1976.683       205.47246      108.56126      3830.1218     -3959.8919     -411.00825      69979.853      41.208899      41.208899      41.208899      0.98904885    -431.97921     -1272.2067     -355.40177    
     44000   44000          298.36886     -112.41592      9343.5686      9459.6123      5708.936       3750.6763      2883.3515      2615.2883     -1969.2982      218.21405      113.11469      3846.2258     -3956.2198     -406.35504      70781.198      41.365598      41.365598      41.365598      0.9778514     -185.77335      196.59277     -348.06717    
     45000   45000          304.02971     -1659.9852      7955.443       9661.5461      5817.2497      3844.2964      2814.6633      2711.0141     -1922.343       207.04385      139.80604      3848.0642     -3953.952      -408.12988      70473.391      41.305548      41.305548      41.305548      0.98212236    -1387.8409     -734.44471     -2857.67      
     46000   46000          299.62966     -214.5219       9246.5445      9466.8911      5733.0599      3733.8312      2921.8887      2590.7605     -1989.1123      204.33697      121.11151      3843.5758     -3958.73       -408.3803       70430.176      41.297103      41.297103      41.297103      0.98272498    -603.03729      380.61827     -421.14667    
     47000   47000          301.7447      -117.32131      9361.7404      9481.2442      5773.5287      3707.7155      2803.7199      2661.5044     -1985.8447      198.78299      152.20445      3840.5269     -3963.1784     -411.80777      69843.988      41.182213      41.182213      41.182213      0.99097282    -635.41398     -890.47277      1173.9228    
     48000   48000          305.46846      430.27458      10074.802      9635.7095      5844.7785      3790.9311      2957.574       2643.3652     -2024.9683      209.12734      126.29277      3839.3643     -3959.8241     -411.04527      69973.55       41.207661      41.207661      41.207661      0.98913794    -523.05537      957.07887      856.80025    
     49000   49000          299.4949      -1566.0322      7973.1387      9589.53        5730.4814      3859.0487      2844.3265      2656.0569     -1878.472       211.22712      146.86235      3835.0421     -3955.9944     -406.39993      70773.379      41.364074      41.364074      41.364074      0.97795943    -1211.9676     -1400.1723     -2085.9567    
     50000   50000          298.99577     -763.08861      8692.0739      9467.5932      5720.9312      3746.6619      2874.0053      2583.3184     -1910.747       205.44769      116.88565      3840.3854     -3962.6335     -412.745        69685.39       41.151017      41.151017      41.151017      0.99322818    -1500.2799     -742.07653     -46.909348    
     51000   51000          302.58507      300.82384      9811.4907      9505.943       5789.6082      3716.3349      2933.687       2628.0937     -2032.3026      206.50897      109.47111      3834.2827     -3963.406      -412.98357      69645.135      41.143092      41.143092      41.143092      0.99380226    -510.72567      797.68943      615.50777    
     52000   52000          300.66108     -76.815646      9325.7119      9404.3997      5752.7949      3651.6048      2770.0176      2693.1327     -1999.306       203.37491      99.027929      3843.9781     -3958.6204     -409.48839      70239.589      41.259819      41.259819      41.259819      0.98539148     325.19101      461.28463     -1016.9226    
     53000   53000          297.97942      149.46784      9487.9703      9335.4269      5701.4846      3633.9423      2794.0923      2579.6519     -1967.0191      199.85947      150.51974      3839.118      -3962.2799     -411.0114       69979.316      41.208793      41.208793      41.208793      0.98905644     947.57786      135.87374     -635.04807    
     54000   54000          301.54987      400.34511      9951.9979      9544.41        5769.8008      3774.6092      2956.001       2644.9091     -2025.2811      206.21682      118.81697      3835.8507     -3961.9043     -412.01465      69808.916      41.175318      41.175318      41.175318      0.99147067     880.38228     -725.73643      1046.3895    
     55000   55000          298.58016     -583.02097      8755.5293      9352.3116      5712.979       3639.3326      2873.4421      2607.7468     -2011.8657      209.74252      81.61211       3837.675      -3959.0203     -409.79599      70186.867      41.249493      41.249493      41.249493      0.98613168     68.611177     -1693.7706     -123.90343    
     56000   56000          300.10762      1053.8801      10595.68       9513.758       5742.2052      3771.5528      2900.2858      2638.0549     -2025.5752      208.21494      159.92987      3847.3515     -3956.709      -408.59663      70392.887      41.289814      41.289814      41.289814      0.98324555     2473.9392      545.39469      142.30635    
     57000   57000          299.59075     -1050.3103      8420.17        9489.511       5732.3154      3757.1956      2857.9183      2679.1316     -1956.9765      207.63981      89.715699      3839.8431     -3960.0765     -412.00345      69810.815      41.175692      41.175692      41.175692      0.99144371     1722.7876     -2935.5998     -1938.1188    
     58000   58000          300.26465     -699.39099      8775.6711      9487.246       5745.2096      3742.0364      2777.7718      2671.1283     -1924.0376      212.05896      126.34654      3840.4218     -3961.6533     -412.28625      69762.929      41.166275      41.166275      41.166275      0.99212425    -1606.4648     -1108.9342      617.22609    
     59000   59000          297.65021      646.67877      10053.341      9389.812       5695.1854      3694.6266      2864.3466      2673.0283     -2057.5597      211.12162      118.27328      3844.3357     -3958.9191     -408.81597      70355.12       41.282428      41.282428      41.282428      0.98377336     67.248671      879.72052      993.06711    
     60000   60000          297.37672     -578.7361       8910.0283      9499.1397      5689.9526      3809.187       2934.9713      2695.462      -1999.8442      212.62779      91.021089      3838.2002     -3963.2512     -412.08105      69797.668      41.173107      41.173107      41.173107      0.99163044     1035.9343     -1171.8547     -1600.288     
     61000   61000          299.14626     -775.035        8657.0201      9452.7159      5723.8107      3728.9052      2811.9013      2636.9225     -1955.3335      209.94317      135.28009      3845.1436     -3954.9518     -408.57681      70396.303      41.290482      41.290482      41.290482      0.98319784    -2128.8703      622.3963      -818.63099    
     62000   62000          296.26945     -2288.1402      7036.9251      9372.4216      5668.7663      3703.6553      2812.9324      2614.8219     -1922.4516      217.87464      103.53521      3837.7784     -3960.8357     -410.96313      69987.535      41.210407      41.210407      41.210407      0.98894028    -1823.4002     -2001.468      -3039.5524    
     63000   63000          300.81293      731.46549      10231.961      9483.1205      5755.7003      3727.4202      2816.8481      2628.1619     -1963.8299      214.96805      154.59738      3835.6014     -3958.9267     -409.73605      70197.133      41.251505      41.251505      41.251505      0.98598746     2266.752      -2.4708519     -69.884674    
     64000   64000          297.75775     -195.62728      9136.3617      9334.8117      5697.2431      3637.5686      2837.1295      2636.1833     -2005.9079      211.90717      91.135369      3833.2098     -3966.0886     -413.50219      69557.785      41.125884      41.125884      41.125884      0.99505028     1196.784      -1059.8158     -723.84999    
     65000   65000          299.06575      55.492285      9481.1402      9425.1067      5722.2702      3702.8365      2863.761       2627.4112     -1991.5765      204.31765      120.43336      3842.1073     -3963.6175     -415.41682      69237.197      41.062605      41.062605      41.062605      0.99965764    -430.52176      1136.2344     -539.23579    
     66000   66000          304.43806     -689.34941      9013.9589      9719.6604      5825.0629      3894.5975      2858.6823      2658.7437     -1884.5011      214.53039      161.18883      3844.5582     -3958.6048     -409.74889      70194.934      41.251074      41.251074      41.251074      0.98601835     567.77205     -76.083147     -2559.7371    
     67000   67000          299.13913      1159.3706      10580.791      9396.363       5723.6742      3672.6889      2843.2783      2614.3532     -2017.4416      202.45223      151.94768      3836.3479     -3958.2488     -410.59461      70050.351      41.222732      41.222732      41.222732      0.98805347     1110.4505      1332.1979      1035.4635    
     68000   68000          300.99068     -867.496        8598.3509      9485.1841      5759.1014      3726.0826      2821.6345      2673.9687     -1968.3688      213.60199      108.59571      3839.5684     -3962.9179     -410.32219      70096.859      41.231853      41.231853      41.231853      0.98739793    -726.93562     -60.690062     -1814.8623    
     69000   69000          296.86042      851.06261      10186.916      9325.7552      5680.0738      3645.6814      2868.6626      2614.8637     -2001.452       207.9902       78.648943      3841.3229     -3964.355      -414.54981      69382.004      41.091212      41.091212      41.091212      0.99757126     875.62985      552.63178      1124.9262    
     70000   70000          300.89695      115.48539      9505.6262      9387.5703      5757.308       3630.2623      2806.1738      2651.402      -2019.5299      202.48755      104.04793      3843.593      -3957.912      -410.3352       70094.637      41.231417      41.231417      41.231417      0.98742923     600.487       -491.19094      237.16011    
     71000   71000          303.8692      -1415.3759      8020.8909      9477.595       5814.1785      3663.4164      2827.2894      2535.6647     -1921.1755      214.08732      127.47085      3840.0789     -3959.9993     -407.56783      70570.576      41.324527      41.324527      41.324527      0.98076985    -423.2043      -3399.2397     -423.68359    
     72000   72000          298.46007      26.744175      9441.9045      9414.5272      5710.6813      3703.8459      2769.9175      2678.7619     -1960.708       206.99378      122.88501      3842.4193     -3956.4235     -409.76765      70191.72       41.250444      41.250444      41.250444      0.9860635     -347.14877      821.09928     -393.71798    
     73000   73000          296.21283     -3.4246764      9541.9545      9545.4329      5667.6828      3877.7501      2896.6201      2745.2477     -1983.8296      212.86456      120.85708      3846.42       -3960.4298     -412.98202      69645.397      41.143144      41.143144      41.143144      0.99379853    -52.089644      187.83136     -146.01575    
     74000   74000          301.97684      373.63592      9907.0011      9525.0604      5777.9705      3747.0899      2903.3784      2604.2468     -1997.7958      213.50854      135.83306      3844.645      -3956.7261     -410.34775      70092.493      41.230997      41.230997      41.230997      0.98745943     1543.9672     -229.11352     -193.94588    
     75000   75000          295.30845     -1170.2773      8303.3516      9503.4998      5650.3787      3853.1211      2935.4375      2646.2855     -1921.1862      204.36677      106.37139      3839.774      -3957.9277     -409.0283       70318.597      41.275284      41.275284      41.275284      0.98428432    -623.93342     -1152.9274     -1733.9712    
     76000   76000          297.23539      149.70221      9482.8665      9329.6748      5687.2484      3642.4264      2811.4881      2580.0532     -1978.9003      202.90921      149.81814      3835.3957     -3958.3376     -409.91382      70166.692      41.245541      41.245541      41.245541      0.98641522     577.15748     -24.194497     -103.85636    
     77000   77000          300.69098      1264.2855      10833.817      9534.1269      5753.367       3780.7599      2899.9201      2681.4087     -2055.2348      209.69469      160.43597      3845.2784     -3960.743      -408.04195      70488.577      41.308515      41.308515      41.308515      0.98191077     1947.7718      617.84043      1227.2444    
     78000   78000          299.21618     -762.26083      8712.404       9492.156       5725.1485      3767.0075      2869.8275      2644.5454     -1941.7035      203.13854      114.1334       3839.0442     -3961.9779     -410.0592       70141.815      41.240666      41.240666      41.240666      0.98676506     1169.4431     -1222.381      -2233.8446    
     79000   79000          295.94391      3.177552       9414.8393      9411.5902      5662.5373      3749.0529      2853.7646      2672.3943     -2009.7671      203.13686      138.06196      3848.0974     -3956.6352     -410.23319      70112.066      41.234834      41.234834      41.234834      0.98718376    -119.6964       433.92377     -304.69471    
     80000   80000          295.05505      221.65645      9610.6825      9384.7817      5645.5301      3739.2515      2877.727       2680.0815     -2022.2138      196.57987      140.69269      3828.6588     -3962.2745     -411.58733      69881.395      41.189563      41.189563      41.189563      0.99044235    -941.07788     -19.659022      1625.7063    
     81000   81000          301.38911      612.29139      10180.868      9547.9638      5766.7248      3781.2389      2822.8944      2708.4063     -1998.1872      196.53379      173.47791      3836.0875     -3957.9739     -405.80705      70876.778      41.384209      41.384209      41.384209      0.97653272    -277.76535      834.41811      1280.2214    
     82000   82000          295.29483     -230.20734      9234.9597      9471.2927      5650.1181      3821.1746      2968.1335      2588.7344     -1965.1823      206.44057      152.58374      3830.3719     -3959.9073     -408.59622      70392.957      41.289828      41.289828      41.289828      0.98324457    -1326.8097      1681.3435     -1045.1558    
     83000   83000          302.44852      598.14389      10071.248      9462.4296      5786.9955      3675.4341      2932.4331      2620.9255     -2053.051       196.68804      104.13198      3835.9458     -3961.6392     -412.11413      69792.066      41.172005      41.172005      41.172005      0.99171004     564.0375      -1131.3654      2361.7595    
     84000   84000          296.57472     -141.78042      9283.9894      9429.0922      5674.6073      3754.4849      2881.1241      2612.585      -1941.7743      208.60277      114.41262      3839.1141     -3959.5794     -409.86395      70175.23       41.247213      41.247213      41.247213      0.98629521    -202.22173      115.42713     -338.54666    
     85000   85000          300.88375     -894.5182       8582.6185      9497.7686      5757.0555      3740.7132      2874.4109      2674.5909     -2026.8494      204.94156      140.8843       3835.2765     -3962.5415     -410.01173      70149.936      41.242257      41.242257      41.242257      0.98665084    -1033.9291     -1286.0698     -363.55566    
     86000   86000          302.29593      871.14187      10427.045      9536.3034      5784.0758      3752.2276      2834.5538      2689.714      -2031.6129      207.8103       162.11626      3848.2091     -3958.5628     -410.23889      70111.092      41.234643      41.234643      41.234643      0.98719748     493.80521      506.09482      1613.5256    
     87000   87000          300.01463     -89.914887      9339.9802      9432.0593      5740.4258      3691.6335      2825.4053      2582.3316     -1976.7176      210.30952      171.82577      3837.3798     -3958.9008     -409.60954      70218.816      41.255751      41.255751      41.255751      0.985683       476.36285     -350.97285     -395.13466    
     88000   88000          301.26817     -1512.8524      7953.8252      9509.6685      5764.4108      3745.2577      2828.6851      2638.4076     -1924.3341      211.67865      118.75535      3834.8431     -3962.778      -407.8779       70516.929      41.314052      41.314052      41.314052      0.98151599    -1646.7049     -1281.57       -1610.2823    
     89000   89000          302.15339     -396.46386      9123.678       9531.4169      5781.3485      3750.0684      2820.9814      2646.5893     -1963.9136      213.90119      153.92647      3838.9771     -3960.3934     -407.86925      70518.424      41.314344      41.314344      41.314344      0.98149518     942.94097     -442.5422      -1689.7903    
     90000   90000          302.8664      -980.01267      8529.474       9529.3976      5794.9912      3734.4065      2851.3736      2686.8768     -1970.263       212.71957      71.675835      3839.4801     -3957.4564     -411.11594      69961.522      41.2053        41.2053        41.2053        0.989308      -875.00439     -1896.1332     -168.90038    
     91000   91000          304.59156     -108.2814       9434.4936      9544.7862      5827.9999      3716.7863      2917.9609      2653.1718     -1965.7777      206.08741      28.731154      3841.2005     -3964.5878     -411.8196       69841.98       41.181818      41.181818      41.181818      0.9910013     -314.98201      408.91386     -418.77606    
     92000   92000          296.999       -279.5458       8996.4689      9281.4197      5682.7254      3598.6943      2790.2407      2594.3557     -1959.9531      203.34753      96.570493      3834.0484     -3959.9153     -411.51195      69894.195      41.192078      41.192078      41.192078      0.99026096    -52.208111     -1217.7663      431.33698    
     93000   93000          304.03312      15.151133      9538.3255      9522.8839      5817.3149      3705.569       2953.2711      2611.1194     -2006.3952      206.03554      65.335477      3837.2136     -3961.0109     -411.57812      69882.959      41.189871      41.189871      41.189871      0.99042019     478.32629      590.56479     -1023.4377    
     94000   94000          306.05324     -1105.5081      8489.1462      9628.6271      5855.9674      3772.6597      2859.1524      2673.1937     -1954.9102      203.2262       124.24812      3831.8625     -3964.1131     -406.96244      70675.555      41.345008      41.345008      41.345008      0.97931305    -1571.2646     -168.68907     -1576.5706    
     95000   95000          301.97777      149.15204      9565.9501      9413.3504      5777.9883      3635.3621      2829.8849      2654.0413     -2022.4634      201.76142      106.19246      3829.1727     -3963.2273     -409.9916       70153.381      41.242932      41.242932      41.242932      0.98660239     439.02694      65.943521     -57.514356    
     96000   96000          299.17452      782.96681      10247.911      9448.8122      5724.3513      3724.4609      2854.253       2615.0854     -1976.8865      206.21777      155.87914      3832.6041     -3962.692      -411.00071      69981.136      41.209151      41.209151      41.209151      0.98903071     1616.8253      925.33857     -193.26347    
     97000   97000          303.96577     -363.0861       9053.6293      9423.4321      5816.0262      3607.406       2802.4862      2684.8961     -2053.5666      199.45561      108.7489       3829.4378     -3964.0521     -411.84984      69836.852      41.18081       41.18081       41.18081       0.99107406    -1470.6134      1292.0337     -910.67863    
     98000   98000          303.50621     -1888.6565      7629.2752      9560.1493      5807.2331      3752.9162      2850.3688      2627.5805     -1866.0108      211.79119      51.283862      3840.5141     -3962.6115     -410.29712      70101.142      41.232693      41.232693      41.232693      0.98733759     47.138141     -4340.0151     -1373.0925    
     99000   99000          290.92526      601.25805      9830.0226      9217.7373      5566.5115      3651.2258      2928.0485      2626.9628     -2045.8943      194.86661      78.878437      3832.2283     -3963.8645     -411.91396      69825.981      41.178673      41.178673      41.178673      0.99122836     1948.0918      1054.9916     -1199.3093    
    100000   100000         304.79505     -543.93716      8948.7407      9502.8812      5831.8935      3670.9878      2762.4424      2637.277      -1949.177       210.41468      144.43128      3828.8225     -3963.2231     -411.74496      69854.641      41.184306      41.184306      41.184306      0.99082168    -216.91246     -1818.1168      403.21776    
    101000   101000         306.46077      982.92043      10587.295      9588.562       5863.7652      3724.7968      2903.0442      2561.3927     -1961.6312      211.12333      135.31499      3835.2462     -3959.6933     -412.82741      69671.48       41.148279      41.148279      41.148279      0.99342647     1209.3229      742.77322      996.66522    
    102000   102000         295.13512      1296.6106      10736.923      9413.7721      5647.0622      3766.7099      2899.9286      2648.6448     -2010.6407      208.03858      155.00561      3828.8653     -3963.1322     -411.05481      69971.926      41.207343      41.207343      41.207343      0.9891609      1859.0952      672.50751      1358.2292    
    103000   103000         302.83477     -1310.5278      8089.8161      9427.7441      5794.3859      3633.3581      2818.9805      2576.2262     -1954.3864      199.6735       116.01426      3836.6184     -3959.7683     -410.87804      70002.029      41.213251      41.213251      41.213251      0.98873553    -128.63784     -2023.8365     -1779.1089    
    104000   104000         298.26909     -760.34267      8644.4028      9421.1946      5707.027       3714.1676      2843.2619      2603.5547     -1930.5659      209.84874      108.80374      3839.7111     -3960.4466     -410.58605      70051.812      41.223019      41.223019      41.223019      0.98803287    -41.722804     -1216.781      -1022.5242    
    105000   105000         299.83454      91.70205       9570.4699      9476.7358      5736.9801      3739.7557      2869.1541      2611.4894     -1964.1665      208.29484      139.94746      3837.6347     -3962.5984     -410.37487      70087.86       41.230088      41.230088      41.230088      0.9875247      477.12244      21.419856     -223.43615    
    106000   106000         298.05815      999.13011      10442.855      9429.5822      5702.9908      3726.5913      2902.002       2617.5823     -2013.1425      210.69705      127.12262      3845.5811     -3963.2512     -413.61381      69539.014      41.122184      41.122184      41.122184      0.99531888     904.97036      782.59816      1309.8218    
    107000   107000         298.66251      142.22985      9587.2687      9441.6019      5714.5546      3727.0473      2828.3411      2643.9114     -1978.0329      207.96714      144.63461      3841.5134     -3961.2874     -409.57151      70225.334      41.257028      41.257028      41.257028      0.98559151     936.70056     -1711.0788      1201.0678    
    108000   108000         300.22343     -577.57513      8924.7962      9513.2112      5744.421       3768.7902      2858.6434      2639.6882     -1949.6664      202.83564      146.30184      3830.4763     -3959.4889     -411.74108      69855.299      41.184436      41.184436      41.184436      0.99081235     90.946328     -845.78949     -977.88224    
    109000   109000         298.81334     -525.66889      8881.9791      9421.9419      5717.4406      3704.5013      2846.3642      2657.7005     -2002.7605      210.78415      117.36855      3834.2086     -3959.1642     -408.36445      70432.909      41.297638      41.297638      41.297638      0.98268684    -1745.6656     -42.568716      211.22762    
    110000   110000         301.35897      14.741005      9536.9317      9521.9335      5766.1483      3755.7852      2923.1967      2639.4521     -1964.9188      202.69965      72.09612       3843.646      -3960.3865     -412.27618      69764.633      41.16661       41.16661       41.16661       0.9921        -935.76019      573.46596      406.51724    
    111000   111000         303.00327      793.01153      10375.622      9558.7198      5797.6099      3761.1098      2908.4312      2633.531      -2004.0478      204.3164       152.26925      3828.4428     -3961.833      -407.20118      70634.119      41.336926      41.336926      41.336926      0.97988754     2176.6679      1142.1749     -939.8082     
    112000   112000         293.39132      305.01593      9605.0553      9293.712       5613.6967      3680.0153      2841.4712      2660.442      -2012.6603      202.41186      109.75665      3839.1394     -3960.5455     -410.94388      69990.813      41.21105       41.21105       41.21105       0.98889396     1513.5964      912.38162     -1510.9302    
    113000   113000         299.19454     -1131.32        8382.207       9526.9613      5724.7345      3802.2268      2861.1358      2646.218      -1935.5766      217.03872      145.634        3831.939      -3964.1622     -414.54591      69382.657      41.09134       41.09134       41.09134       0.99756187    -977.898       -75.433645     -2340.6284    
    114000   114000         297.98389      472.003        10076.863      9595.738       5701.5701      3894.1679      2919.0447      2676.269      -1987.0435      208.06783      193.26623      3845.3583     -3960.7947     -411.51523      69893.638      41.191969      41.191969      41.191969      0.99026885     390.63024      1451.0805     -425.70173    
    115000   115000         296.97162     -1052.5533      8356.4098      9431.267       5682.2014      3749.0657      2882.0798      2657.7881     -1947.7769      206.68233      79.815242      3835.4828     -3965.0057     -410.76436      70021.402      41.217053      41.217053      41.217053      0.98846197    -133.28136     -1583.9616     -1440.4169    
    116000   116000         301.39364     -2628.5301      6868.6042      9554.1941      5766.8116      3787.3825      2831.5898      2676.7238     -1920.0074      213.12993      107.81359      3837.0298     -3958.8969     -410.55629      70056.889      41.224015      41.224015      41.224015      0.98796127    -2784.2116     -2155.2369     -2946.1418    
    117000   117000         297.8737      -459.9125       8965.1685      9433.4172      5699.4616      3733.9556      2883.6095      2674.426      -2015.1251      203.00934      120.44931      3830.2209     -3962.6343     -412.00082      69811.26       41.175779      41.175779      41.175779      0.99143738    -1082.0024      85.249484     -382.98455    
    118000   118000         298.20272      741.86557      10045.242      9290.7041      5705.757       3584.9471      2851.3172      2623.719      -2092.9978      199.57828      133.75446      3831.748      -3962.1721     -412.42386      69739.653      41.161696      41.161696      41.161696      0.99245537     1010.31        313.34048      901.94627    
    119000   119000         297.00977     -1822.4255      7541.556       9405.7272      5682.9314      3722.7958      2858.0124      2642.2748     -1922.5677      214.93868      57.231214      3832.5319     -3959.6254     -410.07512      70139.091      41.240132      41.240132      41.240132      0.98680339    -1895.6508     -1515.6334     -2055.9924    
    120000   120000         300.71374     -116.44948      9484.8043      9604.4002      5753.8025      3850.5977      2952.5199      2659.8683     -1993.5613      217.09961      141.68952      3834.6227     -3961.6409     -408.43315      70421.063      41.295322      41.295322      41.295322      0.98285215     662.837       -752.85496     -259.33048    
    121000   121000         300.07298     -148.57854      9313.4543      9464.3341      5741.5423      3722.7918      2854.4124      2636.747      -1975.59        207.57938      139.09463      3826.7326     -3966.1843     -413.0708       69630.428      41.140196      41.140196      41.140196      0.99401218    -107.60129      673.97274     -1012.1071    
    122000   122000         298.25047     -189.29419      9249.1295      9443.2468      5706.6708      3736.576       2866.1136      2647.3728     -1992.4568      216.34045      129.25641      3830.7411     -3960.7915     -409.04638      70315.49       41.274676      41.274676      41.274676      0.98432782     925.8837      -1161.2449     -332.52138    
    123000   123000         298.63265      1189.0157      10590.917      9379.4338      5713.9832      3665.4506      2816.297       2616.7881     -1992.3396      208.21911      151.4889       3829.886      -3964.8889     -411.68945      69864.061      41.186157      41.186157      41.186157      0.99068809     377.61287      2669.1817      520.25263    
    124000   124000         297.74557     -197.27873      9203.9142      9406.3803      5697.01        3709.3703      2895.0134      2559.517      -1946.1688      215.95039      113.85566      3831.6773     -3960.4747     -408.72141      70371.396      41.285612      41.285612      41.285612      0.98354583    -393.09367     -1117.4452      918.70264    
    125000   125000         299.76178      1874.2084      11386.784      9472.4852      5735.5879      3736.8973      2864.6058      2660.2318     -2025.4254      218.94387      147.2733       3831.9158     -3960.6478     -410.68385      70035.129      41.219746      41.219746      41.219746      0.98826822     2217.2879      1692.2228      1713.1144    
    126000   126000         302.31887     -146.99438      9341.4154      9492.0531      5784.5147      3707.5384      2795.8756      2641.958      -1953.2135      202.50192      151.72037      3831.2633     -3962.5673     -409.32343      70267.897      41.265361      41.265361      41.265361      0.98499451    -992.26853      1312.248      -760.96261    
    127000   127000         296.26944     -194.32019      9165.3393      9364.4825      5668.766       3695.7165      2845.8121      2651.8852     -2027.3509      208.52564      139.14004      3837.3208     -3959.6163     -409.30967      70270.259      41.265824      41.265824      41.265824      0.9849614     -26.573752     -682.0243       125.6375     
    128000   128000         305.75154      768.93462      10383.636      9600.3617      5850.1948      3750.1669      2953.4347      2700.9168     -2123.0254      191.26471      145.69918      3838.7459     -3956.8691     -411.78909      69847.156      41.182835      41.182835      41.182835      0.99092787     814.90187      1123.2303      368.67165    
    129000   129000         298.41649     -963.16627      8402.4808      9389.2878      5709.8473      3679.4405      2875.0551      2639.6193     -2039.098       203.3084       128.02979      3837.0006     -3964.4746     -409.41948      70251.412      41.262134      41.262134      41.262134      0.98522565    -729.16368     -498.49454     -1661.8406    
    130000   130000         299.62656     -855.19807      8566.4943      9438.5612      5733.0005      3705.5607      2839.5585      2618.2776     -1941.9579      206.63693      116.04306      3826.7995     -3959.7971     -411.35461      69920.929      41.197329      41.197329      41.197329      0.98988234     1363.4921     -751.97791     -3177.1084    
    131000   131000         300.42934      2040.943       11529.044      9459.924       5748.3609      3711.5631      2851.1473      2629.8797     -2030.5469      209.07816      188.5452       3824.25       -3960.7904     -413.7563       69515.067      41.117463      41.117463      41.117463      0.99566175     1958.4534      2988.7596      1175.616     
    132000   132000         302.78387      26.631569      9565.7079      9538.61        5793.412       3745.198       2850.0028      2688.6279     -2010.9099      201.25139      151.91122      3826.5292     -3962.2146     -412.25015      69769.038      41.167476      41.167476      41.167476      0.99203737     14.715321      9.000989       56.178398    
    133000   133000         300.10635     -649.81597      8790.1909      9458.263       5742.1808      3716.0822      2801.9086      2660.5472     -1949.8249      201.83766      116.76157      3846.2753     -3961.4233     -408.00593      70494.8        41.30973       41.30973       41.30973       0.98182409    -208.85095     -581.19071     -1159.4062    
    134000   134000         296.08772      440.09614      9872.1721      9423.2269      5665.289       3757.938       2921.3435      2660.8148     -2060.2731      199.55732      164.29409      3832.1981     -3959.9967     -411.20057      69947.123      41.202473      41.202473      41.202473      0.98951165     952.69436      589.95381     -222.35975    
    135000   135000         303.12947     -813.71219      8759.4989      9590.8562      5800.0246      3790.8316      2881.8715      2701.311      -1944.4959      204.41132      79.677576      3829.7764     -3961.7202     -410.56563      70055.296      41.223702      41.223702      41.223702      0.98798373    -1559.2911      442.11581     -1323.9613    
    136000   136000         301.8997      -806.72846      8672.8822      9502.4993      5776.4945      3726.0048      2868.4625      2717.4017     -2039.513       195.65699      107.79047      3836.962      -3960.7558     -407.89574      70513.845      41.31345       41.31345       41.31345       0.98155892    -1086.9954     -194.71304     -1138.4769    
    137000   137000         301.67062      782.62331      10384.522      9583.9411      5772.1113      3811.8298      2928.826       2644.2027     -1986.3074      206.91366      157.31928      3824.7488     -3963.8732     -410.05973      70141.725      41.240648      41.240648      41.240648      0.98676634     2057.466      -872.33365      1162.7376    
    138000   138000         302.49564     -580.35875      8917.6951      9514.3217      5787.8971      3726.4246      2818.5095      2688.7976     -1977.2025      200.19247      125.33281      3829.3072     -3958.5124     -408.03121      70490.433      41.308877      41.308877      41.308877      0.98188492     960.21043      490.4726      -3191.7593    
    139000   139000         300.1928      -47.36434       9333.8064      9382.4417      5743.8349      3638.6068      2838.4239      2593.2608     -2020.4125      201.29003      156.75911      3828.3953     -3959.1099     -408.50656      70408.407      41.292848      41.292848      41.292848      0.98302881    -588.93501      342.84432      103.99767    
    140000   140000         304.8717      -1136.1867      8460.5883      9620.7617      5833.3602      3787.4016      2822.4926      2707.6338     -1937.3709      205.76338      116.0223       3829.8874     -3957.027      -410.79604      70016.002      41.215993      41.215993      41.215993      0.9885382     -230.6429      -1446.7737     -1731.1436    
    141000   141000         299.61878      906.51805      10333.063      9410.9134      5732.8517      3678.0617      2878.184       2649.9046     -2056.229       201.1713       148.96514      3821.8269     -3965.7612     -412.35828      69750.743      41.163878      41.163878      41.163878      0.99229758    -1090.6301      1752.1384      2058.0459    
    142000   142000         297.8649      -1202.4866      8169.0918      9406.0343      5699.2934      3706.741       2819.6077      2673.4863     -1983.639       204.11986      118.8657       3833.8257     -3959.5253     -407.784        70533.167      41.317223      41.317223      41.317223      0.98129003    -520.80207     -2113.0842     -973.57359    
    143000   143000         300.39164      489.99298      9953.6151      9453.5886      5747.6394      3705.9491      2886.0612      2680.9221     -2052.3315      202.48124      118.84297      3833.186      -3963.2128     -411.05151      69972.488      41.207453      41.207453      41.207453      0.98915295     102.19727      1362.9444      4.8373006    
    144000   144000         302.82353     -102.6168       9457.3818      9561.2551      5794.1708      3767.0842      2928.6855      2660.297      -2002.2907      208.79412      114.2882       3824.5445     -3967.2344     -414.39473      69407.97       41.096337      41.096337      41.096337      0.99719807     33.212756     -954.70793      613.64478    
    145000   145000         303.31126     -112.4          9359.551       9474.2283      5803.5029      3670.7254      2871.7144      2635.8907     -2040.6527      194.20226      126.37396      3842.5386     -3959.3418     -411.13859      69957.667      41.204543      41.204543      41.204543      0.98936251     19.92219       97.573251     -454.69544    
    146000   146000         305.73831      878.53004      10435.554      9540.6491      5849.9417      3690.7073      2828.248       2632.5861     -2009.9915      199.62174      161.65798      3839.0555     -3960.4704     -411.79319      69846.46       41.182698      41.182698      41.182698      0.99093774     1425.0563     -170.33073      1380.8645    
    147000   147000         300.1272       861.96541      10437.355      9556.7657      5742.5797      3814.1861      2907.1854      2663.3841     -1983.1409      207.11999      157.74569      3824.2216     -3962.3298     -410.5969       70049.961      41.222656      41.222656      41.222656      0.98805899     1729.4641     -1784.7029      2641.135     
    148000   148000         301.12713     -1405.4432      8027.2791      9470.9042      5761.7123      3709.1919      2883.6364      2633.2439     -1983.4895      208.5396       101.88984      3823.9754     -3958.6037     -408.37422      70431.225      41.297308      41.297308      41.297308      0.98271034    -2115.1248      169.53578     -2270.7405    
    149000   149000         302.19105     -383.46579      9034.604       9428.9721      5782.0692      3646.9029      2850.8187      2555.2948     -1936.3246      206.00815      113.211        3822.2598     -3964.3649     -407.87241      70517.877      41.314238      41.314238      41.314238      0.98150279     837.15937     -1028.9215     -958.63526    
[...]
   1955000   1955000        296.3362      -604.58081      8721.5057      9331.9891      5670.0434      3661.9458      2806.3321      2678.0102     -1981.2802      211.27784      81.725142      3834.2703     -3968.3896     -415.41282      69237.864      41.062736      41.062736      41.062736      0.99964801    -441.24005     -1334.7088     -37.793563    
   1956000   1956000        294.91989      592.68909      10000.656      9398.3129      5642.944       3755.3689      2892.2983      2629.0687     -2001.4744      209.0754       158.82794      3832.8015     -3965.2285     -412.74533      69685.335      41.151007      41.151007      41.151007      0.99322896     1643.6712      594.14991     -459.75386    
   1957000   1957000        302.58201      821.16648      10481.294      9645.1031      5789.5497      3855.5534      3005.1709      2685.4431     -2046.6419      208.94237      136.29427      3831.5945     -3965.2498     -411.93174      69822.968      41.178081      41.178081      41.178081      0.99127115     174.43156      732.37005      1556.6979    
   1958000   1958000        297.27673     -1537.2269      7796.9139      9368.4039      5688.0393      3680.3646      2851.8561      2615.2698     -1983.6699      205.0805       114.32571      3838.4632     -3960.9608     -410.32294      70096.73       41.231828      41.231828      41.231828      0.98739974    -1733.894      -2541.3833     -336.40345    
   1959000   1959000        301.85145      98.135368      9564.3625      9464.4051      5775.5711      3688.834       2849.6234      2665.6648     -2029.253       201.20798      118.17118      3842.6664     -3959.2468     -411.82251      69841.487      41.181721      41.181721      41.181721      0.99100829     1183.9136     -1336.7865      447.27905    
   1960000   1960000        301.85105      439.60435      10102.556      9652.9466      5775.5636      3877.383       2954.8126      2692.5208     -2005.6607      206.11809      142.90567      3843.3866     -3956.7        -410.13453      70128.932      41.238141      41.238141      41.238141      0.98694634     1601.6457     -153.18471     -129.64797    
   1961000   1961000        298.66815      91.759426      9634.6658      9540.2932      5714.6625      3825.6307      2976.8722      2643.8694     -2036.5312      200.92357      162.04182      3834.0468     -3955.5918     -407.85357      70521.135      41.314874      41.314874      41.314874      0.98145744     129.61262      1082.7253     -937.05967    
   1962000   1962000        298.04446     -1724.4213      7655.441       9417.8089      5702.7289      3715.0799      2777.1176      2671.9273     -1928.7111      210.0075       116.24361      3832.7117     -3964.2166     -410.43677      70077.289      41.228016      41.228016      41.228016      0.98767366    -534.26752     -1909.1692     -2729.8272    
   1963000   1963000        299.58312      875.89954      10315.372      9422.3274      5732.1694      3690.158       2858.5361      2615.706      -2026.685       214.36035      152.19918      3834.8531     -3958.8119     -411.41561      69910.562      41.195293      41.195293      41.195293      0.99002913     1322.5881     -699.18497      2004.2956    
   1964000   1964000        305.47426      248.1906       9838.2057      9585.6377      5844.8895      3740.7482      2914.356       2593.0868     -1987.934       205.76804      128.4452       3841.3151     -3954.2889     -412.19851      69777.779      41.169195      41.169195      41.169195      0.9919131      486.10664      1747.4148     -1488.9496    
   1965000   1965000        297.28904     -294.34895      9146.7902      9447.1886      5688.2748      3758.9138      2910.1016      2610.8018     -1957.6885      215.45847      101.1605       3839.5965     -3960.5166     -411.02128      69977.633      41.208463      41.208463      41.208463      0.98908022     518.38445     -1816.6698      415.23847    
   1966000   1966000        301.61162     -287.98353      9176.0441      9472.1491      5770.9824      3701.1667      2877.1219      2639.5576     -2036.3078      199.84234      136.46594      3841.5697     -3957.083      -407.96351      70502.13       41.311162      41.311162      41.311162      0.98172201    -402.55341     -1518.226       1056.8289    
   1967000   1967000        298.55485     -654.01136      8881.1581      9546.6069      5712.4947      3834.1123      2904.337       2656.4933     -1933.6773      213.65873      121.43865      3832.8852     -3961.0233     -412.25891      69767.556      41.167185      41.167185      41.167185      0.99205845    -807.06453     -825.14711     -329.82245    
   1968000   1968000        297.84293      845.77878      10140.069      9275.4923      5698.8729      3576.6194      2821.5392      2604.4465     -2030.751       202.31424      95.130674      3841.6169     -3957.6772     -410.34825      70092.407      41.23098       41.23098       41.23098       0.98746064     331.04928      1363.2099      843.07717    
   1969000   1969000        296.95971     -490.38106      9004.8677      9505.8729      5681.9735      3823.8994      2892.4323      2663.3378     -1950.8767      219.96559      124.73911      3830.6832     -3956.3819     -410.57348      70053.956      41.223439      41.223439      41.223439      0.98800264     113.66877     -867.47001     -717.34194    
   1970000   1970000        297.92262      1278.6781      10693.463      9378.0348      5700.3977      3677.6372      2920.4058      2565.7979     -2061.7101      202.4314       180.81195      3826.1577     -3956.2575     -407.74959      70539.118      41.318385      41.318385      41.318385      0.98120724     1773.4116      774.64459      1287.9782    
   1971000   1971000        302.49196     -803.55454      8649.8357      9473.6103      5787.8267      3685.7837      2807.138       2670.8977     -1987.2503      206.191        106.4776       3840.667      -3958.3375     -409.17247      70293.821      41.270435      41.270435      41.270435      0.98463125     844.61827     -2091.794      -1163.4878    
   1972000   1972000        301.67898     -862.2732       8711.7294      9584.6685      5772.2712      3812.3974      2894.4795      2728.9246     -1983.7322      206.04882      83.726372      3844.5283     -3961.578      -414.34337      69416.573      41.098035      41.098035      41.098035      0.99707448    -1441.4892     -1414.7623      269.43188    
   1973000   1973000        299.22361     -1900.5094      7494.8981      9435.0746      5725.2906      3709.7841      2777.4703      2614.0775     -1876.6369      215.1984       103.50281      3836.5267     -3960.3547     -410.8925       69999.565      41.212768      41.212768      41.212768      0.98877033    -906.77981     -2967.7452     -1827.0031    
   1974000   1974000        303.1126       1821.8245      11378.147      9519.3818      5799.7018      3719.68        2944.8602      2719.2212     -2149.0888      199.82238      125.47376      3841.5442     -3962.153      -411.13217      69958.76       41.204758      41.204758      41.204758      0.98934705     1787.495       2230.2251      1447.7536    
   1975000   1975000        300.93762     -1039.6048      8489.8333      9550.8976      5758.0862      3792.8115      2908.657       2638.3092     -1982.5981      203.71181      145.26475      3840.4163     -3960.9495     -410.98505      69983.802      41.209674      41.209674      41.209674      0.98899303     546.00613     -2697.5657     -967.25495    
   1976000   1976000        300.76577      1055.7013      10607.867      9533.9596      5754.798       3779.1616      2861.9432      2652.3394     -1962.5832      212.77184      130.51026      3845.3887     -3961.2086     -412.35742      69750.889      41.163906      41.163906      41.163906      0.9922955      1572.3621      1768.2411     -173.49936    
   1977000   1977000        296.41668     -824.93563      8593.6917      9435.1642      5671.5834      3763.5808      2902.7735      2640.6039     -1967.313       210.20854      114.05927      3825.5874     -3962.3388     -411.22505      69942.958      41.201655      41.201655      41.201655      0.98957057    -563.27473     -757.13396     -1154.3982    
   1978000   1978000        306.77539      90.325722      9759.048       9666.2423      5869.7849      3796.4574      2935.2785      2651.256      -1999.0457      204.02124      135.1209       3830.8393     -3961.0129     -408.25931      70451.049      41.301183      41.301183      41.301183      0.98243382     667.67657      152.6806      -549.38001    
   1979000   1979000        299.18478     -234.84463      9113.3904      9352.8824      5724.5477      3628.3347      2888.0057      2598.0307     -2037.0793      208.37626      102.75558      3830.6193     -3962.3735     -411.32868      69925.337      41.198195      41.198195      41.198195      0.98981995    -961.40044      361.11002     -104.24347    
   1980000   1980000        298.06573      88.003466      9512.3091      9422.6461      5703.1359      3719.5102      2857.8411      2653.1559     -1982.0128      209.2508       105.8425       3837.7878     -3962.3552     -411.70467      69861.477      41.18565       41.18565       41.18565       0.99072473     2100.0479     -1266.518      -569.51955    
   1981000   1981000        301.89298      278.42999      9745.5093      9464.5688      5776.3658      3688.203       2855.0367      2624.57       -1972.2718      206.77107      94.932454      3842.371      -3963.2064     -415.72014      69186.681      41.052616      41.052616      41.052616      1.0003875      1152.4987      1186.1453     -1503.3539    
   1982000   1982000        303.36678     -1060.08        8417.1071      9503.2482      5804.5653      3698.6829      2765.0644      2638.4135     -1930.8605      212.3394       131.73074      3839.1205     -3957.1252     -409.40378      70254.106      41.262662      41.262662      41.262662      0.98518787    -773.89157     -1814.5564     -591.79205    
   1983000   1983000        295.14089      884.64138      10270.419      9361.6726      5647.1725      3714.5001      2894.9116      2583.0474     -1979.0546      212.37286      112.62713      3843.957      -3953.3612     -408.34174      70436.827      41.298403      41.298403      41.298403      0.98263219     780.04832      848.28151      1025.5943    
   1984000   1984000        305.74795      605.48314      10105.878      9488.4763      5850.1262      3638.3501      2774.0019      2586.9296     -1955.38        201.02964      161.34554      3831.4927     -3961.0693     -411.37076      69918.184      41.19679       41.19679       41.19679       0.98992121     1220.8677     -587.17087      1182.7526    
   1985000   1985000        304.43369      479.18491      10025.961      9534.6852      5824.9794      3709.7058      2814.568       2641.0089     -1956.2746      201.83918      139.25518      3829.4032     -3960.0941     -409.14473      70298.587      41.271368      41.271368      41.271368      0.9845645      2551.5783      293.73466     -1407.7582    
   1986000   1986000        299.99592      67.107214      9504.7569      9435.9537      5740.0678      3695.8858      2844.5102      2688.612      -2042.1812      197.7845       124.44435      3844.3161     -3961.6002     -409.12894      70301.3        41.271899      41.271899      41.271899      0.98452651     217.04658      992.72449     -1008.4494    
   1987000   1987000        305.16386      91.713996      9647.9055      9553.5882      5838.9503      3714.6379      2864.491       2660.0674     -2013.5755      209.98686      120.87962      3831.7535     -3958.9649     -407.89075      70514.707      41.313618      41.313618      41.313618      0.98154692    -641.59813      80.334694      836.40543    
   1988000   1988000        299.20051     -148.05571      9223.5216      9375.2433      5724.8487      3650.3946      2800.2452      2629.6281     -1993.879       206.78935      139.35532      3827.6724     -3959.4167     -409.33318      70266.222      41.265034      41.265034      41.265034      0.98501799     443.39278     -55.182591     -832.37732    
   1989000   1989000        302.33065     -1943.6924      7564.7295      9551.2623      5784.7401      3766.5222      2849.7322      2667.0828     -1965.8043      214.28595      131.55509      3832.7008     -3963.0302     -410.42256      70079.716      41.228491      41.228491      41.228491      0.98763947    -3077.8739     -1036.1974     -1717.0058    
   1990000   1990000        299.21852     -1398.5325      7968.0141      9403.6435      5725.1932      3678.4503      2837.3566      2631.4901     -2003.662       201.11344      131.13614      3839.1285     -3958.1124     -408.62947      70387.229      41.288708      41.288708      41.288708      0.98332458    -1387.6907     -262.35958     -2545.5473    
   1991000   1991000        293.87564     -650.89329      8709.3532      9375.5536      5622.9636      3752.59        2838.435       2623.1904     -1963.2111      209.25646      174.77212      3830.324      -3960.1768     -409.8306       70180.939      41.248332      41.248332      41.248332      0.98621497    -321.66661     -306.89969     -1324.1136    
   1992000   1992000        298.6068       612.78997      10060.51       9438.6915      5713.4887      3725.2028      2905.1988      2660.8586     -2035.1619      205.99716      104.50033      3840.468      -3956.6582     -413.37837      69578.62       41.12999       41.12999       41.12999       0.99475231    -325.75353      1510.1903      653.93311    
   1993000   1993000        299.00216      324.85533      9737.1871      9405.3511      5721.0534      3684.2977      2818.7703      2670.525      -1985.716       200.62807      108.90798      3832.5187     -3961.3364     -410.64447      70041.846      41.221064      41.221064      41.221064      0.98817346     524.35461      373.09825      77.113125    
   1994000   1994000        301.75245     -936.67035      8513.1978      9465.5159      5773.677       3691.8389      2782.134       2586.7011     -1883.7869      210.36825      125.31679      3831.9446     -3960.8389     -412.57621      69713.9        41.156629      41.156629      41.156629      0.992822      -696.41477     -656.2086      -1457.3877    
   1995000   1995000        299.81767      764.331        10168.981      9387.8886      5736.6572      3651.2314      2888.6011      2615.3681     -2065.9802      211.99219      143.00313      3819.1724     -3960.9254     -410.46701      70072.126      41.227003      41.227003      41.227003      0.98774643     608.97283     -234.35846      1918.3786    
   1996000   1996000        296.88996      395.58792      9789.7223      9388.6308      5680.6389      3707.9919      2867.0951      2632.8461     -1981.2088      204.51423      113.85         3833.0929     -3962.1976     -413.7129       69522.359      41.118901      41.118901      41.118901      0.99555732     811.77544      946.87943     -571.89112    
   1997000   1997000        302.61361     -376.58342      9066.0766      9451.2429      5790.1543      3661.0885      2813.0538      2617.7105     -1989.3464      201.65558      144.37942      3833.1866     -3959.551      -410.12143      70131.171      41.23858       41.23858       41.23858       0.98691483     485.72272     -613.05009     -1002.4229    
   1998000   1998000        297.18963      389.44975      9716.0527      9318.1742      5686.3728      3631.8014      2924.6438      2565.1504     -2057.1112      204.92563      117.63384      3836.8929     -3960.334      -410.58244      70052.426      41.223139      41.223139      41.223139      0.98802421    -1280.4797      514.46294      1934.366     
   1999000   1999000        299.15625     -1811.8062      7655.8098      9507.2418      5724.0018      3783.24        2931.5388      2646.8108     -1940.7201      199.40539      65.563874      3839.0681     -3958.4268     -410.49079      70068.068      41.226207      41.226207      41.226207      0.98780364    -1120.5663     -1473.9628     -2840.8894    
   2000000   2000000        300.60763     -394.55231      8995.5412      9399.9148      5751.7722      3648.1426      2809.0152      2618.8731     -1988.048       201.99085      132.63867      3831.5586     -3957.8858     -409.28075      70275.225      41.266796      41.266796      41.266796      0.98489181     224.92986      40.09511      -1448.6819    
Loop time of 3798.04 on 1 procs for 2000000 steps with 6420 atoms

Performance: 45.497 ns/day, 0.528 hours/ns, 526.587 timesteps/s, 3.381 Matom-step/s
100.0% CPU use with 1 MPI tasks x 1 OpenMP threads

MPI task timing breakdown:
Section |  min time  |  avg time  |  max time  |%varavg| %total
---------------------------------------------------------------
Pair    | 430.07     | 430.07     | 430.07     |   0.0 | 11.32
Bond    | 537.88     | 537.88     | 537.88     |   0.0 | 14.16
Kspace  | 1832.4     | 1832.4     | 1832.4     |   0.0 | 48.25
Neigh   | 256.51     | 256.51     | 256.51     |   0.0 |  6.75
Comm    | 40.524     | 40.524     | 40.524     |   0.0 |  1.07
Output  | 17.124     | 17.124     | 17.124     |   0.0 |  0.45
Modify  | 603.41     | 603.41     | 603.41     |   0.0 | 15.89
Other   |            | 80.11      |            |       |  2.11

Nlocal:           6420 ave        6420 max        6420 min
Histogram: 1 0 0 0 0 0 0 0 0 0
Nghost:          17982 ave       17982 max       17982 min
Histogram: 1 0 0 0 0 0 0 0 0 0
Neighs:              0 ave           0 max           0 min
Histogram: 1 0 0 0 0 0 0 0 0 0
FullNghs:   3.7394e+06 ave  3.7394e+06 max  3.7394e+06 min
Histogram: 1 0 0 0 0 0 0 0 0 0

Total # of neighbors = 3739398
Ave neighs/atom = 582.46075
Ave special neighs/atom = 5.8598131
Neighbor list builds = 47405
Dangerous builds = 0

# --- Cleanup ---
unfix npt_fix

undump dump_npt

# --- Write Output ---
write_dump all custom npt_prod300_last.dump id type mol x y z xu yu zu vx vy vz modify sort id
write_data /home/alexzhao/PolyJarvis/data/PS3/lammps/equil/npt_prod300/npt_prod300_out.data
System init for write_data ...
PPPM Kokkos initialization ...
  using 12-bit tables for long-range coulomb
  G vector (1/distance) = 0.30258092
  grid = 30 30 30
  stencil order = 5
  estimated absolute RMS force accuracy = 0.00027183677
  estimated relative force accuracy = 8.1862835e-07
  using double precision cuFFT
  3d grid and FFT values/proc = 50653 27000
Generated 6 of 6 mixed pair_coeff terms from sixthpower/sixthpower mixing rule

print "STAGE COMPLETE: NPT T=300.0->300.0K P=1.0->1.0atm steps=2000000"
STAGE COMPLETE: NPT T=300.0->300.0K P=1.0->1.0atm steps=2000000
quit
       |  2.11

Nlocal:           6420 ave        6420 max        6420 min
Histogram: 1 0 0 0 0 0 0 0 0 0
Nghost:          17982 ave       17982 max       17982 min
Histogram: 1 0 0 0 0 0 0 0 0 0
Neighs:              0 ave           0 max           0 min
Histogram: 1 0 0 0 0 0 0 0 0 0
FullNghs:   3.7394e+06 ave  3.7394e+06 max  3.7394e+06 min
Histogram: 1 0 0 0 0 0 0 0 0 0

Total # of neighbors = 3739398
Ave neighs/atom = 582.46075
Ave special neighs/atom = 5.8598131
Neighbor list builds = 47405
Dangerous builds = 0
System init for write_data ...
PPPM Kokkos initialization ...
  using 12-bit tables for long-range coulomb
  G vector (1/distance) = 0.30258092
  grid = 30 30 30
  stencil order = 5
  estimated absolute RMS force accuracy = 0.00027183677
  estimated relative force accuracy = 8.1862835e-07
  using double precision cuFFT
  3d grid and FFT values/proc = 50653 27000
Generated 6 of 6 mixed pair_coeff terms from sixthpower/sixthpower mixing rule
STAGE COMPLETE: NPT T=300.0->300.0K P=1.0->1.0atm steps=2000000
