units real
atom_style full
boundary p p p

# --- Force Field Styles ---
pair_style lj/cut 14.0
dielectric 1.000000
bond_style harmonic
angle_style harmonic
dihedral_style multi/harmonic
improper_style none
special_bonds lj 0 0 0
pair_modify mix arithmetic tail yes
neighbor 2.0 bin
neigh_modify delay 0 every 1 check yes
neigh_modify one 4000
package gpu 1 neigh no

read_data /home/arz2/PolyJarvis/data/cis-PBD1/lammps/equil/minimize/minimize_out.data
Reading data file ...
  orthogonal box = (0 0 0) to (68.178378 68.178378 68.178378)
  1 by 1 by 1 MPI processor grid
  reading atoms ...
  8040 atoms
  reading velocities ...
  8040 velocities
  scanning bonds ...
  2 = max bonds/atom
  scanning angles ...
  1 = max angles/atom
  scanning dihedrals ...
  2 = max dihedrals/atom
  orthogonal box = (0 0 0) to (68.178378 68.178378 68.178378)
  1 by 1 by 1 MPI processor grid
  reading bonds ...
  8020 bonds
  reading angles ...
  8000 angles
  reading dihedrals ...
  7980 dihedrals
Finding 1-2 1-3 1-4 neighbors ...
  special bond factors lj:    0        0        0       
  special bond factors coul:  0        0        0       
     2 = max # of 1-2 neighbors
     2 = max # of 1-3 neighbors
     4 = max # of 1-4 neighbors
     6 = max # of special neighbors
  special bonds CPU = 0.020 seconds
  read_data CPU = 0.322 seconds
include /home/arz2/PolyJarvis/data/cis-PBD1/lammps/equil/emc_build.params
# LAMMPS parameters created by EMC v9.4.4, build Jul 31 2025 20:33:44

# Variables

variable	seed		index	-1
variable	ntotal		index	8040
variable	fshape		index	1
variable	output		index	emc_build
variable	field		index	trappe/2014/trappe-ua
variable	location1	index	/home/arz2/emc/field/
variable	nav		index	0.6022141179
variable	temperature	index	300
variable	radius		index	5
variable	nrelax		index	100
variable	weight_nonbond	index	0.0001
variable	weight_bond	index	0.0001
variable	weight_focus	index	1
variable	cutoff		index	14
variable	charge_cutoff	index	14
variable	kappa		index	4
variable	density1	index	0.57
variable	lprevious	index	0
variable	lphase		index	68.1783775471
variable	f_poly		index	20
variable	chem_repeat	index	*C/C=C\C*
variable	chem_cap	index	*C
variable	lg_repeat	index	4
variable	lg_cap		index	1
variable	norm_poly	index	100
variable	l_poly		index	402
variable	mg_repeat	index	54.0914
variable	mg_cap		index	15.0347
variable	m_poly		index	5439.2094
variable	n_poly		index	20
variable	mtotal		index	108784.188
variable	nphase1		index	8040
variable	mphase1		index	108784.188
variable	vphase1		index	316912.949994
variable	lbox		index	68.1783775471
variable	lphase1		index	68.1783775471
variable	lxx		index	68.1783775471
variable	lyy		index	68.1783775471
variable	lzz		index	68.1783775471
variable	lzy		index	0
variable	lzx		index	0
variable	lyx		index	0
variable	vtotal		index	316912.949994
variable	nl_poly		index	20

# Types

variable	type_c3h	index	1
variable	type_c4h2	index	2
variable	type_c4h3	index	3

variable	type_bond_c3h_c3h index	1
variable	type_bond_c3h_c4h2 index	2
variable	type_bond_c4h2_c4h2 index	3
variable	type_bond_c4h2_c4h3 index	4

variable	type_angle_c3h_c3h_c4h2 index	1
variable	type_angle_c3h_c4h2_c4h2 index	2
variable	type_angle_c3h_c4h2_c4h3 index	3

# Clusters

variable	n0_poly		index	1
variable	n1_poly		index	20
variable	nl_poly		index	20

# Flags

variable	flag_charged	index	0

# Masses

mass		1    13.01890  # c3h
mass		2    14.02680  # c4h2
mass		3    15.03470  # c4h3

# Potentials

pair_modify	mix arithmetic tail yes
special_bonds	lj 0 0 0 coul 0 0 0.5
Finding 1-2 1-3 1-4 neighbors ...
  special bond factors lj:    0        0        0       
  special bond factors coul:  0        0        0.5     
     2 = max # of 1-2 neighbors
     2 = max # of 1-3 neighbors
     4 = max # of 1-4 neighbors
     6 = max # of special neighbors
  special bonds CPU = 0.011 seconds

# Pair Coeffs

pair_coeff	1 1    0.09340    3.71000  # c3h,c3h
pair_coeff	2 2    0.09141    3.95000  # c4h2,c4h2
pair_coeff	3 3    0.19475    3.75000  # c4h3,c4h3

# Bond Coeffs

bond_coeff	1  529.99987    1.33000  # c3h,c3h
bond_coeff	2  260.00013    1.54000  # c3h,c4h2
bond_coeff	3  260.00013    1.54000  # c4h2,c4h2
bond_coeff	4  260.00013    1.54000  # c4h2,c4h3

# Angle Coeffs

angle_coeff	1   69.96954  119.70000  # c3h,c3h,c4h2
angle_coeff	2   62.10020  114.00000  # c3h,c4h2,c4h2
angle_coeff	3   62.10020  114.00000  # c3h,c4h2,c4h3

# Dihedral Coeffs

dihedral_coeff	1    1.91086    1.85422    0.43627   -2.24348    0.00000  # c3h,c3h,c4h2,c4h2
dihedral_coeff	2    1.91086    1.85422    0.43627   -2.24348    0.00000  # c3h,c3h,c4h2,c4h3
dihedral_coeff	3    2.00702   -4.01203    0.27102    6.29006    0.00000  # c3h,c4h2,c4h2,c3h
dihedral_coeff	4   25.63496    0.99360  -25.63496   -0.99360    0.00000  # c4h2,c3h,c3h,c4h2


# --- Thermo Output ---
thermo_style custom step time temp press enthalpy etotal ke pe ebond eangle edihed eimp evdwl ecoul elong etail vol lx ly lz density pxx pyy pzz
thermo_modify flush yes
thermo 1000

# --- Trajectory ---
dump dump_nvt all custom 1000 nvt_softheat.dump id type mol x y z ix iy iz vx vy vz

# --- Restart Checkpointing ---
restart 10000 nvt_1.rst nvt_2.rst

# --- Initial Velocities (optional) ---
velocity all create 300.0 853457 mom yes rot yes dist gaussian

# --- SHAKE Constraints ---
# Constrains H-X bonds to allow 2fs timestep
# SHAKE disabled

# --- NVT Thermostat (Nose-Hoover) ---
# T_damp = 50.0 fs  (coupling timescale for heat exchange)
# Ramp: 300.0 K -> 480.0 K over 500000 steps
timestep 0.5
fix nvt_fix all nvt temp 300.0 480.0 50.0

run 500000

CITE-CITE-CITE-CITE-CITE-CITE-CITE-CITE-CITE-CITE-CITE-CITE-CITE

Your simulation uses code contributions which should be cited:

- GPU package (short-range, long-range and three-body potentials): doi:10.1016/j.cpc.2010.12.021, doi:10.1016/j.cpc.2011.10.012, doi:10.1016/j.cpc.2013.08.002, doi:10.1016/j.commatsci.2014.10.068, doi:10.1016/j.cpc.2016.10.020, doi:10.3233/APC200086

@Article{Brown11,
 author = {W. M. Brown and P. Wang and S. J. Plimpton and A. N. Tharrington},
 title = {Implementing Molecular Dynamics on Hybrid High Performance Computers---Short Range Forces},
 journal = {Comput.\ Phys.\ Commun.},
 year =    2011,
 volume =  182,
 pages =   {898--911},
 doi =     {10.1016/j.cpc.2010.12.021}
}

@Article{Brown12,
 author = {W. M. Brown and A. Kohlmeyer and S. J. Plimpton and A. N. Tharrington},
 title = {Implementing Molecular Dynamics on Hybrid High Performance Computers - Particle-Particle Particle-Mesh},
 journal = {Comput.\ Phys.\ Commun.},
 year =    2012,
 volume =  183,
 doi =     {10.1016/j.cpc.2011.10.012},
 pages =   {449--459}
}

@Article{Brown13,
 author = {W. M. Brown and Y. Masako},
 title = {Implementing Molecular Dynamics on Hybrid High Performance Computers---Three-Body Potentials},
 journal = {Comput.\ Phys.\ Commun.},
 year =    2013,
 volume =  184,
 pages =   {2785--2793},
 doi =     {10.1016/j.cpc.2013.08.002},
}

@Article{Trung15,
 author = {T. D. Nguyen and S. J. Plimpton},
 title = {Accelerating Dissipative Particle Dynamics Simulations for Soft Matter Systems},
 journal = {Comput.\ Mater.\ Sci.},
 year =    2015,
 doi =     {10.1016/j.commatsci.2014.10.068},
 volume =  100,
 pages =   {173--180}
}

@Article{Trung17,
 author = {T. D. Nguyen},
 title = {{GPU}-Accelerated {T}ersoff Potentials for Massively Parallel
    Molecular Dynamics Simulations},
 journal = {Comput.\ Phys.\ Commun.},
 year =    2017,
 doi =     {10.1016/j.cpc.2016.10.020},
 volume =  212,
 pages =   {113--122}
}

@inproceedings{Nikolskiy19,
 author = {V. Nikolskiy and V. Stegailov},
 title = {{GPU} Acceleration of Four-Site Water Models in {LAMMPS}},
 booktitle = {Proceedings of the International Conference on Parallel
    Computing (ParCo 2019), Prague, Czech Republic},
 doi =     {10.3233/APC200086},
 year =    2019
}

CITE-CITE-CITE-CITE-CITE-CITE-CITE-CITE-CITE-CITE-CITE-CITE-CITE

Generated 3 of 3 mixed pair_coeff terms from arithmetic mixing rule
Neighbor list info ...
  update: every = 1 steps, delay = 0 steps, check = yes
  max neighbors/atom: 4000, page size: 100000
  master list distance cutoff = 16
  ghost atom cutoff = 16
  binsize = 8, bins = 9 9 9
  1 neighbor lists, perpetual/occasional/extra = 1 0 0
  (1) pair lj/cut/gpu, perpetual
      attributes: full, newton on
      pair build: full/bin
      stencil: full/bin/3d
      bin: standard
Per MPI rank memory allocation (min/avg/max) = 33.79 | 33.79 | 33.79 Mbytes
   Step          Time           Temp          Press         Enthalpy        TotEng         KinEng         PotEng         E_bond        E_angle        E_dihed        E_impro         E_vdwl         E_coul         E_long         E_tail         Volume           Lx             Ly             Lz          Density          Pxx            Pyy            Pzz      
         0   0              300            619.45772      8935.4512      6072.4104      7188.8196     -1116.4092      7.7564402      142.39525      7037.9474      0             -8304.5083      0              0             -183.40902      316912.95      68.178378      68.178378      68.178378      0.56999999     642.82677      614.21895      601.32745    
      1000   500            327.21922      271.12669      14882.497      13629.39       7841.0664      5788.3239      1978.8335      2401.4036      8814.0285      0             -7405.9416      0              0             -183.40902      316912.95      68.178378      68.178378      68.178378      0.56999999     426.60156      252.74682      134.03169    
      2000   1000           299.14015     -107.89346      12977.754      13476.421      7168.2152      6308.206       2330.7252      2358.4329      8860.2947      0             -7241.2467      0              0             -183.40902      316912.95      68.178378      68.178378      68.178378      0.56999999     142.04229     -134.03778     -331.68488    
      3000   1500           296.75638     -254.02872      12517.543      13691.625      7111.0937      6580.5315      2472.7912      2388.4913      8793.6423      0             -7074.3931      0              0             -183.40902      316912.95      68.178378      68.178378      68.178378      0.56999999    -284.81192     -155.44631     -321.82793    
      4000   2000           295.19195     -556.50976      11313.325      13885.43       7073.6056      6811.8246      2486.9909      2454.6738      8837.0836      0             -6966.9237      0              0             -183.40902      316912.95      68.178378      68.178378      68.178378      0.56999999    -515.26874     -438.33372     -715.9268     
      5000   2500           302.17554     -550.9555       11403.278      13949.712      7240.9515      6708.76        2411.9492      2401.8552      8805.5897      0             -6910.6341      0              0             -183.40902      316912.95      68.178378      68.178378      68.178378      0.56999999    -789.37906     -328.8029      -534.68455    
      6000   3000           302.4797      -222.62778      12827.388      13856.34       7248.2399      6608.1         2407.7996      2342.3101      8790.7597      0             -6932.7694      0              0             -183.40902      316912.95      68.178378      68.178378      68.178378      0.56999999    -250.71734     -164.05689     -253.1091     
      7000   3500           302.69387     -625.1367       10953.629      13842.918      7253.372       6589.5457      2381.9861      2388.6653      8785.8584      0             -6966.9641      0              0             -183.40902      316912.95      68.178378      68.178378      68.178378      0.56999999    -594.70884     -571.73013     -708.97113    
      8000   4000           306.45859     -585.54671      11385.466      14091.775      7343.5849      6748.1903      2468.6327      2408.116       8798.8915      0             -6927.4499      0              0             -183.40902      316912.95      68.178378      68.178378      68.178378      0.56999999    -321.11926     -616.85698     -818.66388    
      9000   4500           306.89245     -613.84809      11082.682      13919.795      7353.9815      6565.814       2382.9938      2351.4828      8828.6419      0             -6997.3045      0              0             -183.40902      316912.95      68.178378      68.178378      68.178378      0.56999999    -800.63678     -490.40964     -550.49785    
     10000   5000           308.74817     -518.97556      11576.354      13974.981      7398.4497      6576.5318      2425.0064      2305.528       8841.1651      0             -6995.1678      0              0             -183.40902      316912.95      68.178378      68.178378      68.178378      0.56999999    -178.70433     -510.35122     -867.87113    
     11000   5500           304.8885      -341.64829      12405.486      13984.533      7305.9615      6678.5719      2434.153       2444.5955      8839.7625      0             -7039.9392      0              0             -183.40902      316912.95      68.178378      68.178378      68.178378      0.56999999    -436.39493     -463.993       -124.55695    
     12000   6000           305.34593     -265.31709      12700.555      13926.811      7316.9227      6609.8884      2444.5638      2357.875       8866.0866      0             -7058.6369      0              0             -183.40902      316912.95      68.178378      68.178378      68.178378      0.56999999     103.02488      28.724638     -927.70078    
     13000   6500           303.64088     -394.91213      11936.398      13761.622      7276.065       6485.5574      2386.308       2383.5585      8800.7947      0             -7085.1039      0              0             -183.40902      316912.95      68.178378      68.178378      68.178378      0.56999999    -362.02899     -523.36144     -299.34595    
     14000   7000           308.68623     -49.749889      13632.246      13862.183      7396.9654      6465.2174      2416.0967      2277.3214      8870.2603      0             -7098.461       0              0             -183.40902      316912.95      68.178378      68.178378      68.178378      0.56999999    -302.50928     -135.37323      288.63284    
     15000   7500           307.01628     -312.66891      12392.316      13837.425      7356.9488      6480.4759      2408.5803      2346.8664      8882.4077      0             -7157.3786      0              0             -183.40902      316912.95      68.178378      68.178378      68.178378      0.56999999    -227.07176     -310.92839     -400.00659    
     16000   8000           298.55797     -329.35976      12241.445      13763.696      7154.2646      6609.4317      2381.4429      2450.0306      8963.2035      0             -7185.2453      0              0             -183.40902      316912.95      68.178378      68.178378      68.178378      0.56999999    -508.208       -340.26398     -139.6073     
     17000   8500           301.26563     -661.19658      10681.187      13737.139      7219.1475      6517.9914      2381.8068      2384.2977      8929.2782      0             -7177.3912      0              0             -183.40902      316912.95      68.178378      68.178378      68.178378      0.56999999    -352.53093     -902.76952     -728.2893     
     18000   9000           301.25887     -339.59944      12144.373      13713.951      7218.9857      6494.9654      2370.4058      2441.2555      8908.6747      0             -7225.3706      0              0             -183.40902      316912.95      68.178378      68.178378      68.178378      0.56999999    -359.70865     -371.13216     -287.95751    
     19000   9500           308.34158     -471.52197      11696.564      13875.868      7388.7066      6487.1618      2379.6932      2452.8518      8915.9299      0             -7261.313       0              0             -183.40902      316912.95      68.178378      68.178378      68.178378      0.56999999    -504.68256     -717.80229     -192.08106    
     20000   10000          310.21094     -223.49718      12663.411      13696.382      7433.5017      6262.8799      2343.7215      2355.3888      8870.7434      0             -7306.9739      0              0             -183.40902      316912.95      68.178378      68.178378      68.178378      0.56999999    -442.90222      148.11427     -375.7036     
     21000   10500          310.99628     -394.43939      12050.143      13873.183      7452.3206      6420.8627      2372.0318      2430.6605      8951.1894      0             -7333.019       0              0             -183.40902      316912.95      68.178378      68.178378      68.178378      0.56999999    -448.1125      -621.42971     -113.77597    
     22000   11000          312.65177     -320.59159      12384.396      13866.122      7491.9907      6374.1314      2360.4793      2433.2806      8925.9634      0             -7345.5919      0              0             -183.40902      316912.95      68.178378      68.178378      68.178378      0.56999999    -162.68888     -217.66995     -581.41593    
     23000   11500          310.1734      -225.14427      12818.171      13858.754      7432.6021      6426.1516      2394.6018      2405.3028      8895.3032      0             -7269.0562      0              0             -183.40902      316912.95      68.178378      68.178378      68.178378      0.56999999    -90.421023     -199.27475     -385.73704    
     24000   12000          310.51822     -453.93349      11764.202      13862.215      7440.8649      6421.3497      2426.1326      2433.4724      8884.1262      0             -7322.3815      0              0             -183.40902      316912.95      68.178378      68.178378      68.178378      0.56999999    -515.79233     -16.743332     -829.2648     
     25000   12500          306.5799      -289.73259      12435.742      13774.842      7346.4919      6428.3503      2386.5987      2426.8083      8931.3723      0             -7316.4289      0              0             -183.40902      316912.95      68.178378      68.178378      68.178378      0.56999999    -600.56107      105.61722     -374.25393    
     26000   13000          310.04568     -114.62653      13379.868      13909.655      7429.5415      6480.1133      2423.4744      2424.6911      8925.3357      0             -7293.3878      0              0             -183.40902      316912.95      68.178378      68.178378      68.178378      0.56999999    -139.96493      141.79206     -345.70672    
     27000   13500          309.1152      -197.95343      12947.82       13862.731      7407.2448      6455.4863      2384.7337      2472.9253      8922.1201      0             -7324.2927      0              0             -183.40902      316912.95      68.178378      68.178378      68.178378      0.56999999    -205.92318     -203.44281     -184.49431    
     28000   14000          315.20232     -323.95066      12599.346      14096.597      7553.1086      6543.4883      2441.5594      2450.6662      8970.4159      0             -7319.1531      0              0             -183.40902      316912.95      68.178378      68.178378      68.178378      0.56999999    -295.07931     -467.10289     -209.66977    
     29000   14500          314.18023     -548.09147      11406.494      13939.691      7528.6167      6411.0742      2434.5851      2440.7138      8891.0247      0             -7355.2494      0              0             -183.40902      316912.95      68.178378      68.178378      68.178378      0.56999999    -513.59701     -690.83081     -439.84658    
     30000   15000          308.86483     -171.31725      13132.505      13924.308      7401.245       6523.0627      2417.8952      2503.2857      8975.7815      0             -7373.8998      0              0             -183.40902      316912.95      68.178378      68.178378      68.178378      0.56999999    -292.44639     -30.996278     -190.50907    
     31000   15500          309.47874     -487.38478      11527.679      13780.299      7415.9561      6364.3426      2361.4826      2407.6521      9015.5721      0             -7420.3642      0              0             -183.40902      316912.95      68.178378      68.178378      68.178378      0.56999999    -313.56716     -461.43209     -687.15509    
     32000   16000          316.3979      -491.32988      11597.084      13867.938      7581.7582      6286.1794      2407.2071      2461.406       8866.5782      0             -7449.0119      0              0             -183.40902      316912.95      68.178378      68.178378      68.178378      0.56999999    -464.29273     -399.31186     -610.38506    
     33000   16500          312.91446     -130.83772      13207.028      13811.74       7498.2853      6313.4548      2350.3146      2449.7591      8963.3184      0             -7449.9373      0              0             -183.40902      316912.95      68.178378      68.178378      68.178378      0.56999999     473.64477     -458.18143     -407.97651    
     34000   17000          314.03988     -192.67944      13027.072      13917.608      7525.2534      6392.3543      2349.2346      2481.5829      8993.5727      0             -7432.0359      0              0             -183.40902      316912.95      68.178378      68.178378      68.178378      0.56999999    -474.00246     -240.64491      136.60904    
     35000   17500          307.62388     -476.00777      11594.97       13795.007      7371.5086      6423.4984      2390.0276      2522.5633      8968.0354      0             -7457.1279      0              0             -183.40902      316912.95      68.178378      68.178378      68.178378      0.56999999    -399.18263     -508.64908     -520.19159    
     36000   18000          314.14573     -260.84498      12744.036      13949.622      7527.7899      6421.8321      2410.7145      2450.3519      9011.9735      0             -7451.2078      0              0             -183.40902      316912.95      68.178378      68.178378      68.178378      0.56999999    -493.1156      -414.56511      125.14575    
     37000   18500          316.92365     -238.19061      13068.037      14168.918      7594.3565      6574.5614      2451.7031      2543.1807      9007.5511      0             -7427.8735      0              0             -183.40902      316912.95      68.178378      68.178378      68.178378      0.56999999    -345.28104     -162.27786     -207.01293    
     38000   19000          313.9389      -329.14562      12558.434      14079.696      7522.8337      6556.8623      2441.7698      2514.2389      8953.0923      0             -7352.2387      0              0             -183.40902      316912.95      68.178378      68.178378      68.178378      0.56999999    -392.52001     -563.40718     -31.509663    
     39000   19500          313.76071     -217.06354      13051.019      14054.254      7518.5639      6535.6899      2443.8377      2535.7188      8905.3782      0             -7349.2448      0              0             -183.40902      316912.95      68.178378      68.178378      68.178378      0.56999999    -222.53811     -295.59261     -133.05991    
     40000   20000          311.91233     -599.8715       11233.457      14005.973      7474.2717      6531.7016      2450.7533      2488.2688      8959.4081      0             -7366.7286      0              0             -183.40902      316912.95      68.178378      68.178378      68.178378      0.56999999    -439.44452     -854.4854      -505.68459    
     41000   20500          311.15291      274.65108      15302.01       14032.614      7456.0737      6576.5406      2489.0337      2466.4612      8967.703       0             -7346.6573      0              0             -183.40902      316912.95      68.178378      68.178378      68.178378      0.56999999     219.88867      489.35103      114.71352    
     42000   21000          317.27939     -164.16826      13171.604      13930.365      7602.881       6327.4842      2405.6536      2423.7649      8923.2942      0             -7425.2285      0              0             -183.40902      316912.95      68.178378      68.178378      68.178378      0.56999999    -210.80088     -249.37642     -32.327477    
     43000   21500          312.57478     -493.87338      11707.222      13989.831      7490.1456      6499.6852      2471.9548      2491.2244      8923.2633      0             -7386.7572      0              0             -183.40902      316912.95      68.178378      68.178378      68.178378      0.56999999    -659.80057     -212.66372     -609.15585    
     44000   22000          316.81964     -402.25341      12345.565      14204.72       7591.8641      6612.8564      2520.8475      2509.2397      8993.003       0             -7410.2339      0              0             -183.40902      316912.95      68.178378      68.178378      68.178378      0.56999999    -441.7241      -92.939642     -672.09651    
     45000   22500          320.7403      -156.66918      13448.894      14172.995      7685.814       6487.1812      2455.2953      2464.8123      8986.1863      0             -7419.1127      0              0             -183.40902      316912.95      68.178378      68.178378      68.178378      0.56999999    -130.6858       55.391706     -394.71345    
     46000   23000          317.43517     -301.9172       12570.771      13966.187      7606.6139      6359.5729      2401.444       2466.3825      8884.9942      0             -7393.2478      0              0             -183.40902      316912.95      68.178378      68.178378      68.178378      0.56999999    -454.70926     -504.60829      53.565951    
     47000   23500          314.89016     -335.89135      12417.63       13970.07       7545.6284      6424.4413      2416.2251      2450.9432      8956.0645      0             -7398.7916      0              0             -183.40902      316912.95      68.178378      68.178378      68.178378      0.56999999    -450.43178     -147.94984     -409.29242    
     48000   24000          320.263       -115.82662      13697.411      14232.744      7674.3765      6558.3677      2479.4135      2507.7537      8989.5731      0             -7418.3726      0              0             -183.40902      316912.95      68.178378      68.178378      68.178378      0.56999999    -89.820582      6.6825268     -264.34181    
     49000   24500          312.30282     -642.7841       11056.059      14026.911      7483.6288      6543.2824      2539.8613      2498.0877      8959.9331      0             -7454.5998      0              0             -183.40902      316912.95      68.178378      68.178378      68.178378      0.56999999    -355.87503     -501.3361      -1071.1412    
     50000   25000          325.63515     -605.37056      11438.886      14236.819      7803.1079      6433.7106      2426.7747      2496.9846      8961.0028      0             -7451.0515      0              0             -183.40902      316912.95      68.178378      68.178378      68.178378      0.56999999    -127.48885     -769.63657     -918.98627    
     51000   25500          319.59828     -468.11535      11926.665      14090.224      7658.448       6431.7757      2456.2303      2507.5442      8933.0831      0             -7465.082       0              0             -183.40902      316912.95      68.178378      68.178378      68.178378      0.56999999    -232.37676     -488.70272     -683.26658    
     52000   26000          317.22413      258.82451      15234.131      14037.883      7601.5568      6436.3265      2432.1964      2487.8475      8941.8236      0             -7425.541       0              0             -183.40902      316912.95      68.178378      68.178378      68.178378      0.56999999     395.82543      154.69895      225.94915    
     53000   26500          314.7878      -428.86414      12034.263      14016.409      7543.1757      6473.2332      2512.3574      2516.202       8907.4252      0             -7462.7514      0              0             -183.40902      316912.95      68.178378      68.178378      68.178378      0.56999999    -412.38042     -386.58208     -487.62992    
     54000   27000          321.74338     -437.21113      12128.717      14149.442      7709.8504      6439.5914      2475.4557      2540.2272      8925.7284      0             -7501.82        0              0             -183.40902      316912.95      68.178378      68.178378      68.178378      0.56999999    -541.50051     -421.49727     -348.63561    
     55000   27500          320.31097     -387.58597      12337.788      14129.152      7675.5258      6453.6265      2489.1277      2521.9577      8921.6188      0             -7479.0778      0              0             -183.40902      316912.95      68.178378      68.178378      68.178378      0.56999999    -479.84108     -221.07302     -461.84382    
     56000   28000          320.90038     -110.87588      13679.421      14191.872      7689.6498      6502.2225      2514.0328      2511.8195      8934.0379      0             -7457.6677      0              0             -183.40902      316912.95      68.178378      68.178378      68.178378      0.56999999    -353.79249      460.29185     -439.127      
     57000   28500          323.00473     -262.52272      12994.653      14207.994      7740.0758      6467.9177      2478.8371      2521.2329      8980.1738      0             -7512.3262      0              0             -183.40902      316912.95      68.178378      68.178378      68.178378      0.56999999    -368.51699     -23.225713     -395.82547    
     58000   29000          315.43958     -314.70737      12612.872      14067.402      7558.7942      6508.6082      2494.8067      2580.7252      8953.3789      0             -7520.3026      0              0             -183.40902      316912.95      68.178378      68.178378      68.178378      0.56999999    -721.07885      72.745625     -295.78889    
     59000   29500          324.83646     -139.24539      13600.973      14244.544      7783.9691      6460.5749      2512.2407      2519.0373      8925.097       0             -7495.8001      0              0             -183.40902      316912.95      68.178378      68.178378      68.178378      0.56999999    -67.803661     -101.42592     -248.50659    
     60000   30000          321.69625     -182.25041      13336.054      14178.388      7708.721       6469.6667      2502.5335      2533.5489      8899.8354      0             -7466.2511      0              0             -183.40902      316912.95      68.178378      68.178378      68.178378      0.56999999     155.26105     -88.109696     -613.90258    
     61000   30500          321.77639     -302.314        12849.208      14246.458      7710.6415      6535.8161      2455.1847      2565.9604      8969.3024      0             -7454.6314      0              0             -183.40902      316912.95      68.178378      68.178378      68.178378      0.56999999    -341.75074     -55.192923     -509.99834    
     62000   31000          317.4666      -454.14937      12112.517      14211.527      7607.367       6604.16        2541.7974      2476.6374      8957.5545      0             -7371.8293      0              0             -183.40902      316912.95      68.178378      68.178378      68.178378      0.56999999    -311.61828     -217.75123     -833.07859    
     63000   31500          324.14599     -84.926574      14048.974      14441.492      7767.4234      6674.0681      2508.6443      2544.0667      8985.3957      0             -7364.0385      0              0             -183.40902      316912.95      68.178378      68.178378      68.178378      0.56999999     168.74758     -217.51745     -206.00986    
     64000   32000          328.04981     -236.37299      13526.442      14618.923      7860.9696      6757.9531      2639.5127      2587.8347      8910.8694      0             -7380.2637      0              0             -183.40902      316912.95      68.178378      68.178378      68.178378      0.56999999    -99.211406     -324.28705     -285.62051    
     65000   32500          321.50935     -202.24189      13332.336      14267.068      7704.2424      6562.8253      2572.8232      2550.4985      8876.1008      0             -7436.5972      0              0             -183.40902      316912.95      68.178378      68.178378      68.178378      0.56999999    -510.38639     -155.89362      59.554349    
     66000   33000          325.36051     -289.73359      13027.402      14366.507      7796.5267      6569.9804      2499.2038      2565.7786      8950.9232      0             -7445.9252      0              0             -183.40902      316912.95      68.178378      68.178378      68.178378      0.56999999    -496.35853     -82.231599     -290.61066    
     67000   33500          320.50583     -426.05396      12270.942      14240.1        7680.1954      6559.9047      2512.5294      2640.0985      8935.4983      0             -7528.2216      0              0             -183.40902      316912.95      68.178378      68.178378      68.178378      0.56999999    -596.75983     -474.454       -206.94804    
     68000   34000          326.10406     -16.673288      14265.068      14342.13       7814.3441      6527.7855      2504.9261      2583.1046      8953.4349      0             -7513.6801      0              0             -183.40902      316912.95      68.178378      68.178378      68.178378      0.56999999    -6.9588202     -369.24783      326.18679    
     69000   34500          329.10197      72.412308      14802.415      14467.736      7886.1824      6581.5534      2536.0199      2654.5881      8940.4007      0             -7549.4553      0              0             -183.40902      316912.95      68.178378      68.178378      68.178378      0.56999999    -93.484203      24.571058      286.15007    
     70000   35000          322.79639     -394.12239      12392.884      14214.458      7735.0834      6479.3751      2507.5032      2557.6319      8994.1631      0             -7579.9231      0              0             -183.40902      316912.95      68.178378      68.178378      68.178378      0.56999999    -385.30983     -545.69991     -251.35741    
     71000   35500          320.64456     -97.031998      13784.016      14232.483      7683.5196      6548.9634      2509.5508      2597.7313      9002.156       0             -7560.4746      0              0             -183.40902      316912.95      68.178378      68.178378      68.178378      0.56999999    -320.36682      117.47733     -88.206495    
     72000   36000          326.01919     -63.339972      14145.89       14438.638      7812.3105      6626.3277      2564.5822      2565.9204      9000.7582      0             -7504.9331      0              0             -183.40902      316912.95      68.178378      68.178378      68.178378      0.56999999    -154.52219     -265.92292      230.42519    
     73000   36500          330.37867     -771.75457      11044.098      14611.032      7916.7756      6694.2567      2592.1172      2599.642       8967.0893      0             -7464.5919      0              0             -183.40902      316912.95      68.178378      68.178378      68.178378      0.56999999    -578.59835     -647.03468     -1089.6307    
     74000   37000          327.2675      -468.30667      12347.622      14512.065      7842.2234      6669.8416      2553.0623      2562.4498      9015.5972      0             -7461.2676      0              0             -183.40902      316912.95      68.178378      68.178378      68.178378      0.56999999    -324.3454      -517.22857     -563.34605    
     75000   37500          326.85578     -265.30498      13256.565      14482.765      7832.3574      6650.4072      2588.3797      2587.7165      8972.215       0             -7497.904       0              0             -183.40902      316912.95      68.178378      68.178378      68.178378      0.56999999    -285.9274      -254.13469     -255.85284    
     76000   38000          327.38611     -364.34907      12922.141      14606.108      7845.0656      6761.042       2628.226       2611.4828      9008.261       0             -7486.9278      0              0             -183.40902      316912.95      68.178378      68.178378      68.178378      0.56999999    -52.731928     -337.98856     -702.32672    
     77000   38500          327.92614     -216.10202      13483.536      14482.327      7858.0062      6624.3209      2603.52        2587.528       8928.5922      0             -7495.3193      0              0             -183.40902      316912.95      68.178378      68.178378      68.178378      0.56999999    -222.05453     -276.38233     -149.86921    
     78000   39000          325.67142     -633.58011      11636.055      14564.368      7803.9769      6760.3906      2618.9896      2666.0962      8958.7948      0             -7483.49        0              0             -183.40902      316912.95      68.178378      68.178378      68.178378      0.56999999    -534.98981     -386.93503     -978.8155     
     79000   39500          327.3193       45.081317      14627.283      14418.924      7843.4647      6575.459       2615.8001      2531.213       8923.6601      0             -7495.2143      0              0             -183.40902      316912.95      68.178378      68.178378      68.178378      0.56999999     132.88806      9.5379678     -7.1820798    
     80000   40000          327.3324      -201.59453      13682.078      14613.818      7843.7785      6770.0391      2660.1438      2642.75        9017.0584      0             -7549.9131      0              0             -183.40902      316912.95      68.178378      68.178378      68.178378      0.56999999    -1.2383603     -213.00065     -390.54458    
     81000   40500          328.22575     -408.07045      12564.301      14450.342      7865.1857      6585.1559      2632.5695      2539.0522      8995.5306      0             -7581.9963      0              0             -183.40902      316912.95      68.178378      68.178378      68.178378      0.56999999    -1.7249349     -707.32853     -515.1579     
     82000   41000          330.4056      -504.97196      12222.313      14556.218      7917.4208      6638.7969      2649.8594      2547.231       9012.4012      0             -7570.6948      0              0             -183.40902      316912.95      68.178378      68.178378      68.178378      0.56999999    -325.24468     -472.00706     -717.66414    
     83000   41500          331.05641     -61.33087       14417.231      14700.693      7933.016       6767.6774      2657.557       2629.1429      9017.7574      0             -7536.7799      0              0             -183.40902      316912.95      68.178378      68.178378      68.178378      0.56999999     245.65507     -418.50415     -11.143525    
     84000   42000          332.07236     -291.33379      13241.613      14588.114      7957.361       6630.7528      2552.4869      2623.8056      9015.1234      0             -7560.6632      0              0             -183.40902      316912.95      68.178378      68.178378      68.178378      0.56999999    -244.96095     -269.05221     -359.98822    
     85000   42500          335.91965     -636.52027      11725.87       14667.771      8049.5525      6618.2186      2592.0023      2597.669       8977.9503      0             -7549.403       0              0             -183.40902      316912.95      68.178378      68.178378      68.178378      0.56999999    -762.04884     -642.86168     -504.6503     
     86000   43000          332.42119     -262.43697      13373.106      14586.05       7965.72        6620.3305      2609.6913      2523.0029      8991.5299      0             -7503.8936      0              0             -183.40902      316912.95      68.178378      68.178378      68.178378      0.56999999    -121.36626     -724.40555      58.46088     
     87000   43500          327.952       -587.64231      11838.813      14554.808      7858.6259      6696.1819      2654.7662      2606.0397      8938.7897      0             -7503.4137      0              0             -183.40902      316912.95      68.178378      68.178378      68.178378      0.56999999    -573.56979     -486.98409     -702.37306    
     88000   44000          335.52558     -825.3869       10910.068      14724.882      8040.1096      6684.7727      2608.9866      2598.7023      8971.002       0             -7493.9182      0              0             -183.40902      316912.95      68.178378      68.178378      68.178378      0.56999999    -905.74572     -1252.1407     -318.27428    
     89000   44500          330.82408      53.937923      14803.386      14554.093      7927.4488      6626.6439      2500.0491      2631.6165      9020.0548      0             -7525.0765      0              0             -183.40902      316912.95      68.178378      68.178378      68.178378      0.56999999    -351.40096     -246.91113      760.12586    
     90000   45000          333.05768     -144.53423      14000.949      14668.965      7980.972       6687.9927      2625.0244      2597.0642      8989.337       0             -7523.433       0              0             -183.40902      316912.95      68.178378      68.178378      68.178378      0.56999999    -220.2183       47.744355     -261.12874    
     91000   45500          334.14741      105.64879      15176.911      14688.618      8007.0849      6681.5332      2647.5175      2660.9844      8937.6513      0             -7564.62        0              0             -183.40902      316912.95      68.178378      68.178378      68.178378      0.56999999     226.11714     -110.83042      201.65963    
     92000   46000          333.3644      -188.34256      13751.218      14621.709      7988.3219      6633.3876      2619.2085      2574.3912      9018.2091      0             -7578.4212      0              0             -183.40902      316912.95      68.178378      68.178378      68.178378      0.56999999    -113.77755      15.610087     -466.86023    
     93000   46500          335.01029      77.402639      15083.064      14725.321      8027.7617      6697.5589      2654.1771      2596.4587      9026.1127      0             -7579.1897      0              0             -183.40902      316912.95      68.178378      68.178378      68.178378      0.56999999     464.93655     -165.22357     -67.505068    
     94000   47000          332.32634     -51.526492      14374.836      14612.984      7963.4471      6649.5367      2610.7124      2630.7873      8980.8455      0             -7572.8086      0              0             -183.40902      316912.95      68.178378      68.178378      68.178378      0.56999999     25.883523      38.206091     -218.66909    
     95000   47500          332.73401     -334.5871       13111.332      14657.744      7973.2159      6684.5279      2656.6877      2667.5574      8979.1482      0             -7618.8654      0              0             -183.40902      316912.95      68.178378      68.178378      68.178378      0.56999999    -463.15375     -604.96708      64.35953     
     96000   48000          334.05708     -196.99714      13835.313      14745.804      8004.9202      6740.8838      2653.5723      2687.0846      9012.218       0             -7611.9911      0              0             -183.40902      316912.95      68.178378      68.178378      68.178378      0.56999999    -331.7729       63.260463     -322.47898    
     97000   48500          334.28564     -250.68896      13646.706      14805.353      8010.3972      6794.9555      2655.9642      2625.477       9071.4966      0             -7557.9823      0              0             -183.40902      316912.95      68.178378      68.178378      68.178378      0.56999999    -437.41165     -200.2412      -114.41402    
     98000   49000          334.59484     -122.63501      14236.789      14803.59       8017.8066      6785.7833      2662.175       2640.8049      9058.0686      0             -7575.2652      0              0             -183.40902      316912.95      68.178378      68.178378      68.178378      0.56999999    -257.75183     -92.768128     -17.385058    
     99000   49500          336.62195     -203.90951      13985.275      14927.714      8066.3816      6861.3322      2698.2795      2677.1652      9070.6167      0             -7584.7292      0              0             -183.40902      316912.95      68.178378      68.178378      68.178378      0.56999999    -632.43666     -44.123331      64.831471    
    100000   50000          333.13887     -397.78724      13035.616      14874.129      7982.9174      6891.2114      2752.7118      2686.2858      9021.2554      0             -7569.0416      0              0             -183.40902      316912.95      68.178378      68.178378      68.178378      0.56999999    -382.60304     -545.38558     -265.37309    
    101000   50500          330.97758     -687.39169      11589.182      14766.203      7931.1271      6835.0761      2751.0261      2600.9318      9064.0154      0             -7580.8973      0              0             -183.40902      316912.95      68.178378      68.178378      68.178378      0.56999999    -737.6904      -562.37966     -762.10502    
    102000   51000          336.44595     -745.02378      11440.615      14884.003      8062.1641      6821.839       2673.0421      2679.6629      9055.6858      0             -7586.5518      0              0             -183.40902      316912.95      68.178378      68.178378      68.178378      0.56999999    -865.35404     -855.33845     -514.37886    
    103000   51500          337.1774      -252.62273      13796.431      14964.015      8079.6917      6884.3235      2687.9595      2684.6873      9068.242       0             -7556.5653      0              0             -183.40902      316912.95      68.178378      68.178378      68.178378      0.56999999    -379.82756     -273.65535     -104.38529    
    104000   52000          342.08793      81.128814      15463.451      15088.486      8197.3614      6891.1247      2738.386       2651.5414      9029.881       0             -7528.6837      0              0             -183.40902      316912.95      68.178378      68.178378      68.178378      0.56999999    -236.2618       204.72269      274.92555    
    105000   52500          337.50896     -243.27725      13717.342      14841.733      8087.6367      6754.096       2650.7399      2673.8101      8976.2017      0             -7546.6558      0              0             -183.40902      316912.95      68.178378      68.178378      68.178378      0.56999999    -336.52687     -150.91645     -242.38843    
    106000   53000          343.55008     -143.13277      14352.132      15013.67       8232.3985      6781.2719      2682.0876      2676.7106      8985.9373      0             -7563.4635      0              0             -183.40902      316912.95      68.178378      68.178378      68.178378      0.56999999    -282.0834       49.329195     -196.64412    
    107000   53500          338.01838     -196.03463      13933.952      14839.995      8099.8438      6740.1514      2687.089       2654.8335      9024.3917      0             -7626.1628      0              0             -183.40902      316912.95      68.178378      68.178378      68.178378      0.56999999    -506.70521     -307.75816      226.35948    
    108000   54000          336.9546      -54.646324      14583.926      14836.493      8074.3527      6762.1402      2703.2609      2655.4562      9002.7832      0             -7599.3602      0              0             -183.40902      316912.95      68.178378      68.178378      68.178378      0.56999999    -257.49612     -157.53863      251.09577    
    109000   54500          338.81572     -132.54502      14303.9        14916.503      8118.9502      6797.5526      2692.2261      2705.3336      8982.2652      0             -7582.2723      0              0             -183.40902      316912.95      68.178378      68.178378      68.178378      0.56999999    -504.26214      368.94307     -262.31598    
    110000   55000          335.6006       197.87423      15700.587      14786.042      8041.9073      6744.1342      2681.7818      2700.3098      9028.5425      0             -7666.4999      0              0             -183.40902      316912.95      68.178378      68.178378      68.178378      0.56999999    -95.478547     -6.0777524      695.17899    
    111000   55500          339.06349     -282.61754      13715.216      15021.432      8124.8876      6896.5446      2721.1543      2748.4856      9054.081       0             -7627.1764      0              0             -183.40902      316912.95      68.178378      68.178378      68.178378      0.56999999     58.920644     -173.7066      -733.06666    
    112000   56000          339.45493     -376.26894      13064.102      14803.16       8134.2676      6668.8929      2639.0074      2637.6843      9018.063       0             -7625.8618      0              0             -183.40902      316912.95      68.178378      68.178378      68.178378      0.56999999    -166.43415     -356.58591     -605.78676    
    113000   56500          343.79323     -111.00519      14554.116      15067.166      8238.225       6828.9408      2720.5633      2691.2081      9043.8811      0             -7626.7118      0              0             -183.40902      316912.95      68.178378      68.178378      68.178378      0.56999999    -284.10692      226.7299      -275.63854    
    114000   57000          340.69937     -249.5149       13988.391      15141.612      8164.0877      6977.5242      2754.2395      2686.3701      9101.4305      0             -7564.5158      0              0             -183.40902      316912.95      68.178378      68.178378      68.178378      0.56999999    -235.78457     -336.40399     -176.35613    
    115000   57500          337.79293     -468.63856      12896.818      15062.795      8094.4415      6968.3535      2783.1375      2682.5237      9028.1958      0             -7525.5034      0              0             -183.40902      316912.95      68.178378      68.178378      68.178378      0.56999999    -69.097849     -652.35374     -684.46408    
    116000   58000          345.95638     -206.46009      14209.434      15163.662      8290.06        6873.6021      2667.8232      2651.3072      9054.8741      0             -7500.4024      0              0             -183.40902      316912.95      68.178378      68.178378      68.178378      0.56999999    -374.91969     -121.67518     -122.78539    
    117000   58500          345.70035     -98.270248      14857.109      15311.299      8283.9247      7027.3746      2760.7256      2728.775       9048.0588      0             -7510.1848      0              0             -183.40902      316912.95      68.178378      68.178378      68.178378      0.56999999    -160.77307     -14.925804     -119.11187    
    118000   59000          343.53003     -388.79255      13296.357      15093.297      8231.918       6861.3795      2747.8077      2634.7007      8988.737       0             -7509.8659      0              0             -183.40902      316912.95      68.178378      68.178378      68.178378      0.56999999    -570.79026     -346.03174     -249.55564    
    119000   59500          339.7064      -548.85161      12547.425      15084.135      8140.2934      6943.8414      2715.1892      2695.0841      9106.3948      0             -7572.8266      0              0             -183.40902      316912.95      68.178378      68.178378      68.178378      0.56999999    -663.41051     -588.21141     -394.9329     
    120000   60000          344.98943     -409.98668      13398.339      15293.236      8266.8893      7026.3463      2756.6804      2753.8079      9115.0525      0             -7599.1944      0              0             -183.40902      316912.95      68.178378      68.178378      68.178378      0.56999999    -307.72259     -315.87421     -606.36323    
    121000   60500          348.75094      82.612594      15596.413      15214.59       8357.0252      6857.5643      2753.5495      2631.924       9100.9908      0             -7628.9         0              0             -183.40902      316912.95      68.178378      68.178378      68.178378      0.56999999     139.57533     -160.7931       269.05555    
    122000   61000          341.7435      -220.7431       14106.425      15126.666      8189.108       6937.5582      2763.144       2689.2857      9083.285       0             -7598.1566      0              0             -183.40902      316912.95      68.178378      68.178378      68.178378      0.56999999     32.699267     -422.02038     -272.90819    
    123000   61500          347.29017      3.1828938      15365.804      15351.093      8322.0212      7029.0717      2781.9614      2710.1619      9099.3652      0             -7562.4168      0              0             -183.40902      316912.95      68.178378      68.178378      68.178378      0.56999999     246.387       -310.11767      73.279351    
    124000   62000          346.04621     -66.846243      14907.962      15216.915      8292.2127      6924.7023      2757.1152      2626.8888      9110.9507      0             -7570.2523      0              0             -183.40902      316912.95      68.178378      68.178378      68.178378      0.56999999     116.79892     -105.45114     -211.88651    
    125000   62500          346.82967     -36.512831      15200.586      15369.343      8310.9865      7058.3564      2740.5267      2793.5197      9107.8166      0             -7583.5067      0              0             -183.40902      316912.95      68.178378      68.178378      68.178378      0.56999999     82.152691     -190.73694     -0.95424624   
    126000   63000          341.34315     -120.04503      14693.23       15248.06       8179.5143      7068.5456      2728.8679      2796.4578      9133.3383      0             -7590.1185      0              0             -183.40902      316912.95      68.178378      68.178378      68.178378      0.56999999    -351.53393      88.89351      -97.494675    
    127000   63500          344.62187      66.992498      15722.991      15413.362      8258.0815      7155.2805      2825.5256      2746.4427      9146.5878      0             -7563.2756      0              0             -183.40902      316912.95      68.178378      68.178378      68.178378      0.56999999    -143.00814      303.88043      40.105201    
    128000   64000          345.18269     -254.24612      14172.253      15347.341      8271.5202      7075.8208      2736.4163      2791.2028      9105.5545      0             -7557.3528      0              0             -183.40902      316912.95      68.178378      68.178378      68.178378      0.56999999    -378.29011     -273.08505     -111.3632     
    129000   64500          345.72683     -284.62818      13945.051      15260.56       8284.5593      6976.0004      2773.4348      2682.088       9079.5572      0             -7559.0796      0              0             -183.40902      316912.95      68.178378      68.178378      68.178378      0.56999999    -278.27611     -554.51083     -21.097592    
    130000   65000          350.09429     -37.344308      15464.481      15637.081      8389.2157      7247.8649      2835.4462      2802.9039      9119.3408      0             -7509.8259      0              0             -183.40902      316912.95      68.178378      68.178378      68.178378      0.56999999     174.80706     -363.28284      76.442857    
    131000   65500          351.14611     -177.70537      14634.672      15455.999      8414.4202      7041.5791      2766.0488      2693.1717      9103.635       0             -7521.2765      0              0             -183.40902      316912.95      68.178378      68.178378      68.178378      0.56999999    -331.52029     -17.866718     -183.72911    
    132000   66000          349.40428     -194.74326      14541.052      15441.126      8372.6811      7068.4454      2773.5031      2754.1578      9079.5734      0             -7538.7889      0              0             -183.40902      316912.95      68.178378      68.178378      68.178378      0.56999999     33.611617     -9.21628       -608.62511    
    133000   66500          349.41243      44.293462      15760.051      15555.333      8372.8765      7182.4564      2811.4265      2761.1424      9108.6063      0             -7498.7189      0              0             -183.40902      316912.95      68.178378      68.178378      68.178378      0.56999999     227.33917      132.40869     -226.86747    
    134000   67000          344.96111     -168.99579      14539.054      15320.127      8266.2106      7053.9169      2775.1241      2736.1265      9116.8245      0             -7574.1582      0              0             -183.40902      316912.95      68.178378      68.178378      68.178378      0.56999999    -177.60835     -72.097229     -257.28178    
    135000   67500          349.84051     -130.03861      14931.668      15532.687      8383.1345      7149.5523      2808.8816      2823.8299      9048.5466      0             -7531.7059      0              0             -183.40902      316912.95      68.178378      68.178378      68.178378      0.56999999     94.844619     -176.87473     -308.08571    
    136000   68000          352.44079      54.301412      15793.686      15542.713      8445.4442      7097.2684      2764.5724      2725.4903      9129.1325      0             -7521.9268      0              0             -183.40902      316912.95      68.178378      68.178378      68.178378      0.56999999    -44.315797      306.44529     -99.225261    
    137000   68500          351.81758     -339.40957      14042.151      15610.851      8430.5103      7180.3407      2807.1026      2770.4549      9119.288       0             -7516.5048      0              0             -183.40902      316912.95      68.178378      68.178378      68.178378      0.56999999    -334.66928     -562.73036     -120.82907    
    138000   69000          347.72937     -86.464136      14996.206      15395.83       8332.5456      7063.2843      2777.037       2658.4647      9081.4263      0             -7453.6438      0              0             -183.40902      316912.95      68.178378      68.178378      68.178378      0.56999999     19.141428     -251.64343     -26.890408    
    139000   69500          352.39201     -179.7223       14818.41       15649.06       8444.2752      7204.7847      2741.3677      2767.8117      9165.1016      0             -7469.4963      0              0             -183.40902      316912.95      68.178378      68.178378      68.178378      0.56999999    -11.172285     -181.29992     -346.69469    
    140000   70000          348.69515     -494.01099      13246.986      15530.23       8355.6883      7174.5421      2797.0906      2765.7963      9073.6121      0             -7461.9569      0              0             -183.40902      316912.95      68.178378      68.178378      68.178378      0.56999999    -846.52112     -258.12918     -377.38267    
    141000   70500          352.11493     -35.07215       15508.783      15670.881      8437.6356      7233.2454      2823.8134      2711.57        9140.6937      0             -7442.8318      0              0             -183.40902      316912.95      68.178378      68.178378      68.178378      0.56999999    -466.71232      293.20963      68.286239    
    142000   71000          353.86904     -0.59146671     15873.322      15876.056      8479.669       7396.3867      2897.6308      2799.8432      9109.5119      0             -7410.5992      0              0             -183.40902      316912.95      68.178378      68.178378      68.178378      0.56999999     122.01992      103.77468     -227.569      
    143000   71500          349.87741     -551.89896      12981.379      15532.174      8384.0186      7148.1551      2800.5928      2772.0963      9064.0038      0             -7488.5378      0              0             -183.40902      316912.95      68.178378      68.178378      68.178378      0.56999999    -500.51712     -432.40979     -722.76998    
    144000   72000          361.252       -347.83245      14327.993      15935.623      8656.5849      7279.0377      2876.5313      2773.0804      9120.0017      0             -7490.5757      0              0             -183.40902      316912.95      68.178378      68.178378      68.178378      0.56999999    -76.323486     -409.81728     -557.35657    
    145000   72500          351.18296     -226.25553      14498.057      15543.777      8415.3033      7128.4733      2782.7154      2726.038       9147.3126      0             -7527.5927      0              0             -183.40902      316912.95      68.178378      68.178378      68.178378      0.56999999    -278.7602      -323.62238     -76.384024    
    146000   73000          356.38368     -289.44667      14265.121      15602.9        8539.9267      7062.9738      2747.762       2715.5572      9111.1035      0             -7511.4489      0              0             -183.40902      316912.95      68.178378      68.178378      68.178378      0.56999999     135.69704     -556.67981     -447.35725    
    147000   73500          355.62241     -93.304496      15226.673      15657.913      8521.6846      7136.2281      2782.6669      2752.0839      9071.8945      0             -7470.4171      0              0             -183.40902      316912.95      68.178378      68.178378      68.178378      0.56999999    -24.463615     -330.31198      74.862111    
    148000   74000          354.65209     -11.163142      15693.213      15744.807      8498.433       7246.3742      2817.5823      2749.019       9173.5556      0             -7493.7826      0              0             -183.40902      316912.95      68.178378      68.178378      68.178378      0.56999999     25.78044      -56.92818      -2.3416874    
    149000   74500          353.86364     -433.6502       13666.185      15670.452      8479.5396      7190.9121      2808.295       2731.6342      9169.8229      0             -7518.8401      0              0             -183.40902      316912.95      68.178378      68.178378      68.178378      0.56999999    -419.46866     -315.46989     -566.01205    
    150000   75000          354.30711     -720.01048      12359.915      15687.696      8490.1662      7197.5296      2787.8498      2766.5761      9113.276       0             -7470.1722      0              0             -183.40902      316912.95      68.178378      68.178378      68.178378      0.56999999    -980.91335     -574.35959     -604.75852    
    151000   75500          362.43224     -229.48264      14878.523      15939.158      8684.8667      7254.2911      2795.0713      2834.5067      9114.8024      0             -7490.0893      0              0             -183.40902      316912.95      68.178378      68.178378      68.178378      0.56999999    -759.12092     -51.264215      121.93721    
    152000   76000          356.02705     -89.83581       15311.478      15726.686      8531.3807      7195.3049      2760.6967      2776.2536      9165.1962      0             -7506.8416      0              0             -183.40902      316912.95      68.178378      68.178378      68.178378      0.56999999    -255.20371     -34.477078      20.173355    
    153000   76500          359.05607     -113.33066      15400.991      15924.788      8603.9643      7320.824       2899.4442      2808.6926      9126.5014      0             -7513.8142      0              0             -183.40902      316912.95      68.178378      68.178378      68.178378      0.56999999     153.62457     -49.882506     -443.73405    
    154000   77000          361.76702     -287.32839      14671.584      15999.573      8668.9262      7330.6465      2896.6629      2800.084       9127.7908      0             -7493.8912      0              0             -183.40902      316912.95      68.178378      68.178378      68.178378      0.56999999    -393.25422     -373.73012     -95.000838    
    155000   77500          353.03102      100.38514      16105.339      15641.374      8459.5876      7181.7861      2806.7535      2756.3522      9128.5883      0             -7509.9078      0              0             -183.40902      316912.95      68.178378      68.178378      68.178378      0.56999999     272.37123      171.75085     -142.96665    
    156000   78000          356.58278     -37.421346      15705.201      15878.157      8544.6977      7333.4593      2869.8785      2820.152       9147.7493      0             -7504.3204      0              0             -183.40902      316912.95      68.178378      68.178378      68.178378      0.56999999     72.259094     -127.95986     -56.56327     
    157000   78500          355.84103     -314.76876      14414.486      15869.3        8526.9233      7342.3765      2883.7041      2741.0808      9207.7818      0             -7490.1902      0              0             -183.40902      316912.95      68.178378      68.178378      68.178378      0.56999999    -547.7211       121.66765     -518.25282    
    158000   79000          359.57998     -102.32124      15411.534      15884.448      8616.5186      7267.9289      2871.2895      2757.4777      9110.556       0             -7471.3942      0              0             -183.40902      316912.95      68.178378      68.178378      68.178378      0.56999999    -256.72988      44.807456     -95.041294    
    159000   79500          359.81726     -240.81967      14906.187      16019.22       8622.2046      7397.0152      2915.3412      2802.9055      9142.7532      0             -7463.9847      0              0             -183.40902      316912.95      68.178378      68.178378      68.178378      0.56999999    -254.64915     -181.29354     -286.51631    
    160000   80000          355.70953     -376.97864      14304.295      16046.634      8523.7722      7522.8618      2919.4273      2878.7153      9164.7268      0             -7440.0076      0              0             -183.40902      316912.95      68.178378      68.178378      68.178378      0.56999999    -345.24432     -327.87929     -457.8123     
    161000   80500          357.37216     -624.91741      13046.474      15934.749      8563.6132      7371.1356      2905.945       2791.8667      9111.1616      0             -7437.8377      0              0             -183.40902      316912.95      68.178378      68.178378      68.178378      0.56999999    -261.31014     -919.73381     -693.7083     
    162000   81000          357.26003     -412.61337      14129.916      16036.954      8560.9264      7476.0272      2910.1639      2800.6243      9169.3722      0             -7404.1332      0              0             -183.40902      316912.95      68.178378      68.178378      68.178378      0.56999999    -119.6055      -742.41563     -375.81899    
    163000   81500          358.0154      -461.11906      14011.829      16143.052      8579.027       7564.0249      2910.3052      2868.8367      9193.6478      0             -7408.7648      0              0             -183.40902      316912.95      68.178378      68.178378      68.178378      0.56999999    -200.78406     -430.41735     -752.15577    
    164000   82000          360.18605     -253.14798      14930.657      16100.669      8631.0417      7469.6278      2898.0527      2814.8447      9168.6487      0             -7411.9183      0              0             -183.40902      316912.95      68.178378      68.178378      68.178378      0.56999999    -239.4804      -238.58262     -281.38091    
    165000   82500          352.30028     -356.54592      14114.86       15762.762      8442.0771      7320.6847      2852.8721      2733.8156      9174.2461      0             -7440.249       0              0             -183.40902      316912.95      68.178378      68.178378      68.178378      0.56999999    -21.814657     -721.8046      -326.0185     
    166000   83000          365.82142     -65.291634      15979.116      16280.885      8766.0807      7514.8038      2912.9644      2843.445       9191.449       0             -7433.0546      0              0             -183.40902      316912.95      68.178378      68.178378      68.178378      0.56999999    -426.28279      263.44408     -33.036188    
    167000   83500          361.09761     -311.80093      14664.759      16105.856      8652.8853      7452.9706      2936.2821      2800.9212      9175.8428      0             -7460.0755      0              0             -183.40902      316912.95      68.178378      68.178378      68.178378      0.56999999    -18.325759     -332.52864     -584.54838    
    168000   84000          358.08878     -127.33266      15476.651      16065.163      8580.7854      7484.378       2972.9538      2851.117       9184.7752      0             -7524.4681      0              0             -183.40902      316912.95      68.178378      68.178378      68.178378      0.56999999    -327.61152      100.70481     -155.09128    
    169000   84500          363.60053     -111.63387      15655.448      16171.403      8712.862       7458.541       2894.9985      2820.6697      9188.2096      0             -7445.3369      0              0             -183.40902      316912.95      68.178378      68.178378      68.178378      0.56999999    -65.01713      -36.175397     -233.70909    
    170000   85000          363.53802      33.472107      16330.416      16175.713      8711.3641      7464.3486      2898.2035      2870.2459      9151.8642      0             -7455.9649      0              0             -183.40902      316912.95      68.178378      68.178378      68.178378      0.56999999     65.455392      326.33355     -291.37262    
    171000   85500          363.53648      259.84567      17419.265      16218.297      8711.3272      7506.9702      2888.0323      2893.9632      9170.9079      0             -7445.9332      0              0             -183.40902      316912.95      68.178378      68.178378      68.178378      0.56999999     170.45301      215.4503       393.63369    
    172000   86000          356.74184     -3.4395593      16037.636      16053.533      8548.5091      7505.0238      2893.6512      2833.7192      9212.5349      0             -7434.8816      0              0             -183.40902      316912.95      68.178378      68.178378      68.178378      0.56999999     18.259802     -31.934108      3.3556284    
    173000   86500          360.94952     -179.05605      15442.83       16270.4        8649.3367      7621.0633      2881.0045      2908.0333      9268.1123      0             -7436.0867      0              0             -183.40902      316912.95      68.178378      68.178378      68.178378      0.56999999    -111.44938     -523.56922      97.850453    
    174000   87000          361.0628      -161.94743      15486.254      16234.751      8652.0511      7582.6996      2925.3588      2851.0639      9185.8213      0             -7379.5444      0              0             -183.40902      316912.95      68.178378      68.178378      68.178378      0.56999999    -131.60497     -93.964156     -260.27318    
    175000   87500          365.89929     -517.10436      13827.295      16217.273      8767.9467      7449.3268      2876.0524      2803.1494      9219.5559      0             -7449.431       0              0             -183.40902      316912.95      68.178378      68.178378      68.178378      0.56999999    -267.77556     -690.03052     -593.507      
    176000   88000          365.47468     -354.73503      14821.484      16461.016      8757.7718      7703.2441      2918.6639      2869.16        9309.704       0             -7394.2839      0              0             -183.40902      316912.95      68.178378      68.178378      68.178378      0.56999999    -328.28098     -286.0556      -449.8685     
    177000   88500          363.94097      203.67634      17338.366      16397.005      8721.02        7675.9848      2950.2493      2890.4481      9228.8855      0             -7393.598       0              0             -183.40902      316912.95      68.178378      68.178378      68.178378      0.56999999     332.41929      191.18784      87.421897    
    178000   89000          364.18005     -202.81303      15265.243      16202.614      8726.7489      7475.8655      2918.9022      2814.8386      9157.8121      0             -7415.6874      0              0             -183.40902      316912.95      68.178378      68.178378      68.178378      0.56999999    -198.61517     -221.24919     -188.57474    
    179000   89500          358.00909     -285.30215      14783.249      16101.873      8578.8759      7522.9969      2949.9996      2845.7537      9139.7462      0             -7412.5026      0              0             -183.40902      316912.95      68.178378      68.178378      68.178378      0.56999999    -526.20757      90.726464     -420.42534    
    180000   90000          369.75016      155.90875      17246.727      16526.14       8860.224       7665.9164      2981.7816      2866.9546      9240.8262      0             -7423.6461      0              0             -183.40902      316912.95      68.178378      68.178378      68.178378      0.56999999    -64.270156      337.66266      194.33376    
    181000   90500          371.30858     -43.249698      16233.544      16433.437      8897.568       7535.8692      2893.0121      2831.0334      9207.4722      0             -7395.6485      0              0             -183.40902      316912.95      68.178378      68.178378      68.178378      0.56999999    -215.38444      121.80244     -36.167091    
    182000   91000          370.50894      363.70178      18217.207      16536.232      8878.4063      7657.8252      2929.2106      2839.4013      9241.7545      0             -7352.5412      0              0             -183.40902      316912.95      68.178378      68.178378      68.178378      0.56999999     504.71157      203.14461      383.24917    
    183000   91500          363.39112     -343.60176      14733.123      16321.198      8707.8439      7613.3546      2978.9364      2834.9053      9201.3741      0             -7401.8612      0              0             -183.40902      316912.95      68.178378      68.178378      68.178378      0.56999999    -581.69207     -202.09577     -247.01745    
    184000   92000          365.39211      24.701981      16584.305      16470.136      8755.7932      7714.343       2907.4036      2905.381       9327.3145      0             -7425.7561      0              0             -183.40902      316912.95      68.178378      68.178378      68.178378      0.56999999    -144.62925      583.64398     -364.90879    
    185000   92500          366.9876      -110.90736      15907.682      16420.28       8794.0256      7626.254       2903.2717      2875.7244      9270.1121      0             -7422.8542      0              0             -183.40902      316912.95      68.178378      68.178378      68.178378      0.56999999     142.12434     -114.15948     -360.68693    
    186000   93000          369.72121     -471.16516      14257.004      16434.659      8859.5302      7575.1285      2883.3421      2852.7414      9237.9785      0             -7398.9335      0              0             -183.40902      316912.95      68.178378      68.178378      68.178378      0.56999999    -441.05727     -620.32596     -352.11225    
    187000   93500          362.78698     -70.178159      15966.899      16291.252      8693.3672      7597.8852      2903.5503      2857.0479      9264.4224      0             -7427.1355      0              0             -183.40902      316912.95      68.178378      68.178378      68.178378      0.56999999    -66.056317     -237.56118      93.083021    
    188000   94000          371.98236     -207.3552       15586.299      16544.663      8913.7135      7630.9497      2943.713       2868.523       9229.1641      0             -7410.4503      0              0             -183.40902      316912.95      68.178378      68.178378      68.178378      0.56999999    -671.86093     -10.593365      60.38869     
    189000   94500          365.10037     -364.91259      14851.584      16538.156      8748.8023      7789.3535      2878.1344      2937.3115      9307.6532      0             -7333.7455      0              0             -183.40902      316912.95      68.178378      68.178378      68.178378      0.56999999    -462.09441     -196.05756     -436.58579    
    190000   95000          371.51818     -561.58271      14046.081      16641.633      8902.5906      7739.042       2941.2257      2898.4396      9256.1313      0             -7356.7547      0              0             -183.40902      316912.95      68.178378      68.178378      68.178378      0.56999999    -588.57235     -385.13411     -711.04168    
    191000   95500          371.62043     -383.76004      14818.104      16591.785      8905.0408      7686.7446      2926.5558      2892.3723      9236.2266      0             -7368.4101      0              0             -183.40902      316912.95      68.178378      68.178378      68.178378      0.56999999    -56.80284      -412.86527     -681.61199    
    192000   96000          370.04442     -472.0774       14567.49       16749.361      8867.2752      7882.0859      2994.1347      2918.9192      9318.6135      0             -7349.5815      0              0             -183.40902      316912.95      68.178378      68.178378      68.178378      0.56999999    -1030.8686     -179.6823      -205.68132    
    193000   96500          373.16333      84.699068      17199.478      16808.012      8942.0129      7865.9988      2979.5369      2915.1056      9265.1063      0             -7293.75        0              0             -183.40902      316912.95      68.178378      68.178378      68.178378      0.56999999    -125.11132     -71.066602      450.27513    
    194000   97000          366.48591     -558.63286      14043.19       16625.107      8782.0036      7843.1034      2963.0322      2966.9111      9257.2706      0             -7344.1105      0              0             -183.40902      316912.95      68.178378      68.178378      68.178378      0.56999999    -342.78478     -749.99871     -583.11509    
    195000   97500          366.66479     -284.88753      15373.515      16690.223      8786.29        7903.9327      2972.4678      2980.4664      9295.8951      0             -7344.8965      0              0             -183.40902      316912.95      68.178378      68.178378      68.178378      0.56999999    -362.49461     -136.73207     -355.43591    
    196000   98000          368.25785     -262.21913      15556.165      16768.103      8824.4642      7943.6388      2969.9065      2956.3686      9380.7327      0             -7363.369       0              0             -183.40902      316912.95      68.178378      68.178378      68.178378      0.56999999    -37.954777     -358.20116     -390.50146    
    197000   98500          372.65535     -58.329243      16478.217      16747.806      8929.8404      7817.9653      2880.3699      3007.376       9323.1481      0             -7392.9287      0              0             -183.40902      316912.95      68.178378      68.178378      68.178378      0.56999999     347.94558     -172.11765     -350.81566    
    198000   99000          366.18606     -142.2221       15855.537      16512.866      8774.8183      7738.0477      2935.7336      2931.005       9274.4375      0             -7403.1285      0              0             -183.40902      316912.95      68.178378      68.178378      68.178378      0.56999999     96.235934      111.08998     -633.99221    
[...]
    456000   228000         467.12062     -555.00622      19298.518      21863.674      11193.486      10670.188      3697.3736      3746.1726      10028.54       0             -6801.8988      0              0             -183.40902      316912.95      68.178378      68.178378      68.178378      0.56999999    -906.93932     -560.00306     -198.07626    
    457000   228500         460.56339      127.29906      22147.142      21558.785      11036.357      10522.427      3710.7713      3597.0574      10046.629      0             -6832.0302      0              0             -183.40902      316912.95      68.178378      68.178378      68.178378      0.56999999     332.57218      118.04369     -68.718685    
    458000   229000         468.79614     -590.52853      19043.83       21773.165      11233.636      10539.528      3746.101       3652.8472      9928.2051      0             -6787.6249      0              0             -183.40902      316912.95      68.178378      68.178378      68.178378      0.56999999    -651.22897     -748.71786     -371.63875    
    459000   229500         462.97526     -42.547377      21331.098      21527.745      11094.152      10433.593      3650.5025      3562.8235      9952.1629      0             -6731.8957      0              0             -183.40902      316912.95      68.178378      68.178378      68.178378      0.56999999    -79.752114      105.57196     -153.46197    
    460000   230000         468.29113     -331.72393      20296.637      21829.815      11221.535      10608.28       3689.9648      3689.074       9963.1488      0             -6733.9073      0              0             -183.40902      316912.95      68.178378      68.178378      68.178378      0.56999999    -503.30119     -303.88014     -187.99045    
    461000   230500         471.20381     -222.89147      21106.085      22136.256      11291.331      10844.926      3779.5288      3745.5522      10072.858      0             -6753.0129      0              0             -183.40902      316912.95      68.178378      68.178378      68.178378      0.56999999    -463.58106     -176.75205     -28.341282    
    462000   231000         460.36622     -387.25071      19906.798      21696.613      11031.632      10664.981      3687.5859      3727.5293      9916.4582      0             -6666.5928      0              0             -183.40902      316912.95      68.178378      68.178378      68.178378      0.56999999    -95.330259     -202.79074     -863.63112    
    463000   231500         469.8958      -8.6350815      21775.65       21815.56       11259.987      10555.573      3603.7769      3642.9173      9957.7043      0             -6648.8259      0              0             -183.40902      316912.95      68.178378      68.178378      68.178378      0.56999999    -241.57533      278.29408     -62.623998    
    464000   232000         462.11824     -122.2717       21231.192      21796.313      11073.616      10722.697      3695.4         3758.1454      9929.8636      0             -6660.7115      0              0             -183.40902      316912.95      68.178378      68.178378      68.178378      0.56999999    -315.21725     -395.95654      344.35868    
    465000   232500         464.49576     -50.987055      21570.301      21805.955      11130.587      10675.368      3657.1859      3729.9663      9920.3925      0             -6632.1769      0              0             -183.40902      316912.95      68.178378      68.178378      68.178378      0.56999999     226.33556     -134.81915     -244.47758    
    466000   233000         467.95114     -10.621496      21934.056      21983.147      11213.388      10769.759      3746.0663      3692.2429      10033.976      0             -6702.5263      0              0             -183.40902      316912.95      68.178378      68.178378      68.178378      0.56999999     213.69672     -363.21824      117.65704    
    467000   233500         465.22017     -437.44956      19684.406      21706.233      11147.946      10558.287      3681.634       3587.4527      9958.1126      0             -6668.9127      0              0             -183.40902      316912.95      68.178378      68.178378      68.178378      0.56999999    -372.72574     -796.29836     -143.32458    
    468000   234000         471.53583     -319.99712      20475.165      21954.144      11299.287      10654.857      3668.8789      3653.9044      9989.288       0             -6657.2143      0              0             -183.40902      316912.95      68.178378      68.178378      68.178378      0.56999999    -359.70777     -516.56362     -83.719984    
    469000   234500         468.90615     -271.13819      20600.454      21853.614      11236.272      10617.341      3683.9327      3661.3802      9958.6173      0             -6686.589       0              0             -183.40902      316912.95      68.178378      68.178378      68.178378      0.56999999    -404.99826     -364.14667     -44.269628    
    470000   235000         476.93329     -224.68984      21272.965      22311.448      11428.625      10882.823      3796.6388      3666.9313      10056.905      0             -6637.6519      0              0             -183.40902      316912.95      68.178378      68.178378      68.178378      0.56999999    -134.77418     -129.21816     -410.07716    
    471000   235500         479.2301      -20.200044      22220.308      22313.67       11483.662      10830.007      3738.4758      3693.1796      10023.638      0             -6625.2865      0              0             -183.40902      316912.95      68.178378      68.178378      68.178378      0.56999999    -236.63988      136.18685      39.852902    
    472000   236000         465.37102     -339.99644      20344.53       21915.943      11151.561      10764.382      3744.8507      3620.2981      10006.587      0             -6607.3541      0              0             -183.40902      316912.95      68.178378      68.178378      68.178378      0.56999999    -685.72446      39.861098     -374.12595    
    473000   236500         466.40853     -242.16783      21019.939      22139.202      11176.423      10962.779      3776.7738      3764.1305      9996.4264      0             -6574.5513      0              0             -183.40902      316912.95      68.178378      68.178378      68.178378      0.56999999    -475.3781      -575.6278       324.50241    
    474000   237000         470.08691      81.201886      22468.849      22093.546      11264.567      10828.979      3714.2756      3694.1254      10038.929      0             -6618.3508      0              0             -183.40902      316912.95      68.178378      68.178378      68.178378      0.56999999     293.22408      172.76092     -222.37934    
    475000   237500         474.8051      -393.71677      20552.847      22372.547      11377.627      10994.92       3722.7196      3811.6405      10063.306      0             -6602.7466      0              0             -183.40902      316912.95      68.178378      68.178378      68.178378      0.56999999    -468.85095      132.29999     -844.59934    
    476000   238000         471.27151     -122.29549      21593.495      22158.726      11292.953      10865.773      3746.9437      3672.0173      10046.087      0             -6599.2749      0              0             -183.40902      316912.95      68.178378      68.178378      68.178378      0.56999999    -108.17653     -153.53224     -105.17769    
    477000   238500         461.24208      16.984805      22041.969      21963.468      11052.62       10910.847      3773.7481      3715.6518      10025.285      0             -6603.8375      0              0             -183.40902      316912.95      68.178378      68.178378      68.178378      0.56999999     67.591874      176.74553     -193.38299    
    478000   239000         468.98279     -340.72382      20490.24       22065.015      11238.109      10826.906      3810.0994      3666.909       9951.8926      0             -6601.995       0              0             -183.40902      316912.95      68.178378      68.178378      68.178378      0.56999999     328.8158      -221.7793      -1129.208     
    479000   239500         470.63816     -84.436143      21859.046      22249.297      11277.776      10971.521      3795.7346      3703.8097      10106.26       0             -6634.2832      0              0             -183.40902      316912.95      68.178378      68.178378      68.178378      0.56999999    -461.61956      57.603549      150.70759    
    480000   240000         477.21514     -79.395582      22155.106      22522.061      11435.379      11086.682      3862.4602      3746.6279      10040.044      0             -6562.4497      0              0             -183.40902      316912.95      68.178378      68.178378      68.178378      0.56999999    -255.97677      39.580168     -21.790147    
    481000   240500         477.59529     -16.56553       22387.429      22463.993      11444.488      11019.505      3736.1128      3771.0396      10088.407      0             -6576.0551      0              0             -183.40902      316912.95      68.178378      68.178378      68.178378      0.56999999    -154.82258     -81.187766      186.31376    
    482000   241000         477.93726     -176.63733      21442.063      22258.455      11452.682      10805.772      3640.7694      3800.1972      9951.3409      0             -6586.5355      0              0             -183.40902      316912.95      68.178378      68.178378      68.178378      0.56999999     292.41529     -442.10576     -380.2215     
    483000   241500         473.75994     -44.080919      22069.944      22273.679      11352.583      10921.097      3789.0232      3675.4358      9999.6963      0             -6543.0588      0              0             -183.40902      316912.95      68.178378      68.178378      68.178378      0.56999999     286.53791     -378.66485     -40.115812    
    484000   242000         474.0015      -240.86401      21229.947      22343.185      11358.371      10984.814      3782.7853      3714.7861      10041.885      0             -6554.6428      0              0             -183.40902      316912.95      68.178378      68.178378      68.178378      0.56999999    -295.17892     -71.428111     -355.985      
    485000   242500         472.11163     -296.67507      21102.357      22473.545      11313.084      11160.46       3780.0987      3799.0549      10141.628      0             -6560.3212      0              0             -183.40902      316912.95      68.178378      68.178378      68.178378      0.56999999    -221.93974     -551.44993     -116.63553    
    486000   243000         483.50972      72.783148      22992.956      22656.564      11586.214      11070.35       3758.9335      3824.5463      10023.01       0             -6536.1399      0              0             -183.40902      316912.95      68.178378      68.178378      68.178378      0.56999999    -293.30225     -59.675564      571.32726    
    487000   243500         468.88743     -73.365472      21958.011      22297.095      11235.824      11061.271      3825.7839      3719.5589      10072.595      0             -6556.6668      0              0             -183.40902      316912.95      68.178378      68.178378      68.178378      0.56999999    -375.18412     -224.326        379.4137     
    488000   244000         470.41448     -393.41419      20533.105      22351.406      11272.416      11078.99       3857.9431      3675.4087      10094.669      0             -6549.0306      0              0             -183.40902      316912.95      68.178378      68.178378      68.178378      0.56999999    -181.98077     -709.94784     -288.31398    
    489000   244500         472.21386     -431.16358      20322.07       22314.844      11315.534      10999.31       3843.8225      3657.5046      10100.591      0             -6602.6085      0              0             -183.40902      316912.95      68.178378      68.178378      68.178378      0.56999999    -285.23789     -160.41298     -847.83987    
    490000   245000         486.03435     -9.5102844      22734.891      22778.846      11646.711      11132.136      3727.7346      3792.7067      10102.118      0             -6490.4238      0              0             -183.40902      316912.95      68.178378      68.178378      68.178378      0.56999999    -380.36549      197.93416      153.90048    
    491000   245500         476.57073     -292.98291      21088.149      22442.272      11419.937      11022.335      3745.7623      3713.6535      10074.062      0             -6511.1423      0              0             -183.40902      316912.95      68.178378      68.178378      68.178378      0.56999999    -339.41741     -19.531607     -519.99972    
    492000   246000         475.78571      244.06062      23670.58       22542.568      11401.125      11141.443      3763.9619      3809.2681      10098.717      0             -6530.5044      0              0             -183.40902      316912.95      68.178378      68.178378      68.178378      0.56999999     419.4479      -16.303795      329.03775    
    493000   246500         467.92983     -96.835671      21768.33       22215.89       11212.877      11003.013      3725.3697      3762.0816      10056.162      0             -6540.6         0              0             -183.40902      316912.95      68.178378      68.178378      68.178378      0.56999999    -160.26668     -44.20999      -86.030344    
    494000   247000         475.60826     -259.88507      21393.704      22594.853      11396.873      11197.98       3852.6957      3772.4917      10074.664      0             -6501.8708      0              0             -183.40902      316912.95      68.178378      68.178378      68.178378      0.56999999    -589.19481     -169.92891     -20.531504    
    495000   247500         483.00785      144.8137       23276.311      22607.004      11574.188      11032.816      3783.934       3687.5477      10056.45       0             -6495.1154      0              0             -183.40902      316912.95      68.178378      68.178378      68.178378      0.56999999     445.0359      -188.81979      178.22497    
    496000   248000         477.4461      -269.36975      21234.719      22479.706      11440.913      11038.793      3870.4875      3715.9409      9926.2117      0             -6473.8473      0              0             -183.40902      316912.95      68.178378      68.178378      68.178378      0.56999999    -15.78528      -723.66564     -68.658343    
    497000   248500         485.46021      550.08293      25680.806      23138.405      11632.953      11505.452      3975.708       3805.1145      10197.523      0             -6472.8929      0              0             -183.40902      316912.95      68.178378      68.178378      68.178378      0.56999999    -7.2133931      1201.133       456.32922    
    498000   249000         478.47078     -516.15311      20095.035      22480.617      11465.467      11015.15       3709.1208      3743.408       10051.773      0             -6489.1517      0              0             -183.40902      316912.95      68.178378      68.178378      68.178378      0.56999999    -601.24419     -298.69866     -648.51649    
    499000   249500         484.61536     -184.33138      21885.725      22737.677      11612.708      11124.969      3809.5001      3684.0234      10081.809      0             -6450.3634      0              0             -183.40902      316912.95      68.178378      68.178378      68.178378      0.56999999    -290.18832      173.87413     -436.67994    
    500000   250000         471.95521     -169.15917      21682.062      22463.89       11309.336      11154.554      3871.8022      3704.0503      10053.179      0             -6474.4774      0              0             -183.40902      316912.95      68.178378      68.178378      68.178378      0.56999999    -415.72152      107.28201     -199.038      
Loop time of 4486.17 on 1 procs for 500000 steps with 8040 atoms

Performance: 4.815 ns/day, 4.985 hours/ns, 111.454 timesteps/s, 896.087 katom-step/s
39.9% CPU use with 1 MPI tasks x 1 OpenMP threads

MPI task timing breakdown:
Section |  min time  |  avg time  |  max time  |%varavg| %total
---------------------------------------------------------------
Pair    | 346.28     | 346.28     | 346.28     |   0.0 |  7.72
Bond    | 2100.9     | 2100.9     | 2100.9     |   0.0 | 46.83
Neigh   | 1557.2     | 1557.2     | 1557.2     |   0.0 | 34.71
Comm    | 192.73     | 192.73     | 192.73     |   0.0 |  4.30
Output  | 33.546     | 33.546     | 33.546     |   0.0 |  0.75
Modify  | 177.22     | 177.22     | 177.22     |   0.0 |  3.95
Other   |            | 78.38      |            |       |  1.75

Nlocal:           8040 ave        8040 max        8040 min
Histogram: 1 0 0 0 0 0 0 0 0 0
Nghost:          18997 ave       18997 max       18997 min
Histogram: 1 0 0 0 0 0 0 0 0 0
Neighs:              0 ave           0 max           0 min
Histogram: 1 0 0 0 0 0 0 0 0 0
FullNghs:  4.05219e+06 ave 4.05219e+06 max 4.05219e+06 min
Histogram: 1 0 0 0 0 0 0 0 0 0

Total # of neighbors = 4052192
Ave neighs/atom = 504.00398
Ave special neighs/atom = 5.9701493
Neighbor list builds = 3961
Dangerous builds = 0

# --- Cleanup ---
unfix nvt_fix

undump dump_nvt

# --- Write Output ---
write_dump all custom nvt_softheat_last.dump id type mol x y z xu yu zu vx vy vz modify sort id
write_data /home/arz2/PolyJarvis/data/cis-PBD1/lammps/equil/nvt_softheat/nvt_softheat_out.data
System init for write_data ...
Generated 3 of 3 mixed pair_coeff terms from arithmetic mixing rule

print "STAGE COMPLETE: NVT T=300.0->480.0K steps=500000"
STAGE COMPLETE: NVT T=300.0->480.0K steps=500000
quit
e Info (average): 
---------------------------------------------------------------------
Data Transfer:   62.1933 s.
Neighbor copy:   88.7780 s.
Neighbor unpack: 0.0000 s.
Force calc:      115.7365 s.
Device Overhead: 14.3456 s.
CPU Cast/Pack:   152.8739 s.
CPU Driver_Time: 8.9713 s.
CPU Idle_Time:   7.2144 s.
Average split:   1.0000.
Max Mem / Proc:  29.83 MB.
Prefetch mode:   None.
Vector width:    32.
Lanes / atom:    4.
Pair block:      256.
Neigh block:     128.
Neigh mode:      Host.
---------------------------------------------------------------------


--------------------------------------------------------------------------
- Using acceleration for lj/cut:
-  with 1 proc(s) per device.
-  with 1 thread(s) per proc.
-  Horizontal vector operations: ENABLED
-  Shared memory system: No
--------------------------------------------------------------------------
Device 0: Quadro RTX 6000, 72 CUs, 23/24 GB, 1.8 GHZ (Mixed Precision)
--------------------------------------------------------------------------

Initializing Device and compiling on process 0...Done.
Initializing Device 0 on core 0...Done.

Generated 3 of 3 mixed pair_coeff terms from arithmetic mixing rule
STAGE COMPLETE: NVT T=300.0->480.0K steps=500000
Cuda driver error 4 in call at file '/home/arz2/lammps/lib/gpu/geryon/nvd_timer.h' in line 98.
Cuda driver error 4 in call at file '/home/arz2/lammps/lib/gpu/geryon/nvd_timer.h' in line 99.
Cuda driver error 4 in call at file '/home/arz2/lammps/lib/gpu/geryon/nvd_timer.h' in line 98.
Cuda driver error 4 in call at file '/home/arz2/lammps/lib/gpu/geryon/nvd_timer.h' in line 99.
Cuda driver error 4 in call at file '/home/arz2/lammps/lib/gpu/geryon/nvd_timer.h' in line 98.
Cuda driver error 4 in call at file '/home/arz2/lammps/lib/gpu/geryon/nvd_timer.h' in line 99.
