LAMMPS data file via write_data, version 22 Jul 2025, timestep = 2000000, units = real

10900 atoms
7 atom types
11850 bonds
7 bond types
18880 angles
9 angle types
28140 dihedrals
13 dihedral types
6080 impropers
5 improper types

5.492533260729175 55.968671729267996 xlo xhi
5.492533260729175 55.968671729267996 ylo yhi
5.492533260729175 55.968671729267996 zlo zhi

Masses

1 12.01115
2 12.01115
3 1.00797
4 1.00797
5 15.9994
6 15.9994
7 15.9994

Pair Coeffs # lj/class2/coul/long/kk

1 0.12 3.308
2 0.064 4.01
3 0.02 2.995
4 0.013 1.098
5 0.267 3.3
6 0.24 3.535
7 0.24 3.535

Bond Coeffs # class2/kk

1 1.489 339.357 -655.724 670.236
2 1.216 823.795 -1878.79 2303.53
3 1.417 470.836 -627.618 1327.63
4 1.0982 372.825 -803.453 894.317
5 1.3768 428.88 -738.235 1114.97
6 1.3768 428.88 -738.235 1114.97
7 0.965 532.506 -1282.9 2004.77

Angle Coeffs # class2/kk

1 108.4 43.9594 -8.3924 -9.3379
2 110.588 34.6214 -7.0939 -7.4032
3 119.3 65.1016 -17.9766 0
4 118.9 61.0226 -34.9931 0
5 117.94 35.1558 -12.4682 0
6 123.42 73.6781 -21.6787 0
7 123.42 73.6781 -21.6787 0
8 109.5 60 0 0
9 108.19 53.125 -8.5016 0

BondBond Coeffs

1 0 1.489 1.417
2 0 1.489 1.489
3 0 1.489 1.216
4 68.2856 1.417 1.417
5 1.0795 1.417 1.0982
6 48.4754 1.417 1.3768
7 48.4754 1.417 1.3768
8 0 1.3768 1.3768
9 20.6577 1.3768 0.965

BondAngle Coeffs

1 0 0 1.489 1.417
2 0 0 1.489 1.489
3 0 0 1.489 1.216
4 28.8708 28.8708 1.417 1.417
5 20.0033 24.2183 1.417 1.0982
6 58.479 107.681 1.417 1.3768
7 58.479 107.681 1.417 1.3768
8 0 0 1.3768 1.3768
9 53.8614 23.9224 1.3768 0.965

Dihedral Coeffs # class2/kk

1 0 0 4.6282 0 0 0
2 0 0 2.167 0 0 0
3 0 0 2.5 0 0 0
4 0 0 0.9063 0 0 0
5 8.3667 0 1.1932 0 0 0
6 0 0 3.9661 0 0 0
7 0 0 4.8498 0 0 0
8 0 0 4.8498 0 0 0
9 0 0 1.8 0 0 0
10 -0.69 0 0.5097 0 0.0095 0
11 0 0 1.8769 0 0 0
12 0 0 1.7234 0 0 0
13 0 0 1.7234 0 0 0

AngleAngleTorsion Coeffs

1 0 108.4 118.9
2 0 108.4 117.94
3 0 110.588 108.4
4 0 108.4 119.3
5 0 118.9 118.9
6 -4.8141 118.9 117.94
7 -21.0247 118.9 123.42
8 -21.0247 118.9 123.42
9 0 123.42 109.5
10 -4.6072 123.42 108.19
11 0.3598 117.94 117.94
12 4.2296 117.94 123.42
13 4.2296 117.94 123.42

EndBondTorsion Coeffs

1 0 0 0 0 0 0 1.489 1.417
2 0 0 0 0 0 0 1.489 1.0982
3 0 0 0 0 0 0 1.489 1.417
4 0 0 0 0 0 0 1.417 1.216
5 -0.1185 6.3204 0 -0.1185 6.3204 0 1.417 1.417
6 0 -6.8958 0 0 -0.4669 0 1.417 1.0982
7 0 0.2655 0 0 4.8905 0 1.417 1.3768
8 0 0.2655 0 0 4.8905 0 1.417 1.3768
9 0 0 0 0 0 0 1.417 1.3768
10 0.9 -1.3456 1.19 3.4132 0.5873 -0.1323 1.417 0.965
11 0 -0.689 0 0 -0.689 0 1.0982 1.0982
12 0 -1.5867 0 0 4.2641 0 1.0982 1.3768
13 0 -1.5867 0 0 4.2641 0 1.0982 1.3768

MiddleBondTorsion Coeffs

1 0 0 0 1.417
2 0 0 0 1.417
3 0 0 0 1.489
4 0 0 0 1.489
5 27.5989 -2.312 0 1.417
6 0 -1.1521 0 1.417
7 0 4.8255 0 1.417
8 0 4.8255 0 1.417
9 0 0 0 1.3768
10 1.158 3.2697 3.5132 1.3768
11 0 4.8228 0 1.417
12 0 5.5432 0 1.417
13 0 5.5432 0 1.417

BondBond13 Coeffs

1 0 1.489 1.417
2 0 1.489 1.0982
3 0 1.489 1.417
4 0 1.417 1.216
5 53 1.417 1.417
6 -6.2741 1.417 1.0982
7 -2.2436 1.417 1.3768
8 -2.2436 1.417 1.3768
9 0 1.417 1.3768
10 1.159 1.417 0.965
11 -1.7077 1.0982 1.0982
12 2.0517 1.0982 1.3768
13 2.0517 1.0982 1.3768

AngleTorsion Coeffs

1 0 0 0 0 0 0 108.4 118.9
2 0 0 0 0 0 0 108.4 117.94
3 0 0 0 0 0 0 110.588 108.4
4 0 0 0 0 0 0 108.4 119.3
5 1.9767 1.0239 0 1.9767 1.0239 0 118.9 118.9
6 0 2.5014 0 0 2.7147 0 118.9 117.94
7 0 10.0155 0 0 1.7404 0 118.9 123.42
8 0 10.0155 0 0 1.7404 0 118.9 123.42
9 0 0 0 0 0 0 123.42 109.5
10 -5.136 -1.0122 0 4.6852 0.023 -0.598 123.42 108.19
11 0 2.4501 0 0 2.4501 0 117.94 117.94
12 0 1.8729 0 0 2.5706 0 117.94 123.42
13 0 1.8729 0 0 2.5706 0 117.94 123.42

Improper Coeffs # class2/kk

1 38.7949 0
2 0 0
3 4.8912 0
4 13.0421 0
5 13.0421 0

AngleAngle Coeffs

1 0 0 0 110.588 119.3 119.3
2 0 0 0 108.4 108.4 118.9
3 0 0 0 118.9 117.94 117.94
4 0 0 0 118.9 123.42 123.42
5 0 0 0 118.9 123.42 123.42

Atoms # full/kk

2221 3 2 0.0265 5.781325132494899 9.78974167870322 6.801771884100073 0 0 1
2219 3 2 -0.1268 6.047929105487787 9.725530261232588 8.14549914807283 0 0 1
8741 9 3 0.1268 10.43505268250354 10.651933588890147 6.673122960248122 0 0 1
8746 9 3 0.1268 9.197351391536275 7.241610184943281 10.048533980758545 0 0 1
8742 9 2 0.0265 10.025575495643949 10.255147091802733 8.69391611386388 0 0 1
8745 9 2 -0.1268 9.48872384169592 7.98523796527669 9.244491517950927 0 0 1
8743 9 2 -0.1268 9.71959425721717 9.314783284369181 9.623941083581625 0 0 1
8757 9 2 -0.1268 8.405586376619038 12.126692214747045 10.592820495788283 0 0 1
8740 9 2 -0.1268 10.148423867114467 9.856476934154763 7.378594430874301 0 0 1
8756 9 2 0.0265 9.71451816804718 12.2866239706073 10.106550534374577 0 0 1
8744 9 3 0.1268 9.789809416033862 9.605561889357624 10.71744731258647 0 0 1
8738 9 2 -0.1268 9.865863646464756 8.549186412060868 6.922326236073941 0 0 1
8737 9 2 0 9.578956835918426 7.58126564290629 7.8957020080805975 0 0 1
8739 9 3 0.1268 10.028381912921084 8.338228968567023 5.859185247128961 0 0 1
2220 3 3 0.1268 6.803787452474909 9.063159039329197 8.633366585141554 0 0 1
8758 9 3 0.1268 7.822937959570982 11.285585288359027 10.267948432007453 0 0 1
8755 9 6 -0.053 10.361178623540823 11.57568811060133 9.035736199468843 0 0 1
4481 5 3 0.1268 6.653676320706207 5.836636762015518 9.435002137737378 1 0 0
2224 3 2 -0.1268 6.042594485679108 6.972827370121721 6.404745612892853 0 0 1
4480 5 2 -0.1268 5.7731954001861086 55.852011706871956 9.966250857309008 1 -1 0
2226 3 2 -0.1268 6.269011126645717 5.594275688208601 6.0854155649921315 0 0 1
4007 4 2 -0.1268 13.667867983191108 7.819917252711231 8.199437166057903 1 1 0
4006 4 2 0.0265 13.495195463951593 7.307495934924076 6.884007654528912 1 1 0
4001 4 2 0 13.85147670203322 10.109322419928429 7.442084353022687 1 1 0
4008 4 3 0.1268 13.65784225959041 7.190295321957642 9.083014032888293 1 1 0
4002 4 2 -0.1268 13.595602542941236 9.554427789554786 6.122209403325813 1 1 0
4004 4 2 -0.1268 13.316315991229876 8.251141420038472 5.849854184114507 1 1 0
4009 4 2 -0.1268 13.874738489593225 9.17671336588266 8.47181525783908 1 1 0
4010 4 3 0.1268 14.054077905611493 9.491488346694394 9.488154889777736 1 1 0
3997 4 3 0.1268 12.90947568848777 11.004926007334614 9.91059721511013 1 1 0
4003 4 3 0.1268 13.536857385181563 10.227234322023282 55.73348942868647 1 1 -1
1521 2 2 -0.1268 17.474436330585256 10.502185871584711 8.76395773456331 0 1 -1
1520 2 2 0.0265 17.64937951257719 11.504543967099817 7.830630067921747 0 1 -1
1523 2 2 -0.1268 17.590308236342366 9.159220511102019 8.35850796485843 0 1 -1
1524 2 3 0.1268 17.627461416452192 8.456134291631614 9.186741370274829 0 1 -1
1522 2 3 0.1268 17.508627451560514 10.777152628545895 9.809659648425153 0 1 -1
1518 2 2 -0.1268 17.694279224994595 11.135448323617087 6.427846705401651 0 1 -1
3999 4 1 0.3964 14.079033386594359 11.563334902065787 7.5598199567178614 1 1 0
1515 2 2 0 17.582960535728795 8.814462323853133 6.99408352348999 0 1 -1
1516 2 2 -0.1268 17.598605859448625 9.841211196726386 6.066599284731603 0 1 -1
1519 2 3 0.1268 17.760079280455404 11.922721305724616 5.707798013464824 0 1 -1
1513 2 1 0.3964 17.800742415911333 7.4152678349837675 6.658550351431798 0 1 -1
1512 2 2 0 17.202887184381694 6.839045875471094 55.8705358997866 0 1 -2
4019 4 6 -0.053 13.348565311735154 5.913719204483877 6.520107709383209 1 1 0
4022 4 3 0.1268 15.80391640850719 5.786229485501646 7.577214279971679 1 1 0
3399 4 2 -0.1268 24.13579710686216 8.52854402539539 12.861601387030289 0 0 0
3384 4 2 -0.1268 22.173854011272862 7.373253195780296 12.182967805606115 0 0 0
3378 4 3 0.1268 22.298248228640542 11.467340544862976 12.637618640678058 0 0 0
1514 2 5 -0.3964 18.476102189118297 6.624093523770386 7.327385241904631 0 1 -1
3380 4 6 -0.053 22.528289631414456 10.368410349100834 10.142322437976434 0 0 0
3381 4 2 0.0265 22.903358804197676 9.3475821795877 11.044041483313395 0 0 0
3383 4 3 0.1268 21.096234524546702 8.253092779851894 10.550020591133997 0 0 0
3379 4 2 0.0265 22.615621452349142 11.733492478221716 10.482289449851612 0 0 0
2943 3 1 0.3964 24.026131760932977 10.615327711712846 6.256421939403823 -1 -1 1
3401 4 2 -0.1268 23.950880889574456 9.499117864986443 11.881519358830342 0 0 0
3402 4 3 0.1268 24.742778800070113 10.24798165994683 11.754977864127532 0 0 0
10282 10 3 0.1268 18.957487540785273 12.08829100768709 10.666805504222186 -1 1 0
3377 4 2 -0.1268 22.57755689718913 12.201448156644485 11.797643255640656 0 0 0
2941 3 3 0.1268 21.425642709049388 10.120602983264718 5.525310300425075 -1 -1 1
2940 3 2 -0.1268 21.982607303281476 9.20036362786961 5.727793566935502 -1 -1 1
3385 4 3 0.1268 21.56543818272812 6.444985543274135 12.333490406841987 0 0 0
3382 4 2 -0.1268 21.991468522844524 8.324690926062948 11.162673146817287 0 0 0
2954 3 3 0.1268 25.21177396742543 9.185145538257213 8.463756839339844 -1 -1 1
2945 3 2 0 25.308465860852973 10.844432587402942 7.062040043202769 -1 -1 1
10804 10 6 -0.053 27.390882312477093 7.041405797731196 11.61679667281158 -2 2 2
10805 10 2 0.0265 28.627187558845165 7.224097466487833 11.01644640037485 -2 2 2
10802 10 3 0.1268 27.13081005900577 7.4324946552912525 8.97555808666122 -2 2 2
2953 3 2 -0.1268 25.70658747318585 10.041997062904677 8.134340186509629 -1 -1 1
2952 3 3 0.1268 27.045382659757777 9.682159929170357 9.653778979925356 -1 -1 1
10801 10 2 -0.1268 26.44423896484165 6.682065906804883 9.43964438403928 -2 2 2
2951 3 2 -0.1268 26.79961362231463 10.386230776860588 8.881134853612904 -1 -1 1
10803 10 2 0.0265 26.462927355886038 6.433066023120577 10.788836899145224 -2 2 2
10825 10 2 -0.1268 29.24269517608368 6.114990137009718 10.463673612337622 -2 2 2
10827 10 2 -0.1268 25.37574107556687 5.691489035591987 11.392765973175791 -2 2 2
10806 10 2 -0.1268 29.205696636105547 8.460230756062469 10.962527572210858 -2 2 2
10799 10 2 -0.1268 25.553162731209248 6.090724708243722 8.55682169901503 -2 2 2
10800 10 3 0.1268 25.735687138802692 6.2825396906095605 7.437387400343634 -2 2 2
2966 3 3 0.1268 30.56226661409633 11.758654178225374 11.275104860794634 -1 -1 1
1434 2 3 0.1268 28.38218063164681 6.4457944016921696 6.087521257315665 0 1 -1
2950 3 2 0.0265 27.495580066713945 11.602181322853859 8.722660536182309 -1 -1 1
1014 1 3 0.1268 29.662522549577343 9.7273009615314 6.694894935795006 1 1 1
10807 10 3 0.1268 28.62914447408506 9.293705287669942 11.394202400849 -2 2 2
10798 10 2 0.0265 24.59986977280779 55.661965201486026 9.126237391354366 -2 1 2
5218 5 6 -0.053 35.38610928424765 12.367204940844212 10.415914760354797 -1 -1 0
10823 10 2 -0.1268 30.540967330477528 6.251104645337912 9.982702208968476 -2 2 2
10808 10 2 -0.1268 30.51205579247749 8.594229569695898 10.411662503607582 -2 2 2
1002 1 5 -0.3964 30.914537534936258 7.638144529792008 7.094909310883115 1 1 1
5217 5 2 0.0265 36.16724498940627 11.901522200366626 9.37910231782467 -1 -1 0
10809 10 3 0.1268 30.96348294540947 9.578884613226055 10.476045111105794 -2 2 2
5197 5 3 0.1268 35.85022466941802 9.549592782412153 5.511519280422708 -1 -1 0
10810 10 2 0 31.166981614352473 7.474086811221748 9.967307900601627 -2 2 2
10811 10 1 0.3964 32.60775314794968 7.515825034286841 9.507094547631887 -2 2 2
10822 10 3 0.1268 34.857691311764135 7.229532747688821 8.012446512541862 -2 2 2
10812 10 5 -0.3964 33.10135767233505 8.588518404649001 9.298202045260167 -2 2 2
5221 5 3 0.1268 33.750092950229856 11.286356799546287 8.489901200531362 -1 -1 0
5216 5 3 0.1268 36.94162886565795 10.266490076369196 10.553012342177219 -1 -1 0
5215 5 2 -0.1268 37.033699143046455 10.847275534355003 9.599879326808377 -1 -1 0
5214 5 3 0.1268 38.4873061119123 9.486241601150073 8.735712028565308 -1 -1 0
5213 5 2 -0.1268 37.83814373975613 10.35465675588797 8.571541558652816 -1 -1 0
9306 9 6 -0.053 38.722277405191804 6.514620306723261 5.966485546059785 -1 1 1
2715 3 2 -0.1268 42.29915842626272 11.230865259245146 6.252710258307705 -2 -1 0
9302 9 3 0.1268 39.255662405349284 6.3433076722277475 10.315466378969242 -1 1 1
9300 9 2 0.0265 40.67934471642969 7.817075363123022 9.468418811069478 -1 1 1
9299 9 6 -0.053 41.412252326839535 8.218812014099003 10.55608100519647 -1 1 1
9303 9 2 -0.1268 38.99275017464867 6.530718712678705 8.230100616535854 -1 1 1
9330 9 3 0.1268 40.68641981517887 8.606042252485151 6.1125614729574265 -1 1 1
2716 3 3 0.1268 41.2193050769841 10.951123895561516 6.109113020649699 -2 -1 0
9305 9 2 0.0265 39.37341786233344 7.0687711511751115 7.059833897585864 -1 1 1
9329 9 2 -0.1268 40.40078338160789 8.026408225156333 7.008388933166634 -1 1 1
9331 9 2 -0.1268 41.045290324814935 8.309914366743374 8.202498382287775 -1 1 1
5212 5 2 0.0265 37.754388146207575 10.89438584663986 7.277251470759006 -1 -1 0
9301 9 2 -0.1268 39.61066660632672 6.887787007609931 9.419270779524963 -1 1 1
9332 9 3 0.1268 41.856272359220796 9.048083691552566 8.289962504207338 -1 1 1
5211 5 6 -0.053 38.36805698858131 10.403895076341925 6.175488103338425 -1 -1 0
5524 6 3 0.1268 42.45390062594758 10.966321536707614 11.708380512795621 0 0 0
4551 5 3 0.1268 41.719419232842135 55.81087799768467 8.901571839786314 0 -1 0
9307 9 2 0.0265 39.2541444763377 6.701921234920498 55.20179829770396 -1 1 0
9327 9 2 -0.1268 40.67806563900589 6.7870776380714615 55.014316385652904 -1 1 0
9328 9 3 0.1268 41.46885164442766 6.654697727876505 55.76641038891526 -1 1 0
2713 3 2 -0.1268 43.304744156908924 10.257264870766928 6.265324146701176 -2 -1 0
2735 3 3 0.1268 46.60817975972624 6.771433411810918 11.019358778295144 -2 -1 0
2729 3 2 -0.1268 48.13015368759596 8.697260355554974 9.183682437559597 -2 -1 0
2728 3 3 0.1268 47.72876658699077 8.344427816597582 7.137976663230266 -2 -1 0
2726 3 2 0.0265 46.15931556052512 9.484420607393076 7.887530885766007 -2 -1 0
2755 3 2 -0.1268 46.2619056358141 9.765180723557865 10.313388124224423 -2 -1 0
2756 3 3 0.1268 45.72405654423151 10.222702153466074 11.206272088234552 -2 -1 0
2758 3 3 0.1268 44.640176267450656 10.39995048097957 9.07674510243787 -2 -1 0
2727 3 2 -0.1268 47.39518036700685 8.838452232764771 8.043416975476587 -2 -1 0
2725 3 6 -0.053 45.566027470665226 9.574589328231621 6.610690242775297 -2 -1 0
1211 2 3 0.1268 49.334217319797055 11.621790619480688 9.999289500413461 0 0 0
2710 3 2 -0.1268 44.949927014882974 11.945863038326513 6.396607482928617 -2 -1 0
2712 3 2 0.0265 44.65113514074861 10.623790161609863 6.44496082017597 -2 -1 0
2731 3 2 0.0265 47.496121198045216 9.097675494292915 10.375904572098996 -2 -1 0
2757 3 2 -0.1268 45.63455807620991 9.94856234374791 9.108183760524861 -2 -1 0
2732 3 6 -0.053 48.05222809978112 9.128241252641178 11.619546449898632 -2 -1 0
2730 3 3 0.1268 49.122661909285725 8.273839260408725 9.184262588756358 -2 -1 0
4546 5 5 -0.3964 46.98758802514082 5.571824954623583 6.727754392429641 0 0 0
2711 3 3 0.1268 46.003552745580876 12.24835073799344 6.595147492199438 -2 -1 0
2714 3 3 0.1268 43.02200403430227 9.155017262766746 6.200852918938931 -2 -1 0
4549 5 3 0.1268 43.04510117484217 5.849853687648629 7.012767894546537 0 0 0
4548 5 2 -0.1268 43.5788885124687 55.94194498779718 7.854791392988313 0 -1 0
9948 10 2 0.0265 52.33908589608414 5.609948602276342 55.86968908584135 -1 1 0
9979 10 2 -0.1268 50.96757732989432 55.95479498825648 55.96832935921418 -1 0 0
2218 3 3 0.1268 5.50610057675452 10.18181501429143 10.215020473488035 0 0 1
2225 3 3 0.1268 5.688615405674526 7.010276768142968 7.397670837327411 0 0 1
4479 5 2 0 55.74021106749304 5.995367281919129 11.091663352668101 0 0 0
2245 3 2 -0.1268 55.13784723849388 10.530931681359252 6.4211564470687605 -1 0 1
2217 3 2 -0.1268 55.726463510521775 10.291545157226068 9.15552603879527 -1 0 1
2216 3 2 0.0265 54.65075095182284 11.106772526657345 8.713524607218375 -1 0 1
9930 10 2 -0.1268 52.12006403855374 7.895460049626141 9.523190330881086 -1 1 1
9931 10 3 0.1268 52.115931218448345 8.936064215657241 9.941270558366273 -1 1 1
9933 10 3 0.1268 53.27731483529471 8.589014941106477 7.8194281360781615 -1 1 1
2247 3 2 -0.1268 54.389982850238695 11.195946059554796 7.339498414186347 -1 0 1
9932 10 2 -0.1268 52.77459521224639 7.695628077343624 8.22967011643992 -1 1 1
1205 2 3 0.1268 49.19283367842029 12.862426702519564 11.575506294674941 0 0 0
9929 10 2 0 51.47711483334435 6.882287363168066 10.178210808554303 -1 1 1
9934 10 2 0.0265 52.671369985680506 6.47242966389238 7.626234976475259 -1 1 1
9947 10 6 -0.053 53.16041770090413 6.308507192468641 6.3660719997805435 -1 1 1
1213 2 3 0.1268 50.53005252305366 11.656332369840015 7.995001349528104 0 0 0
2215 3 6 -0.053 53.9358044918514 11.910210552620349 9.552953172050705 -1 0 1
9980 10 3 0.1268 50.37746109333785 5.961658651320793 6.338238169474059 -1 1 1
9927 10 1 0.3964 50.83548467075186 7.200293010325013 11.462347470130734 -1 1 1
9937 10 2 -0.1268 51.42345897140945 5.613279672685596 9.608950791846684 -1 1 1
9935 10 2 -0.1268 52.0456592049547 55.85923306885973 8.401143167976812 -1 0 1
8083 8 3 0.1268 8.067013103958438 12.495164855242855 6.419164204169257 0 1 0
2204 3 3 0.1268 5.773781274801499 13.07661135079436 9.04286484181828 0 0 1
8787 9 2 -0.1268 10.451272875133125 13.310970589961622 10.673809548732844 0 0 1
8077 8 2 -0.1268 9.451423602452776 16.45776493893357 9.122066036812496 0 1 0
8080 8 6 -0.053 8.583000074306566 14.644977739605249 7.7589891345246444 0 1 0
8079 8 2 0.0265 9.645383928859562 15.40841970358247 8.205148494774896 0 1 0
2196 3 5 -0.3964 5.774167934298258 17.797005968400764 9.048099017630413 0 0 1
8078 8 3 0.1268 8.401677961174249 16.74254888706015 9.417802498437029 0 1 0
8075 8 2 -0.1268 10.566108023364528 17.208618362147046 9.517754934073754 0 1 0
2206 3 3 0.1268 6.257731783382794 15.611364278889488 8.924773655713466 0 0 1
8081 8 2 0.0265 8.352557055688415 14.627493837913468 6.4407313920074944 0 1 0
8103 8 2 -0.1268 10.945311427297991 15.168978221976392 7.848897667446952 0 1 0
8788 9 3 0.1268 11.374030463059496 13.61249604002641 10.200666595638227 0 0 1
8076 8 3 0.1268 10.389833815492002 17.948486406291998 10.302043429503778 0 1 0
8784 9 3 0.1268 8.578142983692155 16.807172585569276 11.954130413483933 0 0 1
8759 9 2 -0.1268 8.068720933146036 12.810395928048273 11.758224525665364 0 0 1
8104 8 3 0.1268 11.164055587928065 14.390135855056254 7.078378422709366 0 1 0
2601 3 3 0.1268 11.158574191078241 18.58271415964906 6.055028105490493 -1 -1 0
1256 2 3 0.1268 6.383449994516425 17.450437371708887 6.309603956417677 1 0 0
8102 8 3 0.1268 8.347837871660634 16.779996863766343 6.205183514028334 0 1 0
8101 8 2 -0.1268 8.378745818685227 15.825157129118038 5.710912059394724 0 1 0
8082 8 2 -0.1268 8.086366640613887 13.398944152459677 5.800852616349142 0 1 0
8074 8 2 0.0265 11.882611203151654 16.85980870567323 9.264924152312943 0 1 0
8105 8 2 -0.1268 12.073034926208955 15.86071528490989 8.32497540925464 0 1 0
3996 4 2 -0.1268 13.448918493978617 11.927525178875886 10.036147681744321 1 1 0
8106 8 3 0.1268 13.033258831101424 15.597712289341642 7.9686992017458484 0 1 0
4000 4 5 -0.3964 14.09179900418947 12.201125100977393 6.533400735396283 1 1 0
4012 4 3 0.1268 15.231935148208864 14.005433933954386 8.07796589490079 1 1 0
4011 4 2 -0.1268 14.798569540388314 13.612286988939214 8.964151167771236 1 1 0
4013 4 2 -0.1268 14.854487835173613 14.331099299997886 10.121765740401349 1 1 0
8073 8 6 -0.053 12.955170283720506 17.58056748950166 9.818824044194145 0 1 0
4014 4 3 0.1268 15.260990123216564 15.374950758892187 10.081693168160202 1 1 0
1536 2 3 0.1268 17.19363767331175 15.554836660542117 7.893908335133378 0 1 -1
1533 2 6 -0.053 17.495367345027383 12.876347693858936 8.14482788110197 0 1 -1
3998 4 2 0 14.123317273263794 12.425541726334968 8.869314658880667 1 1 0
8059 8 3 0.1268 15.43726782743366 17.85033967913164 10.733354525673082 0 1 0
8058 8 2 -0.1268 15.277785716485587 18.03783472335258 9.642408003069542 0 1 0
8060 8 2 0.0265 14.025182291183135 17.906922609930696 9.002777411232106 0 1 0
8062 8 3 0.1268 12.834346237765754 18.572212711828065 7.304201506038493 0 1 0
8061 8 2 -0.1268 13.88061180876701 18.439729043537604 7.733084770707237 0 1 0
1535 2 2 -0.1268 18.14927841736293 15.0362292084791 7.575129433584554 0 1 -1
3404 4 3 0.1268 22.66913618051461 12.300771277919704 8.368998724411247 0 0 0
10268 10 5 -0.3964 18.440455807713555 16.815541988474443 10.910384503811676 -1 1 0
1534 2 2 0.0265 18.46486666726542 13.68755074968308 7.672553437915984 0 1 -1
3403 4 2 -0.1268 22.68673594836464 12.667108480381993 9.463787145792862 0 0 0
1538 2 3 0.1268 18.693612678020187 17.030289775920455 7.2367248036153695 0 1 -1
1561 2 2 -0.1268 21.09391145999092 17.665215951786656 8.829333497761896 0 1 -1
3373 4 6 -0.053 22.94198154230832 15.875061085680759 11.35607345097574 0 0 0
10280 10 3 0.1268 18.42981548518899 14.480335158549858 10.258214684487692 -1 1 0
1566 2 3 0.1268 20.177284815671435 12.403769674808872 7.3552552932869775 0 1 -1
1565 2 2 -0.1268 19.785407696426375 13.37341334672491 7.30949979406416 0 1 -1
3374 4 2 0.0265 22.797399209083352 14.509814207008604 11.12622559883711 0 0 0
1563 2 2 -0.1268 20.69689875456332 14.320198963401278 6.8228410082177975 0 1 -1
3405 4 2 -0.1268 22.739487027889627 13.980749344892045 9.8003373875541 0 0 0
3406 4 3 0.1268 22.812225652829245 14.687422187635383 8.977209830338516 0 0 0
1537 2 2 -0.1268 19.03163404639735 15.984404480734824 7.1298773633853445 0 1 -1
1540 2 6 -0.053 21.278559129019357 16.704281476881867 6.635141247631369 0 1 -1
1562 2 3 0.1268 21.143368635143478 16.644591112572204 9.359153934264286 0 1 -1
1539 2 2 0.0265 20.428716168231485 15.693128797557103 6.880434048120637 0 1 -1
1564 2 3 0.1268 21.727905747849913 13.907414964689321 6.553377887192258 0 1 -1
1541 2 2 0.0265 21.156926118944362 17.755328424398503 7.462693955700632 0 1 -1
3375 4 2 -0.1268 22.68135982120741 13.550330386196618 12.132027587112502 0 0 0
3362 4 3 0.1268 20.98796029369113 16.918009281953374 12.616720408646701 0 0 0
5225 5 1 0.3964 30.338438746573445 14.508922097744286 8.63125939089093 -1 -1 0
2995 3 2 -0.1268 27.21039325904154 12.519397823579677 11.435201292938288 -1 -1 1
2963 3 6 -0.053 28.591510824632007 11.925250552091653 9.46192387538424 -1 -1 1
2964 3 2 0.0265 28.453016649996524 12.163262336065586 10.865958641982413 -1 -1 1
5245 5 6 -0.053 26.366909277164208 17.44506288760833 11.458814268253423 -1 -1 0
5229 5 3 0.1268 30.050361294375858 14.701780926396994 11.422135301851988 -1 -1 0
5226 5 5 -0.3964 30.186609721983814 14.2992467505197 7.434656351000892 -1 -1 0
2946 3 2 -0.1268 25.98988188750881 12.043258762321626 6.801369135605288 -1 -1 1
2948 3 2 -0.1268 27.02694285361163 12.408877526473967 7.6745848173141615 -1 -1 1
6236 6 3 0.1268 27.008112006103033 16.05175883091895 6.338088540546824 0 1 0
5233 5 2 -0.1268 27.352177093053953 16.65211349989461 9.354625032121668 -1 -1 0
2996 3 3 0.1268 26.31723973965643 12.789372342162798 10.932262916865502 -1 -1 1
5235 5 2 -0.1268 28.34317570804515 15.930589261180959 8.716799318256472 -1 -1 0
2949 3 3 0.1268 27.521010750392783 13.399752237335964 7.335071705061761 -1 -1 1
5236 5 3 0.1268 28.370406906397815 15.976859724990536 7.624938188633763 -1 -1 0
5232 5 2 0.0265 27.302417207579747 16.661433222027732 10.757311227724292 -1 -1 0
5230 5 2 -0.1268 28.25164900638529 15.953975808004841 11.461607464061123 -1 -1 0
5227 5 2 0 29.40821895646836 15.32968150051625 9.404872112312082 -1 -1 0
5228 5 2 -0.1268 29.32667485291366 15.300928146772403 10.820407641982367 -1 -1 0
2947 3 3 0.1268 25.733837453800863 12.744585335541903 5.998964363459246 -1 -1 1
2965 3 2 -0.1268 29.574621829337755 12.017996988849692 11.724285982909588 -1 -1 1
7991 8 3 0.1268 30.779373126932747 17.91993658270878 9.689437616629196 0 1 0
5237 5 2 -0.1268 32.45966421873861 14.558158948656455 10.307860284421455 -1 -1 0
5242 5 3 0.1268 35.618134727976354 13.489650388994473 8.016687877510549 -1 -1 0
5240 5 3 0.1268 34.256917440190286 14.321769765071606 11.543062988456049 -1 -1 0
4136 4 5 -0.3964 36.24672133072493 17.13606768797441 7.562640380547282 0 1 0
8038 8 3 0.1268 33.047494886537265 16.05006293346112 7.111319765635727 0 1 0
5238 5 3 0.1268 32.07805660667197 15.34322017611785 10.888846048549363 -1 -1 0
5223 5 3 0.1268 31.656917361421527 12.356595822469957 7.842620054878177 -1 -1 0
8006 8 2 0.0265 32.852253526194815 17.971566475258967 8.043463589231795 0 1 0
8005 8 6 -0.053 33.439338735783494 17.58787851909652 9.255277067992287 0 1 0
5241 5 2 -0.1268 36.23671540046378 12.56972499294083 8.163599180705512 -1 -1 0
5224 5 2 0 31.756211936136637 14.035495278806426 9.178730789481381 -1 -1 0
8037 8 2 -0.1268 32.69371316172477 17.082274244841486 6.998691083770539 0 1 0
5219 5 2 0.0265 34.16643499080945 12.82535507060174 10.034041819829923 -1 -1 0
8035 8 2 -0.1268 32.134530877424176 17.54937486486941 5.812494947905182 0 1 0
5220 5 2 -0.1268 33.424894377413 12.21245280687263 9.029659505744323 -1 -1 0
5222 5 2 -0.1268 32.24847392094282 12.847132854050427 8.600594186584424 -1 -1 0
5239 5 2 -0.1268 33.59054704653342 13.91836274648986 10.75746457627125 -1 -1 0
8036 8 3 0.1268 32.233017061458305 16.772687953813957 55.53869121103659 0 1 -1
4135 4 1 0.3964 36.7319598518736 17.74429695168417 8.486518702549555 0 1 0
5244 5 3 0.1268 36.99124846579763 12.41062728496132 6.1117251375743225 -1 -1 0
4150 4 3 0.1268 40.70225000553157 17.89296638265109 11.00223291535071 0 1 0
4133 4 3 0.1268 37.378683587859726 15.14841597132342 8.415935094811456 0 1 0
4129 4 2 0.0265 40.1128328811039 15.881123219436322 10.353275260233968 0 1 0
2717 3 2 -0.1268 40.728249709656126 16.088490879350157 6.505109514633538 -2 -1 0
4130 4 2 -0.1268 39.18757537403905 15.121027510880877 9.582380150834636 0 1 0
2704 3 2 0 41.554900129754536 14.990365893865507 6.907504428278433 -2 -1 0
4149 4 2 -0.1268 40.01332667754049 17.21691265860182 10.388182753087564 0 1 0
4134 4 2 0 37.92391764684025 17.138093997837814 9.14075026586673 0 1 0
2719 3 2 -0.1268 40.815312891637475 17.371000938238396 7.016360434909635 -2 -1 0
4128 4 6 -0.053 41.132022767638325 15.125990361506547 10.982626875124948 0 1 0
4132 4 2 -0.1268 38.106119685668865 15.766122139335893 9.022553157074654 0 1 0
2705 3 1 0.3964 41.50463034794416 13.645913413241363 6.2525575895546135 -2 -1 0
4131 4 3 0.1268 39.204320512354755 14.03341333871485 9.555152556252652 0 1 0
2718 3 3 0.1268 39.87794788646047 15.928987428190217 5.843104698411463 -2 -1 0
2699 3 2 0.0265 41.88457472980021 17.584403678267606 7.926090674171561 -2 -1 0
2706 3 5 -0.3964 40.47479367677961 13.339297246599275 5.6770559198035535 -2 -1 0
4147 4 2 -0.1268 38.97176238719927 17.86389292899383 9.764542676575033 0 1 0
2707 3 2 0 42.6019736988909 12.625984412425154 6.369294223437643 -2 -1 0
5243 5 2 -0.1268 37.004991254868784 12.042048716826821 7.169396829386217 -1 -1 0
5529 6 3 0.1268 38.27236990377832 14.117560488201995 12.071419745737577 0 0 0
2720 3 3 0.1268 40.069026497472464 18.127354855674184 6.866569304550518 -2 -1 0
2702 3 2 -0.1268 42.48270633215198 15.249353234818242 7.99210693359052 -2 -1 0
2700 3 2 -0.1268 42.65168153390798 16.540073759345425 8.470508175742998 -2 -1 0
2703 3 3 0.1268 43.22945371104536 14.52322246933025 8.388507984379233 -2 -1 0
6183 6 3 0.1268 44.759904597536234 16.842686488708186 6.850804750916198 0 1 0
6970 7 2 0.0265 49.15764430271412 16.90599219381493 10.477017355771089 -1 0 0
6180 6 5 -0.3964 47.407267283357946 17.31151665153226 7.226162399711621 0 1 0
6971 7 2 -0.1268 47.80764861260455 16.877942353097026 10.850641787024863 -1 0 0
2701 3 3 0.1268 43.422034134138585 16.840232690600775 9.210000801167043 -2 -1 0
1208 2 5 -0.3964 45.49808441135725 13.09698229588219 10.210309687915185 0 0 0
1217 2 2 -0.1268 47.2201692611006 13.695726768995966 8.150595988396294 0 0 0
1218 2 3 0.1268 46.29575138890979 14.192359769769979 8.167314887778447 0 0 0
1209 2 2 0 47.631928609713746 12.933816292351823 9.289430958737887 0 0 0
1207 2 1 0.3964 46.66884188897102 12.866110312104212 10.430943831894098 0 0 0
1215 2 2 -0.1268 48.0438153848374 13.813026650858381 7.095281297319797 0 0 0
1216 2 3 0.1268 47.62092154897308 14.449140200405465 6.288545986837859 0 0 0
2708 3 2 -0.1268 44.00384216988826 12.94552551425042 6.3066944049573 -2 -1 0
1210 2 2 -0.1268 48.90541755528812 12.299018531344174 9.223282500637255 0 0 0
6972 7 3 0.1268 47.277848722387766 15.978473663356187 11.193327123928134 -1 0 0
2698 3 6 -0.053 42.05961481179035 18.839853736196417 8.478923731099922 -2 -1 0
6974 7 3 0.1268 45.97855455937408 18.02491526583853 10.857247117915469 -1 0 0
4152 4 3 0.1268 43.46135413155022 14.23778326842412 11.363302600573064 0 1 0
6983 7 6 -0.053 50.01046419321431 15.87758636221705 10.73027126216387 -1 0 0
2248 3 3 0.1268 53.48231404489385 11.713740605105585 7.105545123001666 -1 0 1
2205 3 2 -0.1268 55.70520007775019 15.144088726914186 9.154595629291844 -1 0 1
1212 2 2 -0.1268 49.62461340097983 12.348787828575917 8.007704480287527 0 0 0
1214 2 2 0.0265 49.261542778821166 13.12173435413322 6.95032882562981 0 0 0
2208 3 3 0.1268 53.04533543054282 17.570011404114723 11.43700941210663 -1 0 1
2203 3 2 -0.1268 55.42492024301034 13.767805127474196 9.246304221423562 -1 0 1
2201 3 3 0.1268 52.17643328265562 13.782672599888377 10.123398493760323 -1 0 1
1230 2 3 0.1268 50.472015938645384 15.526283342500117 7.134685408470797 0 0 0
2202 3 2 0.0265 54.13706247175111 13.256553957789311 9.553432793358951 -1 0 1
1234 2 6 -0.053 54.777485842100596 16.01570818186125 5.739791073016319 0 0 0
2198 3 2 -0.1268 53.43127526445889 15.573314194266658 9.79515552221689 -1 0 1
1233 2 2 0.0265 53.57405346618236 15.355561940661929 5.74088096102762 0 0 0
2197 3 2 0 54.716194827935006 16.073858968082213 9.558061914311367 -1 0 1
2200 3 2 -0.1268 53.158310567223666 14.174346353773078 9.845662071694985 -1 0 1
1231 2 2 -0.1268 52.490318217613236 15.768603038980201 6.550205060670852 0 0 0
1232 2 3 0.1268 52.64111502681059 16.659407262829376 7.157645514327828 0 0 0
1229 2 2 -0.1268 51.303003272951614 15.162266880898404 6.432789236522267 0 0 0
2199 3 3 0.1268 52.60324927642798 16.308224259425927 10.016287153955817 -1 0 1
2195 3 1 0.3964 55.12760869741424 17.52674474088643 9.499469967411803 -1 0 1
1227 2 6 -0.053 50.01351820702592 13.170628765097193 5.8272514698472575 0 0 0
1228 2 2 0.0265 51.19616547611366 13.909241449195608 5.797079564240984 0 0 0