units real
atom_style full
boundary p p p

# --- Force Field Styles ---
pair_style lj/class2/coul/long 9.5 9.5
kspace_style pppm 1e-6
dielectric 1.000000
bond_style class2
angle_style class2
dihedral_style class2
improper_style class2
special_bonds lj/coul 0 0 1
pair_modify mix sixthpower tail yes
neighbor 2.0 bin
neigh_modify delay 0 every 1 check yes
neigh_modify one 4000
# KOKKOS: package loaded via -pk kokkos on the command line

read_data /home/arz2/PolyJarvis/data/PLA3/lammps/equil/npt_cool300/npt_cool300_out.data
Reading data file ...
  orthogonal box = (4.4827069 4.4827069 4.4827069) to (41.150417 41.150417 41.150417)
  1 by 1 by 1 MPI processor grid
  reading atoms ...
  4520 atoms
  reading velocities ...
  4520 velocities
  scanning bonds ...
  4 = max bonds/atom
  scanning angles ...
  12 = max angles/atom
  scanning dihedrals ...
  21 = max dihedrals/atom
  scanning impropers ...
  8 = max impropers/atom
  orthogonal box = (4.4827069 4.4827069 4.4827069) to (41.150417 41.150417 41.150417)
  1 by 1 by 1 MPI processor grid
  reading bonds ...
  4510 bonds
  reading angles ...
  8000 angles
  reading dihedrals ...
  9970 dihedrals
  reading impropers ...
  4500 impropers
Finding 1-2 1-3 1-4 neighbors ...
  special bond factors lj:    0        0        1       
  special bond factors coul:  0        0        1       
     4 = max # of 1-2 neighbors
     6 = max # of 1-3 neighbors
    10 = max # of special neighbors
  special bonds CPU = 0.003 seconds
  read_data CPU = 0.245 seconds
include /home/arz2/PolyJarvis/data/PLA3/lammps/equil/emc_build.params
# LAMMPS parameters created by EMC v9.4.4, build Jul 31 2025 20:33:44

# Variables

variable	seed		index	472913
variable	ntotal		index	4520
variable	fshape		index	1
variable	output		index	emc_build
variable	field		index	pcff/pcff
variable	location1	index	/home/arz2/emc/field/
variable	nav		index	0.6022141179
variable	temperature	index	300
variable	radius		index	5
variable	nrelax		index	100
variable	weight_nonbond	index	0.0001
variable	weight_bond	index	0.0001
variable	weight_focus	index	1
variable	cutoff		index	9.5
variable	charge_cutoff	index	9.5
variable	kappa		index	4
variable	density1	index	0.63
variable	lprevious	index	0
variable	lphase		index	45.6331234262
variable	f_poly		index	10
variable	chem_repeat	index	*C(C)C(=O)O*
variable	chem_cap	index	*[H]
variable	lg_repeat	index	9
variable	lg_cap		index	1
variable	norm_poly	index	100
variable	l_poly		index	452
variable	mg_repeat	index	44.05358
variable	mg_cap		index	0
variable	m_poly		index	2202.679
variable	n_poly		index	10
variable	mtotal		index	36052.2247
variable	nphase1		index	4520
variable	mphase1		index	36052.2247
variable	vphase1		index	95025.5927105
variable	lbox		index	45.6331234262
variable	lphase1		index	45.6331234262
variable	lxx		index	45.6331234262
variable	lyy		index	45.6331234262
variable	lzz		index	45.6331234262
variable	lzy		index	0
variable	lzx		index	0
variable	lyx		index	0
variable	vtotal		index	95025.5927105
variable	nl_poly		index	10

# Types

variable	type_c		index	1
variable	type_c1		index	2
variable	type_c_1	index	3
variable	type_hc		index	4
variable	type_ho2	index	5
variable	type_o_1	index	6
variable	type_o_2	index	7

variable	type_bond_c_c	index	1
variable	type_bond_c_c1	index	2
variable	type_bond_c_c_1	index	3
variable	type_bond_c_hc	index	4
variable	type_bond_c1_c_1 index	5
variable	type_bond_c1_hc	index	6
variable	type_bond_c1_o_2 index	7
variable	type_bond_c_1_o_1 index	8
variable	type_bond_c_1_o_2 index	9
variable	type_bond_ho2_o_2 index	10

variable	type_angle_c_c_c_1 index	1
variable	type_angle_c_c_hc index	2
variable	type_angle_c_c1_c_1 index	3
variable	type_angle_c_c1_hc index	4
variable	type_angle_c_c1_o_2 index	5
variable	type_angle_c_c_1_o_1 index	6
variable	type_angle_c_c_1_o_2 index	7
variable	type_angle_c1_c_hc index	8
variable	type_angle_c1_c_1_o_1 index	9
variable	type_angle_c1_c_1_o_2 index	10
variable	type_angle_c1_o_2_c_1 index	11
variable	type_angle_c_1_c_hc index	12
variable	type_angle_c_1_c1_hc index	13
variable	type_angle_c_1_c1_o_2 index	14
variable	type_angle_c_1_o_2_ho2 index	15
variable	type_angle_hc_c_hc index	16
variable	type_angle_hc_c1_o_2 index	17
variable	type_angle_o_1_c_1_o_2 index	18

# Clusters

variable	n0_poly		index	1
variable	n1_poly		index	10
variable	nl_poly		index	10

# Flags

variable	flag_charged	index	1

# Masses

mass		1    12.01115  # c
mass		2    12.01115  # c1
mass		3    12.01115  # c_1
mass		4     1.00797  # hc
mass		5     1.00800  # ho2
mass		6    15.99940  # o_1
mass		7    15.99940  # o_2

# Potentials

pair_modify	mix sixthpower tail yes
special_bonds	lj/coul 0 0 1

# Pair Coeffs

pair_coeff	 1  1    0.05400    4.01000  # c,c
pair_coeff	 2  2    0.05400    4.01000  # c1,c1
pair_coeff	 3  3    0.12000    3.81000  # c_1,c_1
pair_coeff	 4  4    0.02000    2.99500  # hc,hc
pair_coeff	 5  5    0.01300    1.11000  # ho2,ho2
pair_coeff	 6  6    0.26700    3.30000  # o_1,o_1
pair_coeff	 7  7    0.24000    3.42000  # o_2,o_2

# Bond Coeffs

bond_coeff	 1    1.53000  299.67000 -501.77000  679.81000  # c,c
bond_coeff	 2    1.53000  299.67000 -501.77000  679.81000  # c,c1
bond_coeff	 3    1.52020  253.70670 -423.03700  396.90000  # c,c_1
bond_coeff	 4    1.10100  345.00000 -691.89000  844.60000  # c,hc
bond_coeff	 5    1.52020  253.70670 -423.03700  396.90000  # c1,c_1
bond_coeff	 6    1.10100  345.00000 -691.89000  844.60000  # c1,hc
bond_coeff	 7    1.43000  326.72730 -608.53060  689.03330  # c1,o_2
bond_coeff	 8    1.20200  851.14030 -1918.48820 2160.76590  # c_1,o_1
bond_coeff	 9    1.36830  367.14810 -794.79080 1055.23190  # c_1,o_2
bond_coeff	10    0.95200  534.29940 -1287.19370 1889.13960  # ho2,o_2

# Angle Coeffs

angle_coeff	 1  108.52950   51.97470   -9.48510  -10.99850  # c,c,c_1
angle_coeff	 2  110.77000   41.45300  -10.60400    5.12900  # c,c,hc
angle_coeff	 3  108.52950   51.97470   -9.48510  -10.99850  # c,c1,c_1
angle_coeff	 4  110.77000   41.45300  -10.60400    5.12900  # c,c1,hc
angle_coeff	 5  107.41000   63.39070  -13.45130    1.66500  # c,c1,o_2
angle_coeff	 6  123.14510   55.54310  -17.21230    0.13480  # c,c_1,o_1
angle_coeff	 7  100.31820   38.86310   -3.83230   -7.98020  # c,c_1,o_2
angle_coeff	 8  110.77000   41.45300  -10.60400    5.12900  # c1,c,hc
angle_coeff	 9  123.14510   55.54310  -17.21230    0.13480  # c1,c_1,o_1
angle_coeff	10  100.31820   38.86310   -3.83230   -7.98020  # c1,c_1,o_2
angle_coeff	11  113.28800   61.28680  -28.97860    7.99290  # c1,o_2,c_1
angle_coeff	12  107.73360   40.60990  -28.81210    0.00000  # c_1,c,hc
angle_coeff	13  107.73360   40.60990  -28.81210    0.00000  # c_1,c1,hc
angle_coeff	14  109.50000   60.00000    0.00000    0.00000  # c_1,c1,o_2
angle_coeff	15  112.87400   53.25120  -14.99790    2.46400  # c_1,o_2,ho2
angle_coeff	16  107.66000   39.64100  -12.92100   -2.43180  # hc,c,hc
angle_coeff	17  107.68800   65.48010  -10.34980    5.88660  # hc,c1,o_2
angle_coeff	18  120.79700   95.34460  -32.28690    6.37780  # o_1,c_1,o_2

# BondBond Coeffs

angle_coeff	 1 bb    5.41990    1.53000    1.52020  # c,c,c_1
angle_coeff	 2 bb    3.38720    1.53000    1.10100  # c,c,hc
angle_coeff	 3 bb    5.41990    1.53000    1.52020  # c,c1,c_1
angle_coeff	 4 bb    3.38720    1.53000    1.10100  # c,c1,hc
angle_coeff	 5 bb   23.26470    1.53000    1.43000  # c,c1,o_2
angle_coeff	 6 bb   46.06850    1.52020    1.20200  # c,c_1,o_1
angle_coeff	 7 bb   19.10690    1.52020    1.36830  # c,c_1,o_2
angle_coeff	 8 bb    3.38720    1.53000    1.10100  # c1,c,hc
angle_coeff	 9 bb   46.06850    1.52020    1.20200  # c1,c_1,o_1
angle_coeff	10 bb   19.10690    1.52020    1.36830  # c1,c_1,o_2
angle_coeff	11 bb   45.45030    1.43000    1.36830  # c1,o_2,c_1
angle_coeff	12 bb    0.71150    1.52020    1.10100  # c_1,c,hc
angle_coeff	13 bb    0.71150    1.52020    1.10100  # c_1,c1,hc
angle_coeff	14 bb    0.00000    1.52020    1.43000  # c_1,c1,o_2
angle_coeff	15 bb    9.56710    1.36830    0.95200  # c_1,o_2,ho2
angle_coeff	16 bb    5.33160    1.10100    1.10100  # hc,c,hc
angle_coeff	17 bb    5.64540    1.10100    1.43000  # hc,c1,o_2
angle_coeff	18 bb  121.48800    1.20200    1.36830  # o_1,c_1,o_2

# BondAngle Coeffs

angle_coeff	 1 ba   18.16780   15.87580    1.53000    1.52020  # c,c,c_1
angle_coeff	 2 ba   20.75400   11.42100    1.53000    1.10100  # c,c,hc
angle_coeff	 3 ba   18.16780   15.87580    1.53000    1.52020  # c,c1,c_1
angle_coeff	 4 ba   20.75400   11.42100    1.53000    1.10100  # c,c1,hc
angle_coeff	 5 ba   23.39200   47.94870    1.53000    1.43000  # c,c1,o_2
angle_coeff	 6 ba   34.99820   37.12980    1.52020    1.20200  # c,c_1,o_1
angle_coeff	 7 ba    1.34350    4.69780    1.52020    1.36830  # c,c_1,o_2
angle_coeff	 8 ba   20.75400   11.42100    1.53000    1.10100  # c1,c,hc
angle_coeff	 9 ba   34.99820   37.12980    1.52020    1.20200  # c1,c_1,o_1
angle_coeff	10 ba    1.34350    4.69780    1.52020    1.36830  # c1,c_1,o_2
angle_coeff	11 ba   41.91160   46.46080    1.43000    1.36830  # c1,o_2,c_1
angle_coeff	12 ba   12.46320    9.17650    1.52020    1.10100  # c_1,c,hc
angle_coeff	13 ba   12.46320    9.17650    1.52020    1.10100  # c_1,c1,hc
angle_coeff	14 ba    0.00000    0.00000    1.52020    1.43000  # c_1,c1,o_2
angle_coeff	15 ba   37.91630   21.43640    1.36830    0.95200  # c_1,o_2,ho2
angle_coeff	16 ba   18.10300   18.10300    1.10100    1.10100  # hc,c,hc
angle_coeff	17 ba    8.68640   57.49750    1.10100    1.43000  # hc,c1,o_2
angle_coeff	18 ba   76.26140   71.87610    1.20200    1.36830  # o_1,c_1,o_2

# Dihedral Coeffs

dihedral_coeff	 1    0.04420    0.00000    0.02920    0.00000    0.05620    0.00000  # c,c,c_1,o_1
dihedral_coeff	 2    1.83410    0.00000    2.06030    0.00000   -0.01950    0.00000  # c,c,c_1,o_2
dihedral_coeff	 3    0.04420    0.00000    0.02920    0.00000    0.05620    0.00000  # c,c1,c_1,o_1
dihedral_coeff	 4    1.83410    0.00000    2.06030    0.00000   -0.01950    0.00000  # c,c1,c_1,o_2
dihedral_coeff	 5    0.00000    0.00000    0.00000    0.00000   -0.19320    0.00000  # c,c1,o_2,c_1
dihedral_coeff	 6   -2.55940    0.00000    2.20130    0.00000    0.03250    0.00000  # c,c_1,o_2,c1
dihedral_coeff	 7   -2.55940    0.00000    2.20130    0.00000    0.03250    0.00000  # c1,c_1,o_2,c1
dihedral_coeff	 8   -2.91260    0.00000    1.01990    0.00000   -0.20770    0.00000  # c1,c_1,o_2,ho2
dihedral_coeff	 9    0.00000    0.00000    2.20890    0.00000    0.00000    0.00000  # c1,o_2,c_1,o_1
dihedral_coeff	10   -0.02280    0.00000    0.02800    0.00000   -0.18630    0.00000  # c_1,c,c,hc
dihedral_coeff	11   -0.02280    0.00000    0.02800    0.00000   -0.18630    0.00000  # c_1,c1,c,hc
dihedral_coeff	12    0.00000    0.00000    0.00000    0.00000   -0.19320    0.00000  # c_1,c1,o_2,c_1
dihedral_coeff	13    0.00000    0.00000    0.00000    0.00000   -0.19320    0.00000  # c_1,o_2,c1,hc
dihedral_coeff	14   -0.14320    0.00000    0.06170    0.00000   -0.10830    0.00000  # hc,c,c,hc
dihedral_coeff	15   -0.14320    0.00000    0.06170    0.00000   -0.10830    0.00000  # hc,c,c1,hc
dihedral_coeff	16    0.00000    0.00000    0.00000    0.00000   -0.25000    0.00000  # hc,c,c1,o_2
dihedral_coeff	17   -0.18040    0.00000    0.00120    0.00000    0.03710    0.00000  # hc,c,c_1,o_1
dihedral_coeff	18   -0.63590    0.00000    1.48070    0.00000   -0.04380    0.00000  # hc,c,c_1,o_2
dihedral_coeff	19   -0.18040    0.00000    0.00120    0.00000    0.03710    0.00000  # hc,c1,c_1,o_1
dihedral_coeff	20   -0.63590    0.00000    1.48070    0.00000   -0.04380    0.00000  # hc,c1,c_1,o_2
dihedral_coeff	21    0.00000    0.00000    2.20890    0.00000    0.00000    0.00000  # ho2,o_2,c_1,o_1
dihedral_coeff	22    0.00000  180.00000    0.00000    0.00000    0.00000    0.00000  # o_1,c_1,c1,o_2
dihedral_coeff	23    0.00000  180.00000    0.00000    0.00000    0.00000    0.00000  # o_2,c1,c_1,o_2

# MiddleBondTorsion Coeffs

dihedral_coeff	 1 mbt    0.33880   -0.10960    0.12190    1.52020  # c,c,c_1,o_1
dihedral_coeff	 2 mbt  -17.32800   -5.79000   -3.21140    1.52020  # c,c,c_1,o_2
dihedral_coeff	 3 mbt    0.33880   -0.10960    0.12190    1.52020  # c,c1,c_1,o_1
dihedral_coeff	 4 mbt  -17.32800   -5.79000   -3.21140    1.52020  # c,c1,c_1,o_2
dihedral_coeff	 5 mbt   -5.43500    0.00000    0.00000    1.43000  # c,c1,o_2,c_1
dihedral_coeff	 6 mbt    1.34450    3.55150   -4.92020    1.36830  # c,c_1,o_2,c1
dihedral_coeff	 7 mbt    1.34450    3.55150   -4.92020    1.36830  # c1,c_1,o_2,c1
dihedral_coeff	 8 mbt    2.14520    0.54820   -2.36930    1.36830  # c1,c_1,o_2,ho2
dihedral_coeff	 9 mbt    4.26000    0.00000    0.00000    1.36830  # c1,o_2,c_1,o_1
dihedral_coeff	10 mbt   -3.50390    1.24580   -0.76100    1.53000  # c_1,c,c,hc
dihedral_coeff	11 mbt   -3.50390    1.24580   -0.76100    1.53000  # c_1,c1,c,hc
dihedral_coeff	12 mbt    0.00000    0.00000    0.00000    1.43000  # c_1,c1,o_2,c_1
dihedral_coeff	13 mbt    0.00000    0.00000    0.00000    1.43000  # c_1,o_2,c1,hc
dihedral_coeff	14 mbt  -14.26100   -0.53220   -0.48640    1.53000  # hc,c,c,hc
dihedral_coeff	15 mbt  -14.26100   -0.53220   -0.48640    1.53000  # hc,c,c1,hc
dihedral_coeff	16 mbt    0.00000    0.00000    0.00000    1.53000  # hc,c,c1,o_2
dihedral_coeff	17 mbt    0.23590    0.91390    0.95940    1.52020  # hc,c,c_1,o_1
dihedral_coeff	18 mbt  -13.76860   -2.59590    1.19340    1.52020  # hc,c,c_1,o_2
dihedral_coeff	19 mbt    0.23590    0.91390    0.95940    1.52020  # hc,c1,c_1,o_1
dihedral_coeff	20 mbt  -13.76860   -2.59590    1.19340    1.52020  # hc,c1,c_1,o_2
dihedral_coeff	21 mbt    4.26000    0.00000    0.00000    1.36830  # ho2,o_2,c_1,o_1
dihedral_coeff	22 mbt    0.00000    0.00000    0.00000    1.52020  # o_1,c_1,c1,o_2
dihedral_coeff	23 mbt    0.00000    0.00000    0.00000    1.52020  # o_2,c1,c_1,o_2

# EndBondTorsion Coeffs

dihedral_coeff	 1 ebt    0.26540    0.05030    0.10460   -0.28100    0.08160   -0.15220    1.53000    1.20200  # c,c,c_1,o_1
dihedral_coeff	 2 ebt    0.00000    0.00000    0.00000    0.00000    0.00000    0.00000    1.53000    1.36830  # c,c,c_1,o_2
dihedral_coeff	 3 ebt    0.26540    0.05030    0.10460   -0.28100    0.08160   -0.15220    1.53000    1.20200  # c,c1,c_1,o_1
dihedral_coeff	 4 ebt    0.00000    0.00000    0.00000    0.00000    0.00000    0.00000    1.53000    1.36830  # c,c1,c_1,o_2
dihedral_coeff	 5 ebt    0.00000    0.00000    0.00000    0.00000    0.00000    0.00000    1.53000    1.36830  # c,c1,o_2,c_1
dihedral_coeff	 6 ebt    0.00000    0.00000    0.00000    0.00000    0.00000    0.00000    1.52020    1.43000  # c,c_1,o_2,c1
dihedral_coeff	 7 ebt    0.00000    0.00000    0.00000    0.00000    0.00000    0.00000    1.52020    1.43000  # c1,c_1,o_2,c1
dihedral_coeff	 8 ebt    0.00000    0.00000    0.00000    0.00000    0.00000    0.00000    1.52020    0.95200  # c1,c_1,o_2,ho2
dihedral_coeff	 9 ebt    0.00000    0.00000    0.00000    0.00000    0.00000    0.00000    1.43000    1.20200  # c1,o_2,c_1,o_1
dihedral_coeff	10 ebt   -0.02040    0.36280   -0.44260   -0.00970   -0.03150   -0.07550    1.52020    1.10100  # c_1,c,c,hc
dihedral_coeff	11 ebt   -0.02040    0.36280   -0.44260   -0.00970   -0.03150   -0.07550    1.52020    1.10100  # c_1,c1,c,hc
dihedral_coeff	12 ebt    0.00000    0.00000    0.00000    0.00000    0.00000    0.00000    1.52020    1.36830  # c_1,c1,o_2,c_1
dihedral_coeff	13 ebt    0.00000    0.00000    0.00000    0.00000    0.00000    0.00000    1.36830    1.10100  # c_1,o_2,c1,hc
dihedral_coeff	14 ebt    0.21300    0.31200    0.07770    0.21300    0.31200    0.07770    1.10100    1.10100  # hc,c,c,hc
dihedral_coeff	15 ebt    0.21300    0.31200    0.07770    0.21300    0.31200    0.07770    1.10100    1.10100  # hc,c,c1,hc
dihedral_coeff	16 ebt    0.00000    0.00000    0.00000    0.00000    0.00000    0.00000    1.10100    1.43000  # hc,c,c1,o_2
dihedral_coeff	17 ebt    1.21430    0.28310    0.39160   -0.22980    0.03540    0.38530    1.10100    1.20200  # hc,c,c_1,o_1
dihedral_coeff	18 ebt    0.00000    0.00000    0.00000    0.00000    0.00000    0.00000    1.10100    1.36830  # hc,c,c_1,o_2
dihedral_coeff	19 ebt    1.21430    0.28310    0.39160   -0.22980    0.03540    0.38530    1.10100    1.20200  # hc,c1,c_1,o_1
dihedral_coeff	20 ebt    0.00000    0.00000    0.00000    0.00000    0.00000    0.00000    1.10100    1.36830  # hc,c1,c_1,o_2
dihedral_coeff	21 ebt    0.00000    0.00000    0.00000    0.00000    0.00000    0.00000    0.95200    1.20200  # ho2,o_2,c_1,o_1
dihedral_coeff	22 ebt    0.00000    0.00000    0.00000    0.00000    0.00000    0.00000    1.20200    1.43000  # o_1,c_1,c1,o_2
dihedral_coeff	23 ebt    0.00000    0.00000    0.00000    0.00000    0.00000    0.00000    1.43000    1.36830  # o_2,c1,c_1,o_2

# AngleTorsion Coeffs

dihedral_coeff	 1 at    0.08850   -1.37030   -0.54520    0.67500    0.59650    0.67250  108.52950  123.14510  # c,c,c_1,o_1
dihedral_coeff	 2 at    0.00000    0.00000    0.00000    0.00000    0.00000    0.00000  108.52950  100.31820  # c,c,c_1,o_2
dihedral_coeff	 3 at    0.08850   -1.37030   -0.54520    0.67500    0.59650    0.67250  108.52950  123.14510  # c,c1,c_1,o_1
dihedral_coeff	 4 at    0.00000    0.00000    0.00000    0.00000    0.00000    0.00000  108.52950  100.31820  # c,c1,c_1,o_2
dihedral_coeff	 5 at    0.00000    0.00000    0.00000    0.00000    0.00000    0.00000  107.41000  113.28800  # c,c1,o_2,c_1
dihedral_coeff	 6 at    0.00000    0.00000    0.00000    0.00000    0.00000    0.00000  100.31820  113.28800  # c,c_1,o_2,c1
dihedral_coeff	 7 at    0.00000    0.00000    0.00000    0.00000    0.00000    0.00000  100.31820  113.28800  # c1,c_1,o_2,c1
dihedral_coeff	 8 at    0.00000    0.00000    0.00000    0.00000    0.00000    0.00000  100.31820  112.87400  # c1,c_1,o_2,ho2
dihedral_coeff	 9 at    0.00000    0.00000    0.00000    0.00000    0.00000    0.00000  113.28800  120.79700  # c1,o_2,c_1,o_1
dihedral_coeff	10 at   -0.74660   -0.94480   -0.63210    0.01620    1.42110   -1.40920  108.52950  110.77000  # c_1,c,c,hc
dihedral_coeff	11 at   -0.74660   -0.94480   -0.63210    0.01620    1.42110   -1.40920  108.52950  110.77000  # c_1,c1,c,hc
dihedral_coeff	12 at    0.00000    0.00000    0.00000    0.00000    0.00000    0.00000  109.50000  113.28800  # c_1,c1,o_2,c_1
dihedral_coeff	13 at    0.00000    0.00000    0.00000    0.00000    0.00000    0.00000  113.28800  107.68800  # c_1,o_2,c1,hc
dihedral_coeff	14 at   -0.80850    0.55690   -0.24660   -0.80850    0.55690   -0.24660  110.77000  110.77000  # hc,c,c,hc
dihedral_coeff	15 at   -0.80850    0.55690   -0.24660   -0.80850    0.55690   -0.24660  110.77000  110.77000  # hc,c,c1,hc
dihedral_coeff	16 at    0.00000    0.00000    0.00000    0.00000    0.00000    0.00000  110.77000  107.41000  # hc,c,c1,o_2
dihedral_coeff	17 at    9.12990   -0.48470    0.35820   -1.49460    0.73080   -0.20830  107.73360  123.14510  # hc,c,c_1,o_1
dihedral_coeff	18 at    0.00000    0.00000    0.00000    0.00000    0.00000    0.00000  107.73360  100.31820  # hc,c,c_1,o_2
dihedral_coeff	19 at    9.12990   -0.48470    0.35820   -1.49460    0.73080   -0.20830  107.73360  123.14510  # hc,c1,c_1,o_1
dihedral_coeff	20 at    0.00000    0.00000    0.00000    0.00000    0.00000    0.00000  107.73360  100.31820  # hc,c1,c_1,o_2
dihedral_coeff	21 at    0.00000    0.00000    0.00000    0.00000    0.00000    0.00000  112.87400  120.79700  # ho2,o_2,c_1,o_1
dihedral_coeff	22 at    0.00000    0.00000    0.00000    0.00000    0.00000    0.00000  123.14510  109.50000  # o_1,c_1,c1,o_2
dihedral_coeff	23 at    0.00000    0.00000    0.00000    0.00000    0.00000    0.00000  109.50000  100.31820  # o_2,c1,c_1,o_2

# AngleAngleTorsion Coeffs

dihedral_coeff	 1 aat   -8.01900  108.52950  123.14510  # c,c,c_1,o_1
dihedral_coeff	 2 aat    0.00000  108.52950  100.31820  # c,c,c_1,o_2
dihedral_coeff	 3 aat   -8.01900  108.52950  123.14510  # c,c1,c_1,o_1
dihedral_coeff	 4 aat    0.00000  108.52950  100.31820  # c,c1,c_1,o_2
dihedral_coeff	 5 aat    0.00000  107.41000  113.28800  # c,c1,o_2,c_1
dihedral_coeff	 6 aat    0.00000  100.31820  113.28800  # c,c_1,o_2,c1
dihedral_coeff	 7 aat    0.00000  100.31820  113.28800  # c1,c_1,o_2,c1
dihedral_coeff	 8 aat    0.00000  100.31820  112.87400  # c1,c_1,o_2,ho2
dihedral_coeff	 9 aat    0.00000  113.28800  120.79700  # c1,o_2,c_1,o_1
dihedral_coeff	10 aat   -5.36240  108.52950  110.77000  # c_1,c,c,hc
dihedral_coeff	11 aat   -5.36240  108.52950  110.77000  # c_1,c1,c,hc
dihedral_coeff	12 aat    0.00000  109.50000  113.28800  # c_1,c1,o_2,c_1
dihedral_coeff	13 aat    0.00000  113.28800  107.68800  # c_1,o_2,c1,hc
dihedral_coeff	14 aat  -12.56400  110.77000  110.77000  # hc,c,c,hc
dihedral_coeff	15 aat  -12.56400  110.77000  110.77000  # hc,c,c1,hc
dihedral_coeff	16 aat    0.00000  110.77000  107.41000  # hc,c,c1,o_2
dihedral_coeff	17 aat  -15.34960  107.73360  123.14510  # hc,c,c_1,o_1
dihedral_coeff	18 aat    0.00000  107.73360  100.31820  # hc,c,c_1,o_2
dihedral_coeff	19 aat  -15.34960  107.73360  123.14510  # hc,c1,c_1,o_1
dihedral_coeff	20 aat    0.00000  107.73360  100.31820  # hc,c1,c_1,o_2
dihedral_coeff	21 aat    0.00000  112.87400  120.79700  # ho2,o_2,c_1,o_1
dihedral_coeff	22 aat    0.00000  123.14510  109.50000  # o_1,c_1,c1,o_2
dihedral_coeff	23 aat    0.00000  109.50000  100.31820  # o_2,c1,c_1,o_2

# BondBond13 Coeffs

dihedral_coeff	 1 bb13    0.00000    1.53000    1.20200  # c,c,c_1,o_1
dihedral_coeff	 2 bb13    0.00000    1.53000    1.36830  # c,c,c_1,o_2
dihedral_coeff	 3 bb13    0.00000    1.53000    1.20200  # c,c1,c_1,o_1
dihedral_coeff	 4 bb13    0.00000    1.53000    1.36830  # c,c1,c_1,o_2
dihedral_coeff	 5 bb13    0.00000    1.53000    1.36830  # c,c1,o_2,c_1
dihedral_coeff	 6 bb13    0.00000    1.52020    1.43000  # c,c_1,o_2,c1
dihedral_coeff	 7 bb13    0.00000    1.52020    1.43000  # c1,c_1,o_2,c1
dihedral_coeff	 8 bb13    0.00000    1.52020    0.95200  # c1,c_1,o_2,ho2
dihedral_coeff	 9 bb13    0.00000    1.43000    1.20200  # c1,o_2,c_1,o_1
dihedral_coeff	10 bb13    0.00000    1.52020    1.10100  # c_1,c,c,hc
dihedral_coeff	11 bb13    0.00000    1.52020    1.10100  # c_1,c1,c,hc
dihedral_coeff	12 bb13    0.00000    1.52020    1.36830  # c_1,c1,o_2,c_1
dihedral_coeff	13 bb13    0.00000    1.36830    1.10100  # c_1,o_2,c1,hc
dihedral_coeff	14 bb13    0.00000    1.10100    1.10100  # hc,c,c,hc
dihedral_coeff	15 bb13    0.00000    1.10100    1.10100  # hc,c,c1,hc
dihedral_coeff	16 bb13    0.00000    1.10100    1.43000  # hc,c,c1,o_2
dihedral_coeff	17 bb13    0.00000    1.10100    1.20200  # hc,c,c_1,o_1
dihedral_coeff	18 bb13    0.00000    1.10100    1.36830  # hc,c,c_1,o_2
dihedral_coeff	19 bb13    0.00000    1.10100    1.20200  # hc,c1,c_1,o_1
dihedral_coeff	20 bb13    0.00000    1.10100    1.36830  # hc,c1,c_1,o_2
dihedral_coeff	21 bb13    0.00000    0.95200    1.20200  # ho2,o_2,c_1,o_1
dihedral_coeff	22 bb13    0.00000    1.20200    1.43000  # o_1,c_1,c1,o_2
dihedral_coeff	23 bb13    0.00000    1.43000    1.36830  # o_2,c1,c_1,o_2

# Improper Coeffs

improper_coeff	 1    0.00000    0.00000  # c,c,hc,c_1
improper_coeff	 2    0.00000    0.00000  # c,c,hc,hc
improper_coeff	 3    0.00000    0.00000  # c,c1,hc,hc
improper_coeff	 4    0.00000    0.00000  # c,c_1,hc,hc
improper_coeff	 5    0.00000    0.00000  # c,hc,hc,hc
improper_coeff	 6    0.00000    0.00000  # c1,c,hc,c_1
improper_coeff	 7    0.00000    0.00000  # c1,c,hc,o_2
improper_coeff	 8    0.00000    0.00000  # c1,c,o_2,c_1
improper_coeff	 9    0.00000    0.00000  # c1,c_1,hc,o_2
improper_coeff	10   46.92640    0.00000  # c_1,c,o_2,o_1
improper_coeff	11   46.92640    0.00000  # c_1,c1,o_2,o_1

# AngleAngle Coeffs

improper_coeff	 1 aa    1.08270   -1.82020    2.04030  110.77000  108.52950  107.73360  # c,c,hc,c_1
improper_coeff	 2 aa    0.27380   -0.48250    0.27380  110.77000  110.77000  107.66000  # c,c,hc,hc
improper_coeff	 3 aa    0.27380   -0.48250    0.27380  110.77000  110.77000  107.66000  # c,c1,hc,hc
improper_coeff	 4 aa   -3.38670   -3.49760   -3.38670  107.73360  107.73360  107.66000  # c,c_1,hc,hc
improper_coeff	 5 aa   -0.31570   -0.31570   -0.31570  107.66000  107.66000  107.66000  # c,hc,hc,hc
improper_coeff	 6 aa    1.08270   -1.82020    2.04030  110.77000  108.52950  107.73360  # c1,c,hc,c_1
improper_coeff	 7 aa    0.00000    0.00000    0.00000  110.77000  107.41000  107.68800  # c1,c,hc,o_2
improper_coeff	 8 aa    0.00000    0.00000    0.00000  107.41000  108.52950  109.50000  # c1,c,o_2,c_1
improper_coeff	 9 aa    0.00000    0.00000    0.00000  107.73360  109.50000  107.68800  # c1,c_1,hc,o_2
improper_coeff	10 aa    0.00000    0.00000    0.00000  100.31820  123.14510  120.79700  # c_1,c,o_2,o_1
improper_coeff	11 aa    0.00000    0.00000    0.00000  100.31820  123.14510  120.79700  # c_1,c1,o_2,o_1


# --- Thermo Output ---
thermo_style custom step time temp press enthalpy etotal ke pe ebond eangle edihed eimp evdwl ecoul elong etail vol lx ly lz density pxx pyy pzz
thermo_modify flush yes
thermo 1000

# --- Trajectory ---
dump dump_npt all custom 1000 npt_prod300.dump id type mol x y z ix iy iz vx vy vz

# --- Restart Checkpointing ---
# No restart checkpointing

# --- Initial Velocities (optional) ---
# Velocities read from data file

# --- SHAKE Constraints ---
# SHAKE disabled

# --- NPT Thermostat + Barostat (Nose-Hoover) ---
# T_damp = 100.0 fs  (heat bath coupling)
# P_damp = 1000.0 fs  (pressure bath coupling, ~10x T_damp typical)
# Ramp: T=300.0->300.0K  P=1.0->1.0atm
timestep 1.0
fix npt_fix all npt temp 300.0 300.0 100.0 iso 1.0 1.0 1000.0

run 2000000
PPPM Kokkos initialization ...
  using 12-bit tables for long-range coulomb
  G vector (1/distance) = 0.34284709
  grid = 45 45 45
  stencil order = 5
  estimated absolute RMS force accuracy = 0.00025258576
  estimated relative force accuracy = 7.6065452e-07
  using double precision cuFFT
  3d grid and FFT values/proc = 140608 91125
Generated 21 of 21 mixed pair_coeff terms from sixthpower/sixthpower mixing rule
Neighbor list info ...
  update: every = 1 steps, delay = 0 steps, check = yes
  max neighbors/atom: 4000, page size: 100000
  master list distance cutoff = 11.5
  ghost atom cutoff = 11.5
  binsize = 11.5, bins = 4 4 4
  1 neighbor lists, perpetual/occasional/extra = 1 0 0
  (1) pair lj/class2/coul/long/kk, perpetual
      attributes: full, newton off, kokkos_device
      pair build: full/bin/kk/device
      stencil: full/bin/3d
      bin: kk/device
Per MPI rank memory allocation (min/avg/max) = 37.13 | 37.13 | 37.13 Mbytes
   Step          Time           Temp          Press         Enthalpy        TotEng         KinEng         PotEng         E_bond        E_angle        E_dihed        E_impro         E_vdwl         E_coul         E_long         E_tail         Volume           Lx             Ly             Lz          Density          Pxx            Pyy            Pzz      
         0   0              301.45482      681.11622      16820.838      16331.117      4060.681       12270.436      2104.0251      3700.4215     -4079.598       139.96512     -2450.9548      44844.869     -31988.292     -383.6136       49300.503      36.66771       36.66771       36.66771       1.2143106      1061.9477      110.7226       870.67837    
      1000   1000           305.62508      15.240722      16488.891      16477.891      4116.8555      12361.036      2156.0152      3737.55       -4124.6629      164.02224     -2427.8943      44829.981     -31973.975     -382.17736      49485.777      36.713585      36.713585      36.713585      1.2097642      974.86129      176.24172     -1105.3808    
      2000   2000           297.65239     -629.2918       15903.279      16352.351      4009.4612      12342.89       2121.7989      3741.541      -4051.3251      154.85628     -2500.5633      44861.849     -31985.267     -386.50692      48931.448      36.575984      36.575984      36.575984      1.2234692     -926.67934     -1845.6554      884.45939    
      3000   3000           302.39089      530.87959      16823.178      16441.422      4073.2901      12368.132      2152.7392      3744.77       -4048.6457      154.61796     -2481.6829      44830.339     -31984.006     -383.55768      49307.691      36.669492      36.669492      36.669492      1.2141336     -1232.3383      2039.5742      785.4028     
      4000   4000           295.6928      -338.59763      16195.385      16439.043      3983.065       12455.978      2171.5507      3867.6299     -4124.8429      138.54597     -2436.4335      44823.591     -31984.063     -383.28634      49342.597      36.678143      36.678143      36.678143      1.2132746     -860.23803      63.56273      -219.11759    
      5000   5000           298.83065      881.86903      16995.463      16366.715      4025.3328      12341.382      2190.8814      3647.7045     -4073.1153      149.85588     -2442.6201      44848.161     -31979.485     -386.8553       48887.383      36.565002      36.565002      36.565002      1.224572      -1190.2804      1850.463       1985.4245    
      6000   6000           295.93483     -188.99722      16208.515      16342.898      3986.3253      12356.573      2094.2195      3766.5111     -4043.2997      155.08845     -2467.0527      44832.936     -31981.83      -387.91156      48754.266      36.531783      36.531783      36.531783      1.2279156     -231.65621     -1528.1724      1192.837     
      7000   7000           304.97272      1058.5064      17197.427      16440.693      4108.0681      12332.625      2141.8742      3685.494      -4072.9664      148.22348     -2431.0632      44841.294     -31980.231     -385.80832      49020.05       36.598048      36.598048      36.598048      1.2212579      183.58221      102.03728      2889.8997    
      8000   8000           297.88834      197.85737      16476.791      16335.215      4012.6395      12322.575      2106.3733      3776.4956     -4051.8081      135.64265     -2517.8607      44855.631     -31981.899     -385.464        49063.839      36.608942      36.608942      36.608942      1.2201679      1560.2479      116.04371     -1082.7195    
      9000   9000           303.27822     -197.30502      16420.072      16560.49       4085.2428      12475.247      2150.8429      3802.6269     -4040.1571      157.93342     -2505.2614      44888.039     -31978.777     -387.55831      48798.705      36.542879      36.542879      36.542879      1.2267974     -789.13136      234.61275     -37.396434    
     10000   10000          297.32227     -404.54702      16028.677      16317.707      4005.0144      12312.693      2057.3857      3765.1587     -4050.7237      146.93089     -2480.406       44855.77      -31981.422     -386.05229      48989.072      36.590337      36.590337      36.590337      1.2220301     -793.78338     -199.58623     -220.27145    
     11000   11000          301.83976     -1313.0708      15522.721      16461.775      4065.8663      12395.909      2123.6718      3818.5134     -4039.86        151.03825     -2510.332       44830.668     -31977.791     -385.67272      49037.286      36.602336      36.602336      36.602336      1.2208286     -2528.584      -1557.9025      147.27419    
     12000   12000          294.73555     -1454.949       15315.439      16353.64       3970.1705      12383.47       2167.865       3777.0485     -4038.5984      164.41715     -2533.6233      44823.365     -31977.004     -386.53385      48928.04       36.575135      36.575135      36.575135      1.2235545     -765.00726     -2523.7622     -1076.0775    
     13000   13000          295.54465      834.9636       16915.453      16318.775      3981.0694      12337.705      2089.1209      3808.6578     -4098.7324      150.6552      -2451.8103      44821.378     -31981.563     -385.96559      49000.077      36.593076      36.593076      36.593076      1.2217557      1008.6634      1161.973       334.25439    
     14000   14000          301.24402     -448.85127      16057.245      16376.082      4057.8414      12318.24       2124.5018      3761.6326     -4095.711       142.15742     -2481.2711      44843.789     -31976.858     -388.29004      48706.744      36.51991       36.51991       36.51991       1.2291136      988.20261     -2424.4681      89.711683    
     15000   15000          296.5983       659.79765      16797.03       16328.006      3995.2623      12332.744      2100.2279      3732.6858     -4059.2479      161.81194     -2485.7668      44863.24      -31980.207     -388.00453      48742.585      36.528866      36.528866      36.528866      1.2282098      1185.5368     -1044.0444      1837.9005    
     16000   16000          308.57572     -378.14673      16236.03       16506.819      4156.6015      12350.217      2175.9268      3713.7926     -4082.9703      156.08447     -2500.4102      44871.859     -31984.065     -385.16802      49101.541      36.618316      36.618316      36.618316      1.219231      -1214.0249     -961.7917       1041.3764    
     17000   17000          301.47786     -364.45876      16154.708      16413.954      4060.9914      12352.963      2196.3335      3739.844      -4045.8486      147.00044     -2512.4817      44818.474     -31990.36      -387.75513      48773.935      36.536695      36.536695      36.536695      1.2274204     -1636.0546     -183.51522      726.19357    
     18000   18000          290.90361     -901.43383      15605.822      16252.857      3918.5533      12334.303      2255.3656      3756.9984     -4148.5571      154.47445     -2482.9587      44788.54      -31989.559     -384.26229      49217.277      36.647065      36.647065      36.647065      1.216364      -2503.7036      1105.939      -1306.5369    
     19000   19000          297.98189      1554.1121      17493.785      16386.764      4013.8997      12372.864      2197.6854      3763.6247     -4095.0725      132.35628     -2481.613       44839.021     -31983.137     -387.2108       48842.5        36.553808      36.553808      36.553808      1.2256973      1698.4421     -968.12435      3932.0186    
     20000   20000          302.8323       1062.4715      17195.364      16435.296      4079.2361      12356.06       2087.8336      3719.4484     -4050.3002      154.28367     -2405.5832      44833.73      -31983.352     -385.55504      49052.253      36.60606       36.60606       36.60606       1.2204561      1713.0992      68.250291      1406.0652    
     21000   21000          297.83948     -243.88053      16160.439      16334.728      4011.9813      12322.746      2127.3727      3716.9298     -4087.4895      147.76873     -2438.3514      44840.524     -31984.008     -385.94814      49002.292      36.593628      36.593628      36.593628      1.2217004      296.89705     -1116.9079      88.369298    
     22000   22000          299.04843     -125.13393      16281.216      16370.988      4028.2662      12342.722      2131.255       3801.1608     -4138.8163      153.77296     -2431.7285      44810.65      -31983.572     -384.46401      49191.453      36.640654      36.640654      36.640654      1.2170025     -746.27155      1136.4635     -765.59373    
     23000   23000          296.13177      114.58222      16351.627      16269.691      3988.9781      12280.713      2041.82        3792.455      -4078.865       133.10958     -2501.859       44875.235     -31981.182     -385.7157       49031.822      36.600977      36.600977      36.600977      1.2209647      1039.4523     -1425.1696      729.46396    
     24000   24000          301.19253      953.61415      17020.107      16335.268      4057.1479      12278.12       2079.6317      3741.3689     -4078.8722      139.53017     -2480.6973      44856.299     -31979.141     -384.06561      49242.481      36.653319      36.653319      36.653319      1.2157414      209.04967      1107.6905      1544.1022    
     25000   25000          303.40299     -930.50853      15708.604      16375.365      4086.9234      12288.442      2140.2962      3766.6016     -4118.4879      169.97552     -2524.6821      44833.922     -31979.184     -384.92091      49133.064      36.626151      36.626151      36.626151      1.2184488     -1463.5135     -1545.5504      217.53837    
     26000   26000          305.89266      125.39801      16573.478      16483.899      4120.4599      12363.439      2160.9312      3712.3879     -4073.192       145.28934     -2481.284       44878.817     -31979.511     -386.10487      48982.4        36.588675      36.588675      36.588675      1.2221966     -937.02289      1583.1902     -269.97329    
     27000   27000          296.4402      -847.60879      15697.346      16306.259      3993.1327      12313.126      2126.279       3805.6839     -4121.1203      137.3672      -2494.323       44841.064     -31981.825     -383.93849      49258.785      36.657364      36.657364      36.657364      1.215339       701.69389     -801.68755     -2442.8327    
     28000   28000          298.15993      59.524643      16459.15       16416.617      4016.298       12400.319      2208.3903      3782.6126     -4066.6928      155.40981     -2510.1143      44818.852     -31988.139     -386.00539      48995.024      36.591818      36.591818      36.591818      1.2218817      1087.8907     -1808.252       898.93527    
     29000   29000          293.14818      673.48613      16727.216      16247.999      3948.7883      12299.21       2104.0939      3697.2131     -4039.516       146.34269     -2506.0545      44879.768     -31982.637     -387.62959      48789.731      36.540639      36.540639      36.540639      1.227023       1890.5194      612.75824     -482.81929    
     30000   30000          299.03538      240.13916      16471.083      16299.862      4028.0905      12271.771      2150.7967      3711.5368     -4076.0864      139.46487     -2547.4478      44873.636     -31980.129     -386.83511      48889.935      36.565638      36.565638      36.565638      1.2245081     -151.58005      306.57764      565.41988    
     31000   31000          297.953       -135.847        16222.761      16320.188      4013.5106      12306.678      2166.7178      3704.3288     -4098.4871      136.41585     -2474.2076      44858.493     -31986.583     -384.58169      49176.401      36.636916      36.636916      36.636916      1.217375      -760.35279     -423.44236      776.25415    
     32000   32000          303.60976     -478.7358       16037.35       16380.697      4089.7086      12290.988      2181.4557      3738.426      -4085.2262      136.15669     -2513.7594      44815.465     -31981.53      -384.5777       49176.911      36.637043      36.637043      36.637043      1.2173624     -1942.8573      14.409219      492.2407     
     33000   33000          304.13593     -1887.7574      15079.609      16433.233      4096.7963      12336.436      2183.7802      3769.3429     -4063.892       151.1646      -2539.0788      44823.875     -31988.756     -384.65343      49167.229      36.634639      36.634639      36.634639      1.2176021     -1082.5637     -1558.4615     -3022.2471    
     34000   34000          297.37719      1260.2144      17267.254      16369.77       4005.7542      12364.016      2207.4573      3756.5516     -4074.6702      152.09649     -2541.2345      44855.304     -31991.489     -387.29244      48832.205      36.55124       36.55124       36.55124       1.2259558      1955.4538      217.08542      1608.1041    
     35000   35000          297.4071      -434.02095      16015.332      16324.793      4006.1571      12318.636      2044.5346      3785.0465     -4058.7631      130.87892     -2487.9732      44889.188     -31984.276     -386.83476      48889.979      36.565649      36.565649      36.565649      1.224507      -3157.4878      1018.2433      837.18164    
     36000   36000          297.26267     -232.53328      16129.214      16294.728      4004.2116      12290.517      2160.6741      3749.4877     -4132.0555      139.16543     -2479.0205      44837.115     -31984.85      -387.49865      48806.217      36.544755      36.544755      36.544755      1.2266085     -1195.532       353.85787      144.07427    
     37000   37000          298.6919      -368.63559      16138.008      16402.01       4023.4637      12378.547      2187.6086      3792.9887     -4082.7078      134.92934     -2522.507       44850.741     -31982.506     -385.13311      49105.993      36.619423      36.619423      36.619423      1.2191205     -176.10049     -1303.6885      373.88221    
     38000   38000          299.97045      1944.8694      17784.68       16392.388      4040.6861      12351.702      2186.8866      3722.1162     -4120.6446      139.65095     -2396.7886      44807.844     -31987.363     -385.28439      49086.711      36.61463       36.61463       36.61463       1.2195994      2201.641      -284.17459      3917.1418    
     39000   39000          300.85988     -60.507425      16341.109      16384.698      4052.667       12332.031      2170.5836      3683.9224     -4107.2812      169.27061     -2443.5252      44847.514     -31988.453     -382.87246      49395.936      36.691354      36.691354      36.691354      1.2119645     -93.713464      43.09072      -130.89953    
     40000   40000          298.09733     -499.56016      16065.128      16421.923      4015.4547      12406.468      2199.9419      3831.6853     -4072.7011      130.25833     -2495.8624      44795.371     -31982.225     -386.1813       48972.706      36.586262      36.586262      36.586262      1.2224385      795.69089     -3410.8831      1116.5117    
     41000   41000          296.89188     -303.99312      16034.641      16252.197      3999.217       12252.981      2080.5629      3708.6896     -4086.9499      143.90163     -2471.4525      44866.238     -31988.009     -385.40073      49071.893      36.610945      36.610945      36.610945      1.2199677     -1698.4346     -532.99614      1319.4514    
     42000   42000          301.07902     -1597.8034      15285.274      16430.99       4055.6189      12375.371      2226.9324      3729.3619     -4097.6206      129.86118     -2491.1651      44865.458     -31987.457     -384.65174      49167.446      36.634692      36.634692      36.634692      1.2175968     -3152.6011     -1071.5581     -569.25097    
     43000   43000          295.70142     -578.29525      15876.916      16291.289      3983.1811      12308.108      2109.9581      3720.7053     -4014.4897      133.86042     -2519.1677      44867.945     -31990.703     -384.92834      49132.115      36.625915      36.625915      36.625915      1.2184723     -1525.9906     -840.22922      631.33405    
     44000   44000          304.09246     -1552.3921      15249.614      16356.792      4096.2108      12260.581      2159.1712      3725.9165     -4061.9919      145.47379     -2523.0235      44798.333     -31983.298     -386.72741      48903.551      36.569032      36.569032      36.569032      1.2241672     -1498.5517     -2149.3266     -1009.2981    
     45000   45000          294.62673     -929.56998      15639.198      16302.722      3968.7047      12334.017      2130.2824      3756.3429     -4071.9758      146.54648     -2508.9041      44862.087     -31980.363     -386.4087       48943.887      36.579083      36.579083      36.579083      1.2231583     -1221.2014     -523.4592      -1044.0493    
     46000   46000          307.02668      802.97532      16994.689      16420.352      4135.7356      12284.617      2088.8844      3714.7595     -4069.0737      141.17519     -2453.1897      44851.867     -31989.806     -385.61785      49044.263      36.604072      36.604072      36.604072      1.2206549      682.99628     -143.44474      1869.3744    
     47000   47000          301.97602     -715.67591      15865.556      16377.904      4067.7017      12310.202      2222.1064      3675.0359     -4096.3611      142.03598     -2524.7869      44870.118     -31977.947     -385.27665      49087.697      36.614875      36.614875      36.614875      1.2195749     -290.54375     -1009.8143     -846.66969    
     48000   48000          297.2135       650.26024      16842.015      16379.137      4003.5492      12375.588      2094.3022      3805.5068     -4051.4755      156.9679      -2509.6467      44862.02      -31982.087     -387.47348      48809.388      36.545546      36.545546      36.545546      1.2265288      1609.6847     -630.4447       971.54071    
     49000   49000          295.04911      895.51703      16798.068      16153.765      3974.3943      12179.371      2145.394       3651.4478     -4107.076       148.61443     -2461.2566      44790.666     -31988.419     -383.35805      49333.367      36.675855      36.675855      36.675855      1.2135017      77.272846     -450.2605       3059.5387    
     50000   50000          299.4438      -844.66953      15794.957      16402.113      4033.592       12368.521      2085.8171      3765.7137     -4049.1772      152.52678     -2457.2044      44859.312     -31988.466     -383.71396      49287.609      36.664513      36.664513      36.664513      1.2146283     -1627.1562     -957.89307      51.04072     
     51000   51000          301.10354     -165.5291       16253.686      16371.955      4055.9491      12316.006      2132.6474      3751.6322     -4078.181       145.622       -2483.3067      44827.875     -31980.283     -386.03109      48991.762      36.591006      36.591006      36.591006      1.221963      -12.077077     -2093.7211      1609.2109    
     52000   52000          300.31129     -740.39652      15858.981      16389.981      4045.2774      12344.704      2095.524       3789.4516     -4078.1392      138.17501     -2465.7825      44837.933     -31972.458     -384.58373      49176.14       36.636852      36.636852      36.636852      1.2173815     -879.909       -2028.6602      687.37965    
     53000   53000          301.81755     -712.33102      15862.913      16374.954      4065.5671      12309.387      2173.7227      3713.5528     -4075.2635      148.38985     -2475.744       44810.466     -31985.736     -383.7053       49288.721      36.664788      36.664788      36.664788      1.2146009     -169.64199     -1461.4536     -505.89747    
     54000   54000          302.74982     -101.27369      16382.385      16455.193      4078.125       12377.068      2179.5445      3772.104      -4095.224       152.48449     -2478.3777      44829.28      -31982.743     -383.64828      49296.047      36.666605      36.666605      36.666605      1.2144203     -1774.2016      89.101263      1381.2793    
     55000   55000          302.0277      -1487.8947      15252.111      16318.366      4068.3978      12249.968      2152.818       3667.5064     -4097.0626      177.08667     -2522.6384      44857.486     -31985.228     -384.88604      49137.514      36.627257      36.627257      36.627257      1.2183384     -1171.7448     -1149.7582     -2142.1811    
     56000   56000          298.75381      1402.5278      17343.995      16342.632      4024.2976      12318.334      2085.5446      3811.8712     -4082.2496      160.26921     -2493.0623      44818.612     -31982.651     -386.31461      48955.807      36.582053      36.582053      36.582053      1.2228605      1049.414       1222.1362      1936.0331    
     57000   57000          306.2271       146.93719      16506.578      16401.985      4124.965       12277.02       2214.195       3684.3369     -4087.5666      139.73185     -2502.8972      44813.337     -31984.117     -387.48294      48808.196      36.545249      36.545249      36.545249      1.2265588     -1773.095       169.19254      2044.714     
     58000   58000          301.98062     -474.47258      16056.203      16394.977      4067.7637      12327.213      2175.0832      3720.0459     -4080.4763      155.02952     -2461.581       44800.717     -31981.605     -386.29839      48957.862      36.582565      36.582565      36.582565      1.2228092     -895.54702     -183.05918     -344.81154    
     59000   59000          298.57616      660.96321      16826.843      16353.828      4021.9047      12331.923      2172.4912      3703.6586     -4075.8997      165.20025     -2492.6625      44842.854     -31983.719     -385.4109       49070.598      36.610623      36.610623      36.610623      1.2199998     -156.96846      1087.2633      1052.5949    
     60000   60000          303.91911     -495.12594      16044.498      16399.71       4093.8757      12305.835      2135.652       3705.8286     -4109.2328      148.23893     -2445.9613      44846.847     -31975.537     -384.45767      49192.265      36.640856      36.640856      36.640856      1.2169824     -1057.0843     -987.43312      559.13965    
     61000   61000          298.18636     -995.5837       15570.312      16286.013      4016.6539      12269.359      2142.2303      3807.0666     -4117.4012      155.60966     -2529.7465      44795.216     -31983.615     -383.67843      49292.173      36.665644      36.665644      36.665644      1.2145158     -1735.3584      179.91997     -1431.3126    
     62000   62000          299.43562      189.42984      16480.898      16345.227      4033.4818      12311.745      2104.0666      3811.2037     -4121.3259      161.99028     -2490.6135      44829.642     -31983.218     -385.10779      49109.22       36.620225      36.620225      36.620225      1.2190404     -257.87255     -538.3948       1364.5569    
     63000   63000          297.07112      479.64206      16678.766      16335.163      4001.6313      12333.531      2050.886       3746.0278     -4061.3943      172.47779     -2424.2744      44831.975     -31982.166     -385.01787      49120.69       36.623076      36.623076      36.623076      1.2187557      1518.5512     -1236.968       1157.343     
     64000   64000          302.39847     -364.97659      16206.178      16468.562      4073.3923      12395.169      2199.5433      3769.2576     -4096.5552      153.10151     -2496.294       44846.838     -31980.722     -383.66224      49294.252      36.66616       36.66616       36.66616       1.2144646     -1282.8182      195.4868      -7.598353     
     65000   65000          300.10555     -664.29644      15893.526      16371.598      4042.506       12329.092      2118.6515      3719.1117     -4055.1225      157.37387     -2493.0349      44869.093     -31986.981     -383.25681      49346.399      36.679085      36.679085      36.679085      1.2131812      824.63189     -1778.7455     -1038.7757    
     66000   66000          298.0314       834.02637      16877.798      16279.846      4014.5666      12265.28       2050.2014      3827.9116     -4100.3856      139.71624     -2510.5073      44839.086     -31980.742     -384.71141      49159.82       36.632798      36.632798      36.632798      1.2177856      1366.9648      178.65563      956.45868    
     67000   67000          296.63268     -2560.2011      14443.631      16273.345      3995.7254      12277.62       2190.0232      3699.3978     -4082.9201      142.52786     -2504.8934      44816.688     -31983.204     -385.93313      49004.197      36.594102      36.594102      36.594102      1.221653      -1125.0888     -3510.4459     -3045.0686    
     68000   68000          300.68594     -1841.7909      15112.013      16428.981      4050.324       12378.657      2192.1159      3795.9051     -4088.918       136.91113     -2498.6921      44831.156     -31989.821     -385.73274      49029.656      36.600438      36.600438      36.600438      1.2210186     -2520.7213     -633.64521     -2371.0062    
     69000   69000          306.25211     -740.79832      15965.858      16498.154      4125.3019      12372.852      2142.4344      3809.396      -4077.5427      149.08683     -2504.8719      44833.271     -31978.922     -383.85589      49269.385      36.659993      36.659993      36.659993      1.2150775     -1499.9485     -1516.7285      794.2821     
     70000   70000          295.16705     -2.7708903      16321.697      16323.688      3975.9831      12347.705      2245.5182      3715.7572     -4095.7843      144.5479      -2513.1117      44823.435     -31972.657     -383.87639      49266.753      36.65934       36.65934       36.65934       1.2151424     -1299.2752      1018.4174      272.54509    
     71000   71000          303.06076      127.56599      16553.012      16461.291      4082.3134      12378.977      2133.7666      3751.447      -4081.8939      157.25044     -2450.0075      44846.603     -31978.189     -383.60646      49301.42       36.667937      36.667937      36.667937      1.214288      -509.99788      1215.7801     -323.08424    
     72000   72000          298.54889     -764.97777      15778.735      16327.872      4021.5373      12306.334      2065.3304      3793.4878     -4090.661       135.26268     -2443.5296      44830.828     -31984.384     -384.22833      49221.627      36.648144      36.648144      36.648144      1.2162565      1976.032      -2455.7718     -1815.1935    
     73000   73000          294.29391     -936.88132      15627.085      16301.602      3964.2215      12337.38       2182.345       3725.2288     -4090.0707      157.5539      -2454.1422      44795.462     -31978.997     -383.10096      49366.474      36.684058      36.684058      36.684058      1.2126878     -555.66506     -1417.9509     -837.02801    
     74000   74000          302.80343     -1383.7188      15392.559      16385.76       4078.8472      12306.913      2112.2172      3811.1657     -4105.7184      141.84659     -2502.1754      44826.183     -31976.606     -384.26612      49216.786      36.646943      36.646943      36.646943      1.2163761     -1847.7745     -2174.4914     -128.89062    
     75000   75000          299.14706     -1601.9459      15239.394      16391.674      4029.5948      12362.079      2184.4416      3800.1258     -4119.6512      158.24878     -2533.9626      44859.314     -31986.437     -383.45229      49321.243      36.672851      36.672851      36.672851      1.2138        -2217.6673     -1332.2223     -1255.9481    
     76000   76000          301.49445      1396.7941      17460.184      16463.696      4061.2148      12402.481      2100.9865      3809.537      -4058.8201      154.55164     -2463.4169      44850.694     -31991.051     -386.61734      48917.473      36.572502      36.572502      36.572502      1.2238188      2508.2961      300.6269       1381.4593    
     77000   77000          293.28114     -2077.5094      14861.836      16349.211      3950.5793      12398.632      2304.0315      3685.1121     -4092.7283      149.28771     -2442.7219      44778.925     -31983.275     -385.25097      49090.969      36.615688      36.615688      36.615688      1.2194936     -3211.7147     -1546.4696     -1474.3437    
     78000   78000          302.39381      361.33314      16694.749      16436.366      4073.3294      12363.036      2164.121       3752.6647     -4075.7315      151.31626     -2438.9469      44801.399     -31991.786     -385.71299      49032.167      36.601063      36.601063      36.601063      1.2209561      1017.0202      545.86891     -478.88972    
     79000   79000          297.72276     -995.45552      15585.432      16301.493      4010.4092      12291.084      2090.6652      3759.6008     -4062.902       146.52588     -2502.3129      44844.954     -31985.447     -383.43604      49323.333      36.673369      36.673369      36.673369      1.2137485     -996.16408     -2215.83        225.62749    
     80000   80000          300.80181      819.53454      17001.96       16415.091      4051.8847      12363.206      2189.9168      3715.4874     -4092.9736      155.037       -2497.1705      44872.242     -31979.333     -385.16532      49101.885      36.618402      36.618402      36.618402      1.2192225      1486.6749     -163.52334      1135.4521    
     81000   81000          296.82664      221.39352      16516.476      16357.54       3998.3382      12359.202      2174.0595      3730.025      -4098.7892      153.63401     -2475.3532      44849.928     -31974.303     -384.20589      49224.501      36.648858      36.648858      36.648858      1.2161854     -575.96208      1092.628       147.51467    
     82000   82000          295.78875      209.51921      16428.342      16277.479      3984.3575      12293.122      2110.1873      3710.932      -4135.4231      152.04265     -2410.1079      44846.48      -31980.989     -383.05688      49372.155      36.685465      36.685465      36.685465      1.2125483      1260.5824     -1336.0348      704.01003    
     83000   83000          298.86369      29.642963      16388.311      16367.08       4025.7777      12341.302      2154.839       3742.3131     -4074.6071      150.22146     -2465.8796      44819.02      -31984.605     -385.0939       49110.992      36.620666      36.620666      36.620666      1.2189964     -1647.09        158.81562      1577.2033    
     84000   84000          300.84175      578.81923      16723.319      16307.654      4052.4227      12255.231      2146.4878      3749.2625     -4127.2222      145.5521      -2545.3588      44863.926     -31977.416     -384.07907      49240.755      36.652891      36.652891      36.652891      1.215784      -1288.3254      1419.5139      1605.2692    
     85000   85000          297.83853     -760.39665      15833.793      16380.24       4011.9685      12368.271      2131.8262      3762.0047     -4075.3509      139.97909     -2421.5284      44805.048     -31973.707     -383.80774      49275.566      36.661526      36.661526      36.661526      1.2149251     -1998.1464      136.65712     -419.70068    
     86000   86000          297.01073      973.79         17016.715      16320.065      4000.8179      12319.247      2131.3632      3698.3646     -4068.2639      158.8325      -2484.6496      44876.06      -31992.459     -385.54234      49053.869      36.606462      36.606462      36.606462      1.2204159      1065.9055      370.98078      1484.4838    
     87000   87000          303.35396     -1150.085       15574.225      16402.432      4086.2629      12316.169      2182.0203      3759.423      -4120.1712      158.07042     -2501.5171      44817.398     -31979.055     -383.01211      49377.926      36.686894      36.686894      36.686894      1.2124066     -1975.9173     -356.17134     -1118.1664    
     88000   88000          298.885       -127.56687      16300.854      16392.704      4026.0648      12366.639      2190.2697      3744.2103     -4074.7508      140.67421     -2488.0442      44836.112     -31981.831     -383.07031      49370.424      36.685036      36.685036      36.685036      1.2125908     -1056.1431      1364.1085     -690.66599    
     89000   89000          301.33871      1479.4827      17495.732      16438.178      4059.117       12379.061      2138.3822      3796.2722     -4133.8117      141.87126     -2481.0909      44886.796     -31969.358     -385.85912      49013.598      36.596442      36.596442      36.596442      1.2214187      576.97312      611.28619      3250.1889    
     90000   90000          299.67422     -973.9405       15654.461      16354.373      4036.6958      12317.677      2163.4795      3681.5993     -4092.9741      143.60044     -2458.355       44857.329     -31977.002     -383.80475      49275.949      36.661621      36.661621      36.661621      1.2149157     -1600.9736     -797.74549     -523.10238    
     91000   91000          298.0052      -303.93304      16103.727      16323.302      4014.2137      12309.088      2190.9904      3748.6874     -4158.3201      150.5009      -2484.1958      44842.437     -31981.011     -381.78194      49537.029      36.726256      36.726256      36.726256      1.2085126     -645.29187     -626.30167      359.79442    
     92000   92000          300.56049     -1346.749       15352.957      16315.181      4048.6341      12266.547      2123.6827      3700.3742     -4086.6965      169.37753     -2523.4897      44867.289     -31983.99      -386.03944      48990.703      36.590743      36.590743      36.590743      1.2219895     -2741.4694     -2563.9719      1265.1942    
     93000   93000          299.03897     -196.58529      16283.574      16424.181      4028.1388      12396.042      2182.8818      3726.4728     -4051.4658      176.5911      -2521.91        44863.657     -31980.185     -385.62551      49043.289      36.60383       36.60383       36.60383       1.2206792     -135.6231      -1013.3484      559.21562    
     94000   94000          294.78008      1642.1187      17437.58       16268.458      3970.7703      12297.688      2044.5464      3684.8116     -4033.4756      150.55319     -2452.8049      44890.319     -31986.262     -387.40555      48817.946      36.547682      36.547682      36.547682      1.2263138     -62.432996      2225.0046      2763.7846    
     95000   95000          298.58418     -1801.0963      15032.152      16325.299      4022.0127      12303.286      2123.9114      3753.8133     -4064.2698      148.06628     -2497.9124      44822.005     -31982.328     -384.15842      49230.584      36.650367      36.650367      36.650367      1.2160352     -2469.4702     -1153.3544     -1780.4645    
     96000   96000          299.53477      1080.5603      17252.318      16482.435      4034.8174      12447.618      2183.9638      3842.6481     -4117.9662      144.46153     -2471.1413      44848.385     -31982.733     -387.11998      48853.959      36.556667      36.556667      36.556667      1.2254098     -451.59742      2986.8         706.47823    
     97000   97000          296.15283     -1312.0634      15396.065      16335.406      3989.2617      12346.145      2212.6128      3674.685      -4094.074       156.64583     -2487.3437      44863.577     -31979.958     -385.25864      49089.992      36.615445      36.615445      36.615445      1.2195179     -1322.8594     -512.36471     -2100.966     
     98000   98000          300.90555     -28.071653      16371.965      16391.962      4053.2822      12338.679      2145.3062      3774.4357     -4110.8735      154.82547     -2473.1153      44837.877     -31989.777     -387.20719      48842.955      36.553922      36.553922      36.553922      1.2256859      1270.1299     -744.50064     -609.8442     
     99000   99000          301.6438       153.70041      16386.868      16277.429      4063.2267      12214.203      2125.8143      3697.3166     -4113.4393      138.10662     -2501.0951      44846.774     -31979.274     -387.36896      48822.558      36.548832      36.548832      36.548832      1.226198      -614.1602       451.8064       623.45502    
    100000   100000         296.94391     -652.71697      15881.736      16349.826      3999.9178      12349.908      2164.6554      3767.3268     -4070.5171      138.01114     -2495.6108      44824.335     -31978.292     -384.60618      49173.27       36.636139      36.636139      36.636139      1.2174525     -2382.3895     -647.61867      1071.8573    
    101000   101000         296.47231      1028.4785      17087.038      16348.743      3993.5653      12355.177      2134.8856      3768.3024     -4108.7119      136.34178     -2400.8635      44809.61      -31984.387     -384.22574      49221.958      36.648226      36.648226      36.648226      1.2162483      2406.0171     -684.09187      1363.5104    
    102000   102000         304.48857      2810.7273      18483.831      16488.93       4101.5465      12387.383      2176.0906      3749.8999     -4072.573       147.14182     -2469.1372      44838.63      -31982.669     -388.61417      48666.119      36.509754      36.509754      36.509754      1.2301397      3358.7388      2863.7426      2209.7004    
    103000   103000         301.39884      842.13689      17023.77       16425.232      4059.927       12365.305      2112.8068      3798.5669     -4098.3361      157.6542      -2452.0795      44832.654     -31985.962     -388.07185      48734.129      36.526753      36.526753      36.526753      1.228423       271.11282      1485.7846      769.51326    
    104000   104000         300.74945      672.53626      16855.156      16375.776      4051.1796      12324.596      2153.6432      3796.6783     -4096.5671      141.38475     -2492.2988      44807.896     -31986.14      -386.95143      48875.238      36.561973      36.561973      36.561973      1.2248763     -332.96637      1557.0914      793.48375    
    105000   105000         300.22921      807.30512      16908.273      16331.391      4044.1717      12287.219      2190.713       3690.6446     -4115.6224      164.67005     -2477.721       44820.493     -31985.958     -385.98658      48997.411      36.592413      36.592413      36.592413      1.2218221     -623.67731      436.5382       2609.0545    
    106000   106000         300.42799      902.15535      16935.632      16288.612      4046.8493      12241.762      2134.8052      3734.8848     -4086.2257      129.20531     -2520.2196      44839.463     -31990.151     -384.57809      49176.862      36.637031      36.637031      36.637031      1.2173636     -544.28905      2554.052       696.70309    
    107000   107000         300.36916     -359.57685      16182.581      16439.868      4046.0569      12393.811      2244.8998      3755.5923     -4133.3742      143.95835     -2445.5137      44814.371     -31986.122     -385.47429      49062.529      36.608616      36.608616      36.608616      1.2202005     -647.83038      453.31985     -884.22003    
    108000   108000         297.52007      835.46729      16833.165      16235.268      4007.6788      12227.589      2111.2273      3675.5058     -4095.7461      134.04952     -2485.5437      44869.836     -31981.74      -385.41139      49070.536      36.610607      36.610607      36.610607      1.2200014      3.7837194      15.091551      2487.5266    
    109000   109000         295.21452     -964.87656      15566.814      16257.365      3976.6225      12280.742      2171.3639      3728.6039     -4063.1881      146.42534     -2549.1416      44831.696     -31985.017     -385.38745      49073.584      36.611365      36.611365      36.611365      1.2199256     -1422.7266     -247.22817     -1224.6749    
    110000   110000         299.73887     -792.69562      15805.854      16376.994      4037.5667      12339.428      2226.5057      3754.5705     -4171.1113      136.8555      -2468.4629      44839.685     -31978.615     -382.81175      49403.769      36.693294      36.693294      36.693294      1.2117724      632.4423      -1441.922      -1568.6072    
    111000   111000         295.10988      373.12091      16537.251      16269.233      3975.2129      12294.02       2079.6681      3741.8731     -4084.3966      165.68089     -2493.7873      44865.577     -31980.595     -383.97805      49253.709      36.656105      36.656105      36.656105      1.2154642      10.781966      519.04994      589.53082    
    112000   112000         296.09417     -302.07355      16061.781      16275.42       3988.4716      12286.949      2190.879       3741.8732     -4098.5119      133.23418     -2515.667       44817.67      -31982.529     -389.98984      48494.451      36.466774      36.466774      36.466774      1.2344943     -1716.6109     -310.85575      1121.246     
    113000   113000         300.80261      696.98701      16954.639      16457.332      4051.8956      12405.437      2167.801       3789.8769     -4063.3254      149.2133      -2477.8848      44825.089     -31985.334     -386.56397      48924.227      36.574185      36.574185      36.574185      1.2236498      1113.5911     -394.17351      1371.5434    
    114000   114000         300.87133      623.74703      16851.839      16406.329      4052.8213      12353.507      2214.1866      3752.3921     -4104.8292      143.9181      -2488.9745      44825.233     -31988.419     -386.16458      48974.827      36.58679       36.58679       36.58679       1.2223856      2617.0711      273.02572     -1018.8557    
    115000   115000         293.67698     -972.72554      15550.08       16246.014      3955.9113      12290.103      2176.7807      3704.2251     -4097.9977      157.60493     -2518.8063      44854.269     -31985.973     -385.51721      49057.067      36.607257      36.607257      36.607257      1.2203364     -1401.9396     -1203.9763     -312.26065    
    116000   116000         300.08808      474.10051      16679.333      16340.791      4042.2707      12298.521      2161.0598      3795.1557     -4148.1373      136.94981     -2516.6884      44847.163     -31976.982     -386.26032      48962.688      36.583767      36.583767      36.583767      1.2226886      597.101        613.04906      212.15146    
    117000   117000         296.40952      248.18771      16486.824      16308.827      3992.7195      12316.108      2100.322       3768.1791     -4043.8042      161.5298      -2543.0218      44858.327     -31985.425     -384.58281      49176.258      36.636881      36.636881      36.636881      1.2173786      1071.8884      1394.3313     -1721.6566    
    118000   118000         299.55303     -198.51801      16137.689      16279.658      4035.0634      12244.595      2076.873       3697.8156     -4081.6716      145.31448     -2506.9625      44894.634     -31981.408     -385.68056      49036.289      36.602088      36.602088      36.602088      1.2208535     -1756.4943      916.89117      244.04913    
    119000   119000         304.33604      481.6779       16772.659      16429.393      4099.4919      12329.901      2153.994       3862.4985     -4154.4163      174.67221     -2519.0322      44803.339     -31991.155     -387.03235      48865.019      36.559425      36.559425      36.559425      1.2251325     -826.42977      658.3383       1613.1252    
    120000   120000         302.36176     -411.66547      16231.602      16526.862      4072.8978      12453.964      2199.3925      3754.8224     -4072.042       147.09425     -2424.8956      44829.504     -31979.911     -384.55753      49179.491      36.637684      36.637684      36.637684      1.2172985      489.72501      112.50771     -1837.2291    
    121000   121000         301.97774      270.08886      16515.955      16324.021      4067.7249      12256.296      2095.6615      3763.8867     -4083.8697      159.58114     -2562.3139      44862.797     -31979.447     -388.12877      48726.982      36.524967      36.524967      36.524967      1.2286031     -173.56305      189.36072      794.46891    
    122000   122000         302.89516      860.33109      17010.522      16393.626      4080.0828      12313.543      2130.5245      3760.4484     -4084.9976      155.91705     -2498.4247      44836.474     -31986.399     -384.65775      49166.677      36.634501      36.634501      36.634501      1.2176158     -548.29214      2561.9252      567.36026    
    123000   123000         296.06035      515.45575      16652.009      16285.187      3988.0159      12297.171      2125.0127      3798.0381     -4110.6114      158.43065     -2543.755       44858.58      -31988.524     -387.57682      48796.374      36.542298      36.542298      36.542298      1.226856      -409.56709      709.38563      1246.5487    
    124000   124000         301.30434     -2076.4133      14904.454      16385.851      4058.6541      12327.197      2160.3514      3668.3194     -4046.148       149.49428     -2442.2145      44816.898     -31979.503     -386.60144      48919.486      36.573003      36.573003      36.573003      1.2237684     -2292.1418     -2311.9305     -1625.1676    
    125000   125000         291.78961      562.70474      16652.175      16249.54       3930.488       12319.052      2152.8568      3751.4134     -4110.8704      133.69766     -2476.5919      44850.101     -31981.554     -385.46985      49063.094      36.608756      36.608756      36.608756      1.2201865     -1157.7857      1346.3622      1499.5377    
    126000   126000         299.38428     -805.46678      15801.757      16377.514      4032.7903      12344.724      2199.3199      3744.1029     -4111.3797      142.49351     -2477.6823      44834.125     -31986.255     -385.8595       49013.549      36.59643       36.59643       36.59643       1.2214199     -1557.447      -338.26931     -520.68399    
    127000   127000         295.49873      551.84044      16746.402      16349.252      3980.4508      12368.801      2163.3614      3740.043      -4116.5468      166.28281     -2429.3769      44835.513     -31990.475     -383.24882      49347.428      36.67934       36.67934       36.67934       1.2131559     -325.79045      630.31549      1350.9963    
    128000   128000         294.07958      483.46917      16562.385      16218.765      3961.3345      12257.431      2124.2345      3682.0187     -4083.2715      142.45309     -2497.8719      44868.085     -31978.218     -388.07201      48734.108      36.526748      36.526748      36.526748      1.2284235     -1912.518       2609.7627      753.16281    
    129000   129000         305.53651     -128.66725      16352.684      16444.005      4115.6625      12328.342      2178.1922      3641.9205     -4083.9486      170.85976     -2447.927       44855.463     -31986.218     -388.61679      48665.791      36.509672      36.509672      36.509672      1.2301479      350.27501     -623.69717     -112.57959    
    130000   130000         302.35922     -718.66797      15945.322      16459.836      4072.8635      12386.972      2198.1119      3755.724      -4072.4055      140.16445     -2511.3221      44853.939     -31977.239     -385.25859      49089.998      36.615447      36.615447      36.615447      1.2195177     -502.52795     -210.69999     -1442.776     
    131000   131000         299.66165      790.86857      16859.086      16296.673      4036.5265      12260.146      2170.7204      3722.0617     -4105.8906      130.43761     -2506.22        44835.286     -31986.249     -387.85571      48761.287      36.533537      36.533537      36.533537      1.2277388      111.8597       693.78587      1566.9601    
    132000   132000         301.54476     -56.212746      16368.261      16408.567      4061.8925      12346.675      2142.7921      3735.5016     -4129.6724      147.9557      -2456.483       44884.603     -31978.023     -384.66349      49165.944      36.634319      36.634319      36.634319      1.217634      -220.38553     -345.96624      397.71353    
    133000   133000         303.45987     -372.84943      16091.446      16358.755      4087.6896      12271.066      2058.0533      3724.1774     -4066.1964      149.89511     -2485.6579      44876.77      -31985.976     -384.7157       49159.271      36.632662      36.632662      36.632662      1.2177992     -1464.9862      679.58838     -333.15044    
    134000   134000         300.30818      856.19808      16986.287      16377.005      4045.2354      12331.77       2244.7184      3719.9258     -4113.5259      143.09556     -2504.4976      44826.406     -31984.353     -387.59425      48794.18       36.54175       36.54175       36.54175       1.2269111      1877.5918      1621.3883     -930.38587    
    135000   135000         295.01733     -0.63508808     16296.017      16296.469      3973.9662      12322.503      2168.4434      3782.2148     -4135.3724      136.35394     -2478.6255      44832.586     -31983.097     -387.37697      48821.548      36.548581      36.548581      36.548581      1.2262234      88.387288     -1065.1465      974.85391    
    136000   136000         296.08013      1427.571       17290.408      16272.834      3988.2824      12284.552      2129.977       3687.3702     -4081.806       141.46313     -2453.1315      44849.495     -31988.816     -386.9484       48875.622      36.562069      36.562069      36.562069      1.2248667      2990.7881     -344.34169      1636.2665    
    137000   137000         299.27813     -539.86398      16001.336      16386.182      4031.3603      12354.821      2143.3286      3763.6867     -4048.2889      151.33953     -2516.5044      44845.522     -31984.262     -386.91856      48879.39       36.563009      36.563009      36.563009      1.2247723     -1775.3152     -868.60206      1024.3253    
    138000   138000         299.80905      94.482759      16350.902      16283.749      4038.512       12245.237      2156.5048      3715.1223     -4090.5874      145.40636     -2510.112       44823.761     -31994.859     -388.06868      48734.527      36.526853      36.526853      36.526853      1.2284129     -1721.2972      801.186        1203.5595    
    139000   139000         307.48827      318.09389      16708.49       16480.501      4141.9533      12338.548      2165.0659      3785.0842     -4101.392       135.72638     -2479.6499      44822.626     -31988.912     -384.82395      49145.443      36.629227      36.629227      36.629227      1.2181419      1374.7535     -547.227        126.75516    
    140000   140000         299.05294     -205.41246      16160.121      16306.55       4028.327       12278.223      2200.5187      3710.9178     -4143.0441      141.05861     -2494.0316      44842.087     -31979.283     -386.92014      48879.192      36.562959      36.562959      36.562959      1.2247773     -288.47899     -815.99027      488.23187    
    141000   141000         299.74391      666.38976      16793.132      16316.329      4037.6345      12278.694      2125.1029      3739.7188     -4130.127       160.3176      -2433.5058      44812.562     -31995.374     -385.48799      49060.785      36.608182      36.608182      36.608182      1.2202439      978.43452     -662.97964      1683.7144    
    142000   142000         302.71531     -89.379205      16353.766      16417.965      4077.6601      12340.305      2139.2167      3827.0899     -4073.4796      151.37319     -2555.7679      44839.674     -31987.801     -383.99681      49251.304      36.655508      36.655508      36.655508      1.2155236     -202.9376       518.39314     -583.59315    
    143000   143000         297.15802     -277.13386      16086.899      16285.15       4002.8019      12282.348      2134.1173      3735.5426     -4105.1067      146.42143     -2495.1732      44846.463     -31979.916     -385.56205      49051.362      36.605838      36.605838      36.605838      1.2204783      275.1406      -1539.8297      433.2875     
    144000   144000         304.60253     -468.30027      16166.072      16501.674      4103.0816      12398.593      2151.7697      3784.232      -4056.4858      148.42163     -2488.9936      44840.413     -31980.765     -384.87626      49138.763      36.627567      36.627567      36.627567      1.2183075     -916.51714     -2697.8442      2209.4605    
    145000   145000         296.21549      198.14454      16428.143      16286.486      3990.1058      12296.381      2119.1196      3742.1151     -4100.7581      148.69901     -2485.13        44849.446     -31977.111     -385.80361      49020.649      36.598197      36.598197      36.598197      1.221243      -507.95865      1662.54       -560.14771    
    146000   146000         298.23115      372.32261      16579.32       16313.058      4017.2573      12295.801      2121.3071      3709.4242     -4092.9723      132.26647     -2438.0125      44842.728     -31978.941     -385.68356      49035.908      36.601994      36.601994      36.601994      1.2208629      246.16801     -308.77649      1179.5763    
    147000   147000         300.8889       718.54313      16871.678      16357.301      4053.0579      12304.243      2156.415       3726.9135     -4127.6896      164.18717     -2459.2563      44826.13      -31982.457     -385.29402      49085.484      36.614325      36.614325      36.614325      1.2196299      14.019363      1842.7598      298.85025    
[...]
   1955000   1955000        297.7576      -163.78733      16323.136      16439.748      4010.8784      12428.87       2130.8994      3824.0017     -4070.5465      155.54543     -2440.288       44821.236     -31991.978     -387.39833      48818.856      36.547909      36.547909      36.547909      1.226291      -581.2024       163.88538     -74.04497     
   1956000   1956000        303.49911      551.09068      16860.568      16467.357      4088.2181      12379.139      2085.1161      3764.7102     -4020.5278      155.06241     -2529.5689      44911.161     -31986.813     -386.56157      48924.53       36.574261      36.574261      36.574261      1.2236422      698.62645      784.96387      169.68172    
   1957000   1957000        306.47891      410.67708      16719.535      16425.555      4128.357       12297.198      2142.44        3726.5113     -4116.9835      147.14031     -2482.9854      44863.912     -31982.837     -385.30396      49084.218      36.61401       36.61401       36.61401       1.2196613      110.53158      461.98886      659.5108     
   1958000   1958000        302.73238     -707.46766      15907.222      16414.992      4077.8901      12337.102      2161.181       3779.9214     -4106.3429      143.33815     -2480.5114      44820.486     -31980.97      -384.29134      49213.556      36.646141      36.646141      36.646141      1.2164559     -2098.8714      609.59927     -633.13085    
   1959000   1959000        296.31392      927.31732      16997.658      16333.866      3991.4317      12342.435      2079.5672      3774.7676     -4080.0774      164.22409     -2456.0402      44843.537     -31983.544     -385.31693      49082.565      36.613599      36.613599      36.613599      1.2197024      113.49211      66.590709      2601.8691    
   1960000   1960000        298.0638      -412.46436      16104.683      16399.081      4015.003       12384.078      2168.8238      3798.8154     -4155.9404      154.00117     -2443.8038      44846.036     -31983.854     -386.43224      48940.905      36.57834       36.57834       36.57834       1.2232329     -876.48228     -1375.6813      1014.7705    
   1961000   1961000        299.1121       920.83462      17048.16       16389.641      4029.1239      12360.517      2128.7889      3816.5035     -4089.9858      147.613       -2506.6851      44843.741     -31979.458     -385.68635      49035.552      36.601905      36.601905      36.601905      1.2208718     -524.77355      2362.0453      925.23212    
   1962000   1962000        298.6041       1494.1865      17389.336      16314.768      4022.2811      12292.487      2145.5568      3737.8963     -4105.4548      137.36407     -2472.3742      44828.247     -31978.748     -383.52358      49312.074      36.670578      36.670578      36.670578      1.2140256      1466.8507      55.028847      2960.68      
   1963000   1963000        295.09648      153.208        16406.324      16296.238      3975.0324      12321.205      2103.379       3799.6512     -4101.712       144.89308     -2501.3759      44849.245     -31972.875     -383.8575       49269.177      36.659942      36.659942      36.659942      1.2150826     -88.274648     -553.55456      1101.4532    
   1964000   1964000        304.38965      10.175663      16540.675      16533.424      4100.2139      12433.21       2174.8196      3789.2445     -4083.5482      165.70194     -2454.784       44828.141     -31986.365     -387.08818      48857.972      36.557667      36.557667      36.557667      1.2253092      347.76814     -1472.8313      1155.5901    
   1965000   1965000        299.94545      2457.6825      18065.93       16306.012      4040.3494      12265.662      2094.5528      3649.5182     -4084.6455      160.14462     -2449.5133      44872.048     -31976.442     -385.17186      49101.051      36.618195      36.618195      36.618195      1.2192432      3181.6002      2141.1895      2050.2579    
   1966000   1966000        302.45332      929.46058      17021.988      16356.248      4074.1311      12282.117      2155.3931      3692.4196     -4086.4884      167.94038     -2447.2732      44790.084     -31989.959     -385.07708      49113.137      36.621199      36.621199      36.621199      1.2189432      134.41697      1854.7607      799.20404    
   1967000   1967000        302.17791      1066.6879      17184.084      16421.948      4070.4212      12351.527      2068.9482      3757.8726     -4060.5152      143.91741     -2437.1168      44859.122     -31980.701     -386.03433      48991.351      36.590904      36.590904      36.590904      1.2219733      2400.506       1578.1481     -778.5904     
   1968000   1968000        298.71097      1369.5541      17290.211      16314.22       4023.7206      12290.499      2137.0913      3741.7452     -4121.863       137.04353     -2421.2421      44799.996     -31982.272     -387.0388       48864.205      36.559222      36.559222      36.559222      1.2251529      3103.6283      2229.993      -1224.959     
   1969000   1969000        307.99885      222.74453      16666.915      16508.814      4148.8309      12359.983      2104.1481      3743.7187     -4058.4864      149.49013     -2475.2344      44869.707     -31973.36      -388.59087      48669.037      36.510484      36.510484      36.510484      1.2300659      1544.1359     -700.79778     -175.10452    
   1970000   1970000        300.25866      194.90978      16499.305      16360.665      4044.5685      12316.097      2161.7874      3747.6585     -4109.3772      153.2659      -2471.67        44819.741     -31985.309     -387.76296      48772.949      36.536449      36.536449      36.536449      1.2274452     -213.28147      32.507357      765.50344    
   1971000   1971000        297.25744      8.6774902      16364.052      16357.834      4004.1411      12353.693      2240.04        3745.513      -4100.6928      142.82791     -2519.6257      44825.174     -31979.544     -384.88595      49137.526      36.62726       36.62726       36.62726       1.2183382     -703.59984     -850.04234      1579.6747    
   1972000   1972000        297.4407      -135.26962      16162.062      16258.286      4006.6096      12251.676      2107.4119      3766.3576     -4084.5244      132.04488     -2520.5621      44838.002     -31987.054     -387.73972      48775.873      36.537179      36.537179      36.537179      1.2273716      1167.0181     -1185.9886     -386.83832    
   1973000   1973000        299.48867      796.99049      16943.138      16374.42       4034.1964      12340.224      2110.2659      3782.5249     -4063.1884      147.88781     -2488.7048      44835.986     -31984.547     -386.52517      48929.138      36.575409      36.575409      36.575409      1.223527       227.28297     -410.90705      2574.5955    
   1974000   1974000        299.67894     -332.62894      16134.33       16372.055      4036.7595      12335.296      2159.4039      3822.0843     -4115.3618      152.41774     -2526.2429      44826.971     -31983.977     -385.92775      49004.881      36.594272      36.594272      36.594272      1.2216359     -1027.7646      708.86165     -678.98388    
   1975000   1975000        297.47795      876.7391       16940.291      16314.672      4007.1115      12307.56       2062.5654      3756.6897     -4050.4643      150.67844     -2482.3852      44854.503     -31984.028     -386.52815      48928.761      36.575315      36.575315      36.575315      1.2235364      2695.9009      419.90722     -485.59084    
   1976000   1976000        294.61208     -364.88779      16200.58       16460.411      3968.5074      12491.904      2232.1313      3860.5226     -4091.6134      139.29784     -2482.377       44824.893     -31990.95      -387.33763      48826.507      36.549818      36.549818      36.549818      1.2260988     -186.8253      -125.88292     -781.95516    
   1977000   1977000        306.88029      816.30384      17005.665      16421.726      4133.7636      12287.962      2102.4504      3681.6106     -4056.1624      132.95334     -2463.7452      44875.348     -31984.492     -385.57243      49050.041      36.60551       36.60551       36.60551       1.2205112      3380.4728     -439.30761     -492.25367    
   1978000   1978000        296.05216     -1391.7972      15244.753      16247.947      3987.9057      12260.041      2161.5512      3702.4503     -4142.6865      141.95499     -2463.1138      44838.4       -31978.514     -382.65911      49423.477      36.698172      36.698172      36.698172      1.2112892     -1762.626      -1274.5579     -1138.2077    
   1979000   1979000        301.49103      421.82353      16681.709      16377.862      4061.1688      12316.694      2164.199       3706.5592     -4095.4386      156.77177     -2472.22        44839.662     -31982.84      -382.9113       49390.926      36.690113      36.690113      36.690113      1.2120875     -39.758864      460.78342      844.44605    
   1980000   1980000        302.99719     -506.04409      16010.263      16373.214      4081.4572      12291.756      2119.7094      3747.1911     -4070.2482      165.00609     -2510.5054      44821.817     -31981.214     -384.55848      49179.369      36.637653      36.637653      36.637653      1.2173016      232.48186     -1085.7007     -664.91347    
   1981000   1981000        299.89795     -369.08446      16075.534      16339.978      4039.7095      12300.268      2137.3424      3684.8314     -4095.3829      149.9332      -2434.4683      44838.862     -31980.85      -384.9587       49128.24       36.624952      36.624952      36.624952      1.2185684     -1653.4441      662.66085     -116.47013    
   1982000   1982000        297.21327     -432.84658      16033.218      16342.212      4003.5462      12338.666      2193.1817      3738.9418     -4122.2448      147.40473     -2487.8822      44850.519     -31981.255     -386.37172      48948.57       36.58025       36.58025       36.58025       1.2230413      64.759746     -949.16584     -414.13364    
   1983000   1983000        298.95682      772.21925      16893.019      16339.995      4027.0322      12312.962      2113.8457      3734.7635     -4090.0795      169.08534     -2475.9698      44844.377     -31983.06      -385.13887      49105.258      36.619241      36.619241      36.619241      1.2191387      1420.2896      1902.039      -1005.6708    
   1984000   1984000        295.34073     -1668.5803      15097.33       16295.246      3978.3225      12316.923      2214.846       3688.739      -4110.6991      149.89366     -2493.5047      44847.412     -31979.763     -384.18628      49227.014      36.649481      36.649481      36.649481      1.2161234     -1574.169      -2472.0182     -959.5536     
   1985000   1985000        301.0518      -1095.1007      15604.375      16390.663      4055.2523      12335.411      2091.5965      3743.1814     -4053.0458      163.33837     -2449.5477      44818.718     -31978.83      -384.14392      49232.442      36.650828      36.650828      36.650828      1.2159893     -501.44413     -311.79672     -2472.0612    
   1986000   1986000        303.66577     -591.70149      15994.748      16420.03       4090.4631      12329.567      2206.1854      3674.6641     -4087.2607      147.86358     -2463.1648      44835.887     -31984.608     -383.74858      49283.162      36.66341       36.66341       36.66341       1.2147379     -1412.8966     -1376.6886      1014.4807    
   1987000   1987000        293.24776      370.04924      16518.994      16252.975      3950.1296      12302.846      2122.2487      3733.9807     -4109.8633      148.99086     -2460.381       44850.863     -31982.993     -383.67932      49292.059      36.665616      36.665616      36.665616      1.2145186      1167.1068     -1094.5166      1037.5576    
   1988000   1988000        300.55856     -2037.582       14955.485      16415.119      4048.6081      12366.511      2187.1585      3723.9574     -4060.6329      164.59608     -2506.7718      44838.391     -31980.187     -385.02813      49119.381      36.622751      36.622751      36.622751      1.2187882     -2304.6707     -1471.5416     -2336.5338    
   1989000   1989000        300.43324     -1023.1896      15650.323      16387.407      4046.92        12340.487      2130.1432      3730.0341     -4093.89        137.73917     -2455.0211      44867.837     -31976.356     -382.87785      49395.24       36.691182      36.691182      36.691182      1.2119816     -1721.943      -1985.8969      638.271      
   1990000   1990000        294.66509      278.81825      16483.602      16283.774      3969.2215      12314.552      2157.8123      3692.5023     -4088.2712      134.88971     -2437.0463      44838         -31983.335     -384.84505      49142.748      36.628557      36.628557      36.628557      1.2182087     -1537.6036      2059.6892      314.36921    
   1991000   1991000        293.61644      541.64808      16647.423      16260.784      3955.0958      12305.688      2124.8808      3762.005      -4120.0099      153.77852     -2424.5441      44794.928     -31985.35      -386.39592      48945.505      36.579486      36.579486      36.579486      1.2231179      779.50718     -211.51605      1056.9531    
   1992000   1992000        307.94588      460.55405      16691.189      16361.932      4148.1175      12213.814      2149.6888      3664.5309     -4117.031       146.74264     -2472.9322      44825.416     -31982.601     -385.80315      49020.708      36.598211      36.598211      36.598211      1.2212415     -1176.6418      1972.0717      586.23235    
   1993000   1993000        304.1363      -210.35838      16305.732      16455.383      4096.8013      12358.582      2155.5693      3799.5699     -4059.6607      131.62163     -2546.2217      44858.119     -31980.416     -387.70518      48780.219      36.538265      36.538265      36.538265      1.2272623     -427.29662     -990.26608      786.48756    
   1994000   1994000        298.93971      1127.8183      17137.385      16331.292      4026.8018      12304.491      2117.6161      3720.721      -4089.9071      152.38841     -2473.3903      44859.475     -31982.413     -385.90054      49008.337      36.595132      36.595132      36.595132      1.2215498      794.5024       1419.3238      1169.6287    
   1995000   1995000        302.26373      560.76202      16735.774      16335.128      4071.5773      12263.551      2052.3147      3778.7427     -4095.2859      160.03335     -2505.7444      44855.456     -31981.966     -386.04536      48989.951      36.590556      36.590556      36.590556      1.2220082      318.55704      347.01192      1016.7171    
   1996000   1996000        313.47038      1327.8664      17492.488      16545.487      4222.5339      12322.954      2173.3931      3735.8224     -4137.921       153.49334     -2481.607       44861.899     -31982.127     -386.74581      48901.224      36.568452      36.568452      36.568452      1.2242254      1277.496       2992.8116     -286.70829    
   1997000   1997000        302.50472      521.52634      16706.009      16332.454      4074.8235      12257.63       2132.6501      3738.1523     -4095.0301      149.1751      -2504.4767      44818.954     -31981.795     -385.0728       49113.683      36.621335      36.621335      36.621335      1.2189296     -348.28547      995.25635      917.60813    
   1998000   1998000        300.52687      551.59888      16648.597      16253.104      4048.1813      12204.923      2115.2683      3675.6166     -4091.0638      150.86697     -2494.9102      44836.71      -31987.565     -384.6861       49163.053      36.633601      36.633601      36.633601      1.2177055      213.89616     -387.47482      1828.3753    
   1999000   1999000        299.59126      579.91446      16750.089      16334.505      4035.5783      12298.926      2107.971       3785.9947     -4101.1921      130.30829     -2515.4073      44875.015     -31983.763     -384.88081      49138.182      36.627423      36.627423      36.627423      1.2183219      828.86239      423.09248      487.78852    
   2000000   2000000        308.97989      1527.6693      17596.092      16502.877      4162.0459      12340.831      2124.4405      3773.9645     -4089.5296      161.65791     -2505.6542      44861.845     -31985.893     -385.42939      49068.244      36.610037      36.610037      36.610037      1.2200584      511.336        3254.5348      817.13701    
Loop time of 7462.84 on 1 procs for 2000000 steps with 4520 atoms

Performance: 23.155 ns/day, 1.037 hours/ns, 267.995 timesteps/s, 1.211 Matom-step/s
100.0% CPU use with 1 MPI tasks x 1 OpenMP threads

MPI task timing breakdown:
Section |  min time  |  avg time  |  max time  |%varavg| %total
---------------------------------------------------------------
Pair    | 2169.1     | 2169.1     | 2169.1     |   0.0 | 29.07
Bond    | 1230.4     | 1230.4     | 1230.4     |   0.0 | 16.49
Kspace  | 2570.7     | 2570.7     | 2570.7     |   0.0 | 34.45
Neigh   | 405.19     | 405.19     | 405.19     |   0.0 |  5.43
Comm    | 65.878     | 65.878     | 65.878     |   0.0 |  0.88
Output  | 18.802     | 18.802     | 18.802     |   0.0 |  0.25
Modify  | 604.81     | 604.81     | 604.81     |   0.0 |  8.10
Other   |            | 397.9      |            |       |  5.33

Nlocal:           4520 ave        4520 max        4520 min
Histogram: 1 0 0 0 0 0 0 0 0 0
Nghost:          15042 ave       15042 max       15042 min
Histogram: 1 0 0 0 0 0 0 0 0 0
Neighs:              0 ave           0 max           0 min
Histogram: 1 0 0 0 0 0 0 0 0 0
FullNghs:   2.6509e+06 ave  2.6509e+06 max  2.6509e+06 min
Histogram: 1 0 0 0 0 0 0 0 0 0

Total # of neighbors = 2650904
Ave neighs/atom = 586.48319
Ave special neighs/atom = 5.5353982
Neighbor list builds = 68025
Dangerous builds = 0

# --- Cleanup ---
unfix npt_fix

undump dump_npt

# --- Write Output ---
write_dump all custom npt_prod300_last.dump id type mol x y z xu yu zu vx vy vz modify sort id
write_data /home/arz2/PolyJarvis/data/PLA3/lammps/equil/npt_prod300/npt_prod300_out.data
System init for write_data ...
PPPM Kokkos initialization ...
  using 12-bit tables for long-range coulomb
  G vector (1/distance) = 0.34295744
  grid = 45 45 45
  stencil order = 5
  estimated absolute RMS force accuracy = 0.0002514336
  estimated relative force accuracy = 7.5718481e-07
  using double precision cuFFT
  3d grid and FFT values/proc = 140608 91125
Generated 21 of 21 mixed pair_coeff terms from sixthpower/sixthpower mixing rule

print "STAGE COMPLETE: NPT T=300.0->300.0K P=1.0->1.0atm steps=2000000"
STAGE COMPLETE: NPT T=300.0->300.0K P=1.0->1.0atm steps=2000000
quit
|       |  5.33

Nlocal:           4520 ave        4520 max        4520 min
Histogram: 1 0 0 0 0 0 0 0 0 0
Nghost:          15042 ave       15042 max       15042 min
Histogram: 1 0 0 0 0 0 0 0 0 0
Neighs:              0 ave           0 max           0 min
Histogram: 1 0 0 0 0 0 0 0 0 0
FullNghs:   2.6509e+06 ave  2.6509e+06 max  2.6509e+06 min
Histogram: 1 0 0 0 0 0 0 0 0 0

Total # of neighbors = 2650904
Ave neighs/atom = 586.48319
Ave special neighs/atom = 5.5353982
Neighbor list builds = 68025
Dangerous builds = 0
System init for write_data ...
PPPM Kokkos initialization ...
  using 12-bit tables for long-range coulomb
  G vector (1/distance) = 0.34295744
  grid = 45 45 45
  stencil order = 5
  estimated absolute RMS force accuracy = 0.0002514336
  estimated relative force accuracy = 7.5718481e-07
  using double precision cuFFT
  3d grid and FFT values/proc = 140608 91125
Generated 21 of 21 mixed pair_coeff terms from sixthpower/sixthpower mixing rule
STAGE COMPLETE: NPT T=300.0->300.0K P=1.0->1.0atm steps=2000000
