LAMMPS data file via write_data, version 22 Jul 2025, timestep = 2000000, units = real

4520 atoms
7 atom types
4510 bonds
10 bond types
8000 angles
18 angle types
9970 dihedrals
23 dihedral types
4500 impropers
11 improper types

4.511543005732815 41.12158042427056 xlo xhi
4.511543005732815 41.12158042427056 ylo yhi
4.511543005732815 41.12158042427056 zlo zhi

Masses

1 12.01115
2 12.01115
3 12.01115
4 1.00797
5 1.008
6 15.9994
7 15.9994

Pair Coeffs # lj/class2/coul/long/kk

1 0.054 4.01
2 0.054 4.01
3 0.12 3.81
4 0.02 2.995
5 0.013 1.11
6 0.267 3.3
7 0.24 3.42

Bond Coeffs # class2/kk

1 1.53 299.67 -501.77 679.81
2 1.53 299.67 -501.77 679.81
3 1.5202 253.707 -423.037 396.9
4 1.101 345 -691.89 844.6
5 1.5202 253.707 -423.037 396.9
6 1.101 345 -691.89 844.6
7 1.43 326.727 -608.531 689.033
8 1.202 851.14 -1918.49 2160.77
9 1.3683 367.148 -794.791 1055.23
10 0.952 534.299 -1287.19 1889.14

Angle Coeffs # class2/kk

1 108.53 51.9747 -9.4851 -10.9985
2 110.77 41.453 -10.604 5.129
3 108.53 51.9747 -9.4851 -10.9985
4 110.77 41.453 -10.604 5.129
5 107.41 63.3907 -13.4513 1.665
6 123.145 55.5431 -17.2123 0.1348
7 100.318 38.8631 -3.8323 -7.9802
8 110.77 41.453 -10.604 5.129
9 123.145 55.5431 -17.2123 0.1348
10 100.318 38.8631 -3.8323 -7.9802
11 113.288 61.2868 -28.9786 7.9929
12 107.734 40.6099 -28.8121 0
13 107.734 40.6099 -28.8121 0
14 109.5 60 0 0
15 112.874 53.2512 -14.9979 2.464
16 107.66 39.641 -12.921 -2.4318
17 107.688 65.4801 -10.3498 5.8866
18 120.797 95.3446 -32.2869 6.3778

BondBond Coeffs

1 5.4199 1.53 1.5202
2 3.3872 1.53 1.101
3 5.4199 1.53 1.5202
4 3.3872 1.53 1.101
5 23.2647 1.53 1.43
6 46.0685 1.5202 1.202
7 19.1069 1.5202 1.3683
8 3.3872 1.53 1.101
9 46.0685 1.5202 1.202
10 19.1069 1.5202 1.3683
11 45.4503 1.43 1.3683
12 0.7115 1.5202 1.101
13 0.7115 1.5202 1.101
14 0 1.5202 1.43
15 9.5671 1.3683 0.952
16 5.3316 1.101 1.101
17 5.6454 1.101 1.43
18 121.488 1.202 1.3683

BondAngle Coeffs

1 18.1678 15.8758 1.53 1.5202
2 20.754 11.421 1.53 1.101
3 18.1678 15.8758 1.53 1.5202
4 20.754 11.421 1.53 1.101
5 23.392 47.9487 1.53 1.43
6 34.9982 37.1298 1.5202 1.202
7 1.3435 4.6978 1.5202 1.3683
8 20.754 11.421 1.53 1.101
9 34.9982 37.1298 1.5202 1.202
10 1.3435 4.6978 1.5202 1.3683
11 41.9116 46.4608 1.43 1.3683
12 12.4632 9.1765 1.5202 1.101
13 12.4632 9.1765 1.5202 1.101
14 0 0 1.5202 1.43
15 37.9163 21.4364 1.3683 0.952
16 18.103 18.103 1.101 1.101
17 8.6864 57.4975 1.101 1.43
18 76.2614 71.8761 1.202 1.3683

Dihedral Coeffs # class2/kk

1 0.0442 0 0.0292 0 0.0562 0
2 1.8341 0 2.0603 0 -0.0195 0
3 0.0442 0 0.0292 0 0.0562 0
4 1.8341 0 2.0603 0 -0.0195 0
5 0 0 0 0 -0.1932 0
6 -2.5594 0 2.2013 0 0.0325 0
7 -2.5594 0 2.2013 0 0.0325 0
8 -2.9126 0 1.0199 0 -0.2077 0
9 0 0 2.2089 0 0 0
10 -0.0228 0 0.028 0 -0.1863 0
11 -0.0228 0 0.028 0 -0.1863 0
12 0 0 0 0 -0.1932 0
13 0 0 0 0 -0.1932 0
14 -0.1432 0 0.0617 0 -0.1083 0
15 -0.1432 0 0.0617 0 -0.1083 0
16 0 0 0 0 -0.25 0
17 -0.1804 0 0.0012 0 0.0371 0
18 -0.6359 0 1.4807 0 -0.0438 0
19 -0.1804 0 0.0012 0 0.0371 0
20 -0.6359 0 1.4807 0 -0.0438 0
21 0 0 2.2089 0 0 0
22 0 180 0 0 0 0
23 0 180 0 0 0 0

AngleAngleTorsion Coeffs

1 -8.019 108.53 123.145
2 0 108.53 100.318
3 -8.019 108.53 123.145
4 0 108.53 100.318
5 0 107.41 113.288
6 0 100.318 113.288
7 0 100.318 113.288
8 0 100.318 112.874
9 0 113.288 120.797
10 -5.3624 108.53 110.77
11 -5.3624 108.53 110.77
12 0 109.5 113.288
13 0 113.288 107.688
14 -12.564 110.77 110.77
15 -12.564 110.77 110.77
16 0 110.77 107.41
17 -15.3496 107.734 123.145
18 0 107.734 100.318
19 -15.3496 107.734 123.145
20 0 107.734 100.318
21 0 112.874 120.797
22 0 123.145 109.5
23 0 109.5 100.318

EndBondTorsion Coeffs

1 0.2654 0.0503 0.1046 -0.281 0.0816 -0.1522 1.53 1.202
2 0 0 0 0 0 0 1.53 1.3683
3 0.2654 0.0503 0.1046 -0.281 0.0816 -0.1522 1.53 1.202
4 0 0 0 0 0 0 1.53 1.3683
5 0 0 0 0 0 0 1.53 1.3683
6 0 0 0 0 0 0 1.5202 1.43
7 0 0 0 0 0 0 1.5202 1.43
8 0 0 0 0 0 0 1.5202 0.952
9 0 0 0 0 0 0 1.43 1.202
10 -0.0204 0.3628 -0.4426 -0.0097 -0.0315 -0.0755 1.5202 1.101
11 -0.0204 0.3628 -0.4426 -0.0097 -0.0315 -0.0755 1.5202 1.101
12 0 0 0 0 0 0 1.5202 1.3683
13 0 0 0 0 0 0 1.3683 1.101
14 0.213 0.312 0.0777 0.213 0.312 0.0777 1.101 1.101
15 0.213 0.312 0.0777 0.213 0.312 0.0777 1.101 1.101
16 0 0 0 0 0 0 1.101 1.43
17 1.2143 0.2831 0.3916 -0.2298 0.0354 0.3853 1.101 1.202
18 0 0 0 0 0 0 1.101 1.3683
19 1.2143 0.2831 0.3916 -0.2298 0.0354 0.3853 1.101 1.202
20 0 0 0 0 0 0 1.101 1.3683
21 0 0 0 0 0 0 0.952 1.202
22 0 0 0 0 0 0 1.202 1.43
23 0 0 0 0 0 0 1.43 1.3683

MiddleBondTorsion Coeffs

1 0.3388 -0.1096 0.1219 1.5202
2 -17.328 -5.79 -3.2114 1.5202
3 0.3388 -0.1096 0.1219 1.5202
4 -17.328 -5.79 -3.2114 1.5202
5 -5.435 0 0 1.43
6 1.3445 3.5515 -4.9202 1.3683
7 1.3445 3.5515 -4.9202 1.3683
8 2.1452 0.5482 -2.3693 1.3683
9 4.26 0 0 1.3683
10 -3.5039 1.2458 -0.761 1.53
11 -3.5039 1.2458 -0.761 1.53
12 0 0 0 1.43
13 0 0 0 1.43
14 -14.261 -0.5322 -0.4864 1.53
15 -14.261 -0.5322 -0.4864 1.53
16 0 0 0 1.53
17 0.2359 0.9139 0.9594 1.5202
18 -13.7686 -2.5959 1.1934 1.5202
19 0.2359 0.9139 0.9594 1.5202
20 -13.7686 -2.5959 1.1934 1.5202
21 4.26 0 0 1.3683
22 0 0 0 1.5202
23 0 0 0 1.5202

BondBond13 Coeffs

1 0 1.53 1.202
2 0 1.53 1.3683
3 0 1.53 1.202
4 0 1.53 1.3683
5 0 1.53 1.3683
6 0 1.5202 1.43
7 0 1.5202 1.43
8 0 1.5202 0.952
9 0 1.43 1.202
10 0 1.5202 1.101
11 0 1.5202 1.101
12 0 1.5202 1.3683
13 0 1.3683 1.101
14 0 1.101 1.101
15 0 1.101 1.101
16 0 1.101 1.43
17 0 1.101 1.202
18 0 1.101 1.3683
19 0 1.101 1.202
20 0 1.101 1.3683
21 0 0.952 1.202
22 0 1.202 1.43
23 0 1.43 1.3683

AngleTorsion Coeffs

1 0.0885 -1.3703 -0.5452 0.675 0.5965 0.6725 108.53 123.145
2 0 0 0 0 0 0 108.53 100.318
3 0.0885 -1.3703 -0.5452 0.675 0.5965 0.6725 108.53 123.145
4 0 0 0 0 0 0 108.53 100.318
5 0 0 0 0 0 0 107.41 113.288
6 0 0 0 0 0 0 100.318 113.288
7 0 0 0 0 0 0 100.318 113.288
8 0 0 0 0 0 0 100.318 112.874
9 0 0 0 0 0 0 113.288 120.797
10 -0.7466 -0.9448 -0.6321 0.0162 1.4211 -1.4092 108.53 110.77
11 -0.7466 -0.9448 -0.6321 0.0162 1.4211 -1.4092 108.53 110.77
12 0 0 0 0 0 0 109.5 113.288
13 0 0 0 0 0 0 113.288 107.688
14 -0.8085 0.5569 -0.2466 -0.8085 0.5569 -0.2466 110.77 110.77
15 -0.8085 0.5569 -0.2466 -0.8085 0.5569 -0.2466 110.77 110.77
16 0 0 0 0 0 0 110.77 107.41
17 9.1299 -0.4847 0.3582 -1.4946 0.7308 -0.2083 107.734 123.145
18 0 0 0 0 0 0 107.734 100.318
19 9.1299 -0.4847 0.3582 -1.4946 0.7308 -0.2083 107.734 123.145
20 0 0 0 0 0 0 107.734 100.318
21 0 0 0 0 0 0 112.874 120.797
22 0 0 0 0 0 0 123.145 109.5
23 0 0 0 0 0 0 109.5 100.318

Improper Coeffs # class2/kk

1 0 0
2 0 0
3 0 0
4 0 0
5 0 0
6 0 0
7 0 0
8 0 0
9 0 0
10 46.9264 0
11 46.9264 0

AngleAngle Coeffs

1 1.0827 -1.8202 2.0403 110.77 108.53 107.734
2 0.2738 -0.4825 0.2738 110.77 110.77 107.66
3 0.2738 -0.4825 0.2738 110.77 110.77 107.66
4 -3.3867 -3.4976 -3.3867 107.734 107.734 107.66
5 -0.3157 -0.3157 -0.3157 107.66 107.66 107.66
6 1.0827 -1.8202 2.0403 110.77 108.53 107.734
7 0 0 0 110.77 107.41 107.688
8 0 0 0 107.41 108.53 109.5
9 0 0 0 107.734 109.5 107.688
10 0 0 0 100.318 123.145 120.797
11 0 0 0 100.318 123.145 120.797

Atoms # full/kk

3065 7 4 0.053 5.727383727652137 9.707139984737907 7.054306532978317 0 0 1
2318 6 4 0.053 8.027993514515853 5.882349345203004 5.808614279761555 0 1 0
3070 7 3 0.702 7.597754755322754 8.91334855299476 8.018991698334444 0 0 1
3072 7 7 -0.396 8.303578705773562 8.37001275697309 6.978324767771076 0 0 1
3064 7 2 0.172 6.01937143957856 8.863876264735337 7.687118438363542 0 0 1
3066 7 1 -0.159 5.594172994428148 7.563695418685837 6.919942835658004 0 0 1
3071 7 6 -0.531 8.08841122228985 9.304510765201442 9.045983748277465 0 0 1
3073 7 2 0.172 9.738399424332552 8.514815781139776 7.024864391621615 0 0 1
3067 7 4 0.053 6.106093244390223 6.749063127658843 7.448411537516207 0 0 1
3063 7 7 -0.396 5.200523137640757 8.868161176631297 8.85708629073034 0 0 1
3061 7 3 0.702 5.2976099592394466 10.006978886729229 9.641801804963315 0 0 1
3069 7 4 0.053 6.061973738819519 7.477442135898567 5.92008254209786 0 0 1
3075 7 1 -0.159 10.158470035590813 8.727342006131096 5.5632671283631385 0 0 1
3068 7 4 0.053 41.043073243243505 7.472731137451163 6.8217983560786095 -1 0 1
3074 7 4 0.053 9.95771084738726 9.474819644112102 7.614775056912222 0 0 1
1499 4 6 -0.531 7.344588044526209 10.454366459548904 4.8317963398718256 0 0 0
3089 7 6 -0.531 10.231452747962681 40.7340202333675 9.82063292257355 0 -1 1
3081 7 7 -0.396 10.088727233337242 6.081155657115838 7.2880052917519285 0 0 1
3079 7 3 0.702 10.492997242394914 7.351878499788553 7.700928182283151 0 0 1
3082 7 2 0.172 10.91355616826252 4.906985566349686 7.549763688611014 0 0 1
3077 7 4 0.053 9.666814222966554 8.051102401030121 4.814566994042086 0 0 1
2325 6 4 0.053 40.9397429085585 41.01348463128078 7.419746983827085 -1 0 0
2331 6 6 -0.531 6.033632394877108 40.815732561060386 9.484683835593748 0 0 0
3103 7 4 0.053 16.55803555272316 5.366905273937838 9.315547194245594 0 0 1
3090 7 7 -0.396 12.418630298983379 40.98903224250206 9.442924663362758 0 -1 1
3088 7 3 0.702 11.113852127879273 40.99261060459719 9.094785028081446 0 -1 1
2876 7 4 0.053 11.109342111416716 10.412062498980788 9.12006421274978 0 0 1
3085 7 4 0.053 12.914961241158913 5.709018652556817 7.460394476598823 0 0 1
2881 7 3 0.702 12.458411388816621 10.778187668321838 10.419122910692202 0 0 1
3096 7 4 0.053 13.218349997314046 6.525243961654193 10.754375595740203 0 0 1
2888 7 4 0.053 15.563006480191305 8.312383324276622 11.654580984554974 0 0 1
2889 7 4 0.053 13.836140659761945 8.255094882409272 11.385787469960702 0 0 1
2882 7 6 -0.531 12.088863726370981 10.436658298207213 11.508501316729669 0 0 1
3080 7 6 -0.531 11.339301129093478 7.562095513304939 8.584523682931197 0 0 1
3158 7 4 0.053 15.658286082736831 8.83725870868787 5.094482648966308 0 0 1
3076 7 4 0.053 11.248575205481304 8.594124062002692 5.453143925000696 0 0 1
2887 7 4 0.053 14.854928855762966 8.421599455403207 9.983648691720267 0 0 1
420 1 4 0.053 13.946812861079563 7.738329241391758 4.734194469518087 1 0 1
2886 7 1 -0.159 14.754328263928974 8.735019771528961 11.015777693750547 0 0 1
3102 7 1 -0.159 17.19708598690108 5.053209716249169 10.246224771173104 0 0 1
3104 7 4 0.053 18.163430201735274 4.605723776581624 9.87520342835306 0 0 1
2173 5 4 0.053 21.861946921604176 41.049451029889596 8.178782161778502 0 0 1
3154 7 2 0.172 17.368801371050225 10.136808557512916 5.311535960873773 0 0 1
3152 7 6 -0.531 18.21778751126375 10.125987343531476 7.849819415632914 0 0 1
3146 7 4 0.053 18.82291786141025 7.790198190729951 8.782510599069601 0 0 1
852 2 4 0.053 20.50831684780453 9.954471651678311 10.890857226312757 0 1 -1
3151 7 3 0.702 18.537445442287456 9.197242088982524 7.164088981358411 0 0 1
3145 7 2 0.172 19.315134325104438 7.928487744482432 7.789876592470061 0 0 1
3144 7 7 -0.396 20.70207537625085 8.202797848818015 8.012933582104075 0 0 1
3153 7 7 -0.396 18.311437450776843 9.103846921432512 5.873865286654958 0 0 1
3147 7 1 -0.159 19.295789057293362 6.589451061070338 7.018128331638917 0 0 1
3149 7 4 0.053 19.884976719612872 6.613474882599238 6.14841103511626 0 0 1
3150 7 4 0.053 19.61264818895326 5.768073746592081 7.7379877852205246 0 0 1
3143 7 6 -0.531 21.029875308199962 6.714923814862536 9.622952368703483 0 0 1
3142 7 3 0.702 21.481695944659723 7.624588466279002 8.938292387588907 0 0 1
3148 7 4 0.053 18.260991396178277 6.429149268809623 6.637043377555063 0 0 1
383 1 4 0.053 22.8714530495263 7.031553379030735 5.56470696062826 1 0 1
3141 7 4 0.053 22.902628734356682 9.105097777720683 7.265197656081886 0 0 1
3136 7 2 0.172 23.000066430340674 8.131345457394277 9.1191200744957 0 0 1
3138 7 1 -0.159 23.36013027732181 9.339872639427348 8.243963821956179 0 0 1
359 1 6 -0.531 26.813181549568426 9.970765495585995 7.809102654587926 1 0 1
358 1 3 0.702 27.85640778345352 10.410505752126934 7.430580159939254 1 0 1
3133 7 3 0.702 24.334618608828944 7.648767225095199 11.102797925865948 0 0 1
3941 9 2 0.172 28.24588301424797 6.428871826115804 10.450916129664023 0 1 1
3942 9 4 0.053 27.20180304711987 5.967330619909628 10.475597524011354 0 1 1
3943 9 1 -0.159 28.18031787143773 7.874748668343622 10.730928897505935 0 1 1
3139 7 4 0.053 24.429241568306733 9.390547140053439 8.042245559246963 0 0 1
3946 9 4 0.053 27.561233274848036 8.403695318056585 9.98631608246103 0 1 1
3134 7 6 -0.531 25.088160768267866 6.956807718444919 10.496383104473486 0 0 1
3135 7 7 -0.396 23.410378593153155 8.41076511164326 10.481377517702322 0 0 1
360 1 7 -0.396 28.03370636388759 10.711619889667261 6.130264510192604 1 0 1
382 1 4 0.053 24.509630088219975 6.365072877600845 6.138610187598221 1 0 1
3948 9 6 -0.531 28.57575268077233 4.974188031629518 8.49219833787585 0 1 1
381 1 1 -0.159 23.573216652803332 6.175406906323513 5.553093118041941 1 0 1
3953 9 4 0.053 28.185090986041352 8.081165383328289 5.817778795386361 0 1 1
3137 7 4 0.053 23.511211090646373 7.159045525600335 8.8113152163222 0 0 1
368 1 6 -0.531 25.233872878589622 9.414130573855132 5.124245611628582 1 0 1
3952 9 1 -0.159 28.314447081703808 7.031051966955495 6.071678188907453 0 1 1
3947 9 3 0.702 28.70257484449788 6.087586779236106 8.982792628673455 0 1 1
3955 9 4 0.053 28.202509887820746 6.394862422132314 5.193470942951435 0 1 1
3954 9 4 0.053 27.426754406059104 6.724963195719285 6.698049974571271 0 1 1
3944 9 4 0.053 29.1732157331076 8.352046355361319 10.674728556979092 0 1 1
3949 9 7 -0.396 29.345061587938122 7.0677058619381565 8.299949368095941 0 1 1
3958 9 7 -0.396 30.17656753684774 5.027804717907793 5.193537854968944 0 1 1
353 1 4 0.053 29.056541828193303 9.79507548012362 9.015664798547416 1 0 1
3827 9 4 0.053 32.321473380906525 5.358139189963039 9.640935297560368 0 1 1
355 1 4 0.053 30.71730858177657 9.89756342133171 6.789746280491747 1 0 1
3950 9 2 0.172 29.576362485439788 6.89260673235105 6.838316652634276 0 1 1
3951 9 4 0.053 30.304295614356302 7.764980027415287 6.586104269792512 0 1 1
3957 9 6 -0.531 31.502687797707974 5.365499223975988 7.011064524604265 0 1 1
3830 9 3 0.702 33.20206713483444 8.68865204729499 10.387665077113681 0 1 1
3826 9 1 -0.159 32.672859786344006 6.23786993988999 10.27993261207721 0 1 1
3816 9 4 0.053 34.12749542332956 6.382924981101985 5.578428045333224 0 1 1
3825 9 4 0.053 31.91252143169949 7.440633859554659 8.807579167477446 0 1 1
3824 9 2 0.172 32.88975019770357 7.487343405324027 9.359703597059626 0 1 1
3956 9 3 0.702 30.56323889294749 5.6492284304156675 6.363268444980858 0 1 1
3822 9 6 -0.531 33.41058795462176 8.530434935441445 6.9380793928871585 0 1 1
3823 9 7 -0.396 33.94534122622726 7.044114924585919 8.54307487447048 0 1 1
3821 9 3 0.702 33.95957114984792 7.544794692162576 7.312820530549132 0 1 1
3831 9 6 -0.531 34.31895089281902 9.095479649451132 10.606973631940816 0 1 1
3815 9 2 0.172 34.75948772547089 6.3663214193647795 6.483493437369214 0 1 1
3817 9 1 -0.159 34.953555692489 5.027898526686332 7.239659886116672 0 1 1
3820 9 4 0.053 35.68472821061236 5.157671867444516 8.091582700400082 0 1 1
3894 9 6 -0.531 38.68818543972104 41.11198470794088 9.729898022451104 0 0 1
3893 9 3 0.702 38.208456186277985 5.1070492696595435 10.615559676073184 0 1 1
3813 9 6 -0.531 36.184640365034056 5.161378780455334 41.00921670870669 0 1 0
3814 9 7 -0.396 36.07681010214041 6.739535697231483 6.026475555299265 0 1 1
3888 9 4 0.053 36.306239684029585 5.769008909116667 9.750599904490594 0 1 1
3807 9 4 0.053 38.47922685547471 7.296715139702987 5.777889074993216 0 1 1
3876 9 6 -0.531 39.00044687580464 10.090553751982796 6.015467916733344 0 1 1
3873 9 4 0.053 35.17738817340225 9.662350352262747 5.383356794169935 0 1 1
3887 9 2 0.172 37.02210514855611 6.24191396601671 10.443720047486162 0 1 1
3884 9 3 0.702 38.139790792547245 7.654762545677787 8.786880907675373 0 1 1
3880 9 1 -0.159 37.85294446495557 10.041540888569118 9.509654492434432 0 1 1
3809 9 4 0.053 38.94197406407828 40.998727890082435 4.6427864294909105 0 0 1
3886 9 7 -0.396 37.37264503929531 7.542977424480642 9.90242089905837 0 1 1
3885 9 6 -0.531 38.691933294105525 6.676273104389166 8.318731766126538 0 1 1
3808 9 1 -0.159 39.04525997911452 5.1977402986977195 5.41815564344888 0 1 1
3877 9 7 -0.396 37.2537832891565 9.517054541688529 7.278608371632838 0 1 1
3878 9 2 0.172 38.167544982944776 9.121924964821153 8.335184846774014 0 1 1
3811 9 4 0.053 38.8613001375319 4.763629892340795 6.400122993658743 0 1 1
3879 9 4 0.053 39.22932311695922 9.154944280534904 8.111053126090994 0 1 1
3810 9 4 0.053 40.1232464685327 5.536495452483992 5.46392753408475 0 1 1
3806 9 2 0.172 38.19362594149395 6.426025463489594 5.096450580937209 0 1 1
3812 9 3 0.702 36.732804513001454 5.996277139661238 5.106426926241047 0 1 1
1489 4 3 0.702 6.282223000901974 13.663954217076874 40.764842557939694 0 0 -1
1492 4 2 0.172 5.109538125652051 11.547072568392892 41.10578268198292 0 0 -1
1498 4 3 0.702 6.366404590262089 10.625768517131526 40.72641914069666 0 0 -1
2873 7 6 -0.531 9.229607352894222 12.032860220705992 8.167527316246135 0 0 1
2872 7 3 0.702 9.547396664392945 12.671108488387997 9.156680513281438 0 0 1
2863 7 3 0.702 10.060727314433894 15.50378390616913 8.655714473632225 0 0 1
1485 4 1 -0.159 7.572682296966089 14.511908374253348 6.185301452482293 0 0 0
1491 4 7 -0.396 5.584477645985396 12.857672689838049 5.031564907775511 0 0 0
2865 7 7 -0.396 8.86866246514804 15.034056091357595 9.106900527370112 0 0 1
1484 4 4 0.053 7.695502572827365 15.26029767990234 40.788864459647584 0 0 -1
3062 7 6 -0.531 5.605250660101141 11.089059544260476 9.207483500729165 0 0 1
1482 4 7 -0.396 5.818847756029783 15.81278214957474 5.047513728436096 0 0 0
1486 4 4 0.053 6.818161916328036 14.353472479224076 6.976785411696301 0 0 0
2867 7 4 0.053 7.679209700526128 13.481555313807206 9.558228833071714 0 0 1
1487 4 4 0.053 8.150555565905044 13.565700821795069 6.138466642494553 0 0 0
2866 7 2 0.172 8.669229628622713 13.825913623937051 9.786311762116691 0 0 1
1483 4 2 0.172 6.926716456397741 14.851248507972622 4.880883409594666 0 0 0
1493 4 4 0.053 4.698235766770926 11.049173639118226 5.368057337674541 0 0 0
1488 4 4 0.053 8.313019790134861 15.260714025318116 6.582998482590829 0 0 0
3156 7 1 -0.159 15.968224795770332 9.71798683635958 5.641108655619441 0 0 1
3159 7 4 0.053 15.774562997238581 9.511314219857557 6.727643820210496 0 0 1
2884 7 2 0.172 14.831263726779518 10.270918594261051 11.08623712862295 0 0 1
3157 7 4 0.053 15.247826373977613 10.53846190703149 5.324959822649702 0 0 1
1526 4 6 -0.531 10.016732746606834 15.216477177190415 4.565837718165804 0 0 0
1525 4 3 0.702 10.725596413725073 15.435055875317133 40.22353685785514 0 0 -1
1531 4 4 0.053 13.405059574711998 16.348917204788997 6.583012734332094 0 0 0
2874 7 7 -0.396 10.623733088078083 12.327668198688436 9.885923325087223 0 0 1
2883 7 7 -0.396 13.803317250405295 10.891186527840624 10.153060128548136 0 0 1
1528 4 2 0.172 12.804756023653493 15.112765283683396 4.892583266311124 0 0 0
2880 7 4 0.053 13.179025653811305 11.230531641466213 7.752163113673328 0 0 1
2864 7 6 -0.531 11.093824233880337 14.88413865183378 8.636850110550276 0 0 1
1529 4 4 0.053 12.275969381828759 14.263700239472042 5.283669651740154 0 0 0
2885 7 4 0.053 15.832564082434532 10.576194106065348 10.711728164616268 0 0 1
2878 7 4 0.053 12.97435132845344 12.861850817985582 8.477274073129758 0 0 1
1532 4 4 0.053 11.60466801071521 16.48144188847028 6.000807114546867 0 0 0
1530 4 1 -0.159 12.7153629028607 16.365294364782223 5.719726118787969 0 0 0
1533 4 4 0.053 12.999698433397816 17.263859890742665 5.0391439869328325 0 0 0
2879 7 4 0.053 11.766564820226929 12.200247658406346 7.2616222908457475 0 0 1
2877 7 1 -0.159 12.385599025386009 11.972348633815148 8.138659755264706 0 0 1
2875 7 2 0.172 11.55772646446512 11.372670689903716 9.318946063640698 0 0 1
2840 7 4 0.053 15.77642738879825 15.59670928361083 9.749069936067698 0 0 1
851 2 1 -0.159 19.896558384146715 10.685364616080218 10.43124572319943 0 1 -1
3140 7 4 0.053 22.898727012154964 10.2970641147989 8.670189161158254 0 0 1
3155 7 4 0.053 17.649163037714274 11.131779512628784 5.80099906329019 0 0 1
1541 4 4 0.053 18.557101939115576 14.493526939172467 4.819102615728347 0 0 0
322 1 3 0.702 23.08007058173127 13.394498417209254 4.879494577240134 1 0 1
1540 4 4 0.053 17.120376394675105 13.67856867107425 5.212816319670432 0 0 0
1542 4 4 0.053 17.355595685568087 15.087475344067668 6.168135520289878 0 0 0
854 2 4 0.053 20.275780819833173 10.709250374660602 9.382388765314627 0 1 -1
1539 4 1 -0.159 17.470698114184597 14.701068417549049 5.167143230419309 0 0 0
324 1 7 -0.396 22.04107601630847 14.106053346419507 5.411521244261597 1 0 1
326 1 4 0.053 21.54781709421393 15.466599468703652 6.762554614407008 1 0 1
327 1 1 -0.159 21.55443837178429 13.633381035984671 7.804602235038717 1 0 1
330 1 4 0.053 20.54926487764085 13.38883181896852 7.354383882324558 1 0 1
329 1 4 0.053 21.459299518158325 13.956629562210555 8.829250324808806 1 0 1
325 1 2 0.172 22.209115786595593 14.629089749313072 6.785226640310594 1 0 1
328 1 4 0.053 22.254033102401085 12.811916360874966 7.787714651767643 1 0 1
339 1 4 0.053 26.32671028612629 16.919256051270796 9.77213425699565 1 0 1
350 1 6 -0.531 27.787473637345848 11.189690667601877 10.641495590029013 1 0 1
841 2 4 0.053 23.59749781574338 14.455151916386518 10.654492595753718 0 1 -1
2008 5 4 0.053 27.06200814043517 15.063208897811112 40.9860566533188 -1 0 0
842 2 1 -0.159 24.095113305654824 12.266113155188949 10.302324324647012 0 1 -1
844 2 4 0.053 25.150356247413775 12.412681699793698 10.195243997225516 0 1 -1
332 1 6 -0.531 24.08719170085909 16.165106595045824 6.417850527394555 1 0 1
338 1 4 0.053 25.12077079089397 15.95672386960981 10.824126194324885 1 0 1
336 1 1 -0.159 25.356822320013247 16.38226660194333 9.78582222442871 1 0 1
335 1 4 0.053 25.900892191092456 15.919834187923001 7.721794921593914 1 0 1
343 1 2 0.172 28.32609875223983 13.638510721496665 10.32752375382852 1 0 1
843 2 4 0.053 23.671994624612335 12.314617069101391 9.236882232325327 0 1 -1
323 1 6 -0.531 24.017429003608974 13.001136585977129 5.572894210043711 1 0 1
331 1 3 0.702 23.598723893872734 15.344058096680815 7.1451084898816335 1 0 1
342 1 7 -0.396 27.088761508470498 14.288087184618515 9.982970944743519 1 0 1
362 1 4 0.053 26.120276062654412 11.493058205042487 5.96858243834576 1 0 1
334 1 2 0.172 25.466990884216496 15.35308885557647 8.588284386697872 1 0 1
361 1 2 0.172 26.942011280526632 11.079834886656217 5.301094382479445 1 0 1
340 1 3 0.702 26.51198139624231 14.200120882929646 8.796607439665845 1 0 1
333 1 7 -0.396 24.136429897426737 14.894021148214456 8.309572007822222 1 0 1
341 1 6 -0.531 26.667313320757014 13.277341828852228 8.041582519396796 1 0 1
349 1 3 0.702 28.284342770756357 12.074517134884406 10.001818606479496 1 0 1
2014 5 6 -0.531 28.403165249899647 15.351519766327398 6.632351285424815 -1 0 1
352 1 2 0.172 29.223768794362716 10.587775571699812 8.275528938135363 1 0 1
354 1 1 -0.159 30.548672836620923 10.659168642147165 7.540581910575923 1 0 1
3840 9 6 -0.531 31.850466789678986 12.377133411931226 10.668258788744197 0 1 1
347 1 4 0.053 29.31568309619827 15.651308967478943 9.898470904179062 1 0 1
351 1 7 -0.396 29.10379011777635 11.842880862779388 8.93811858252682 1 0 1
346 1 4 0.053 30.398573977321014 14.17899653454645 10.071181659109806 1 0 1
357 1 4 0.053 31.36946545151076 10.712492193385298 8.290593255037011 1 0 1
348 1 4 0.053 29.45100200418638 14.329611255753356 8.644206605483026 1 0 1
345 1 1 -0.159 29.419892542256903 14.532085658249413 9.74715490212354 1 0 1
3850 9 7 -0.396 33.598212439598356 14.296512583726807 9.260231429102566 0 1 1
356 1 4 0.053 30.48735650483895 11.545666574749227 6.938554669870087 1 0 1
3852 9 4 0.053 32.980471068399225 16.033060050850658 8.359121039264112 0 1 1
3855 9 4 0.053 31.657279895298554 14.072471047608094 7.8609696531386275 0 1 1
3851 9 2 0.172 33.4387699656393 15.095914787320577 8.071212669339406 0 1 1
3854 9 4 0.053 33.07314238659316 13.24207144512788 7.142675965384128 0 1 1
3853 9 1 -0.159 32.53622232935676 14.194986613733471 7.222279267486455 0 1 1
3856 9 4 0.053 32.19932381311284 14.669607496106858 6.26627227900128 0 1 1
3857 9 3 0.702 34.79802292662012 15.439551542801826 7.300662380087872 0 1 1
3848 9 3 0.702 34.65681317043945 13.510575348394205 9.518219864166534 0 1 1
3859 9 7 -0.396 35.04328343899056 14.609110225733703 6.237742934365455 0 1 1
3874 9 4 0.053 34.648811337482414 11.407656682697557 5.252016152581145 0 1 1
3858 9 6 -0.531 35.52690912438798 16.342850697403396 7.558920068881958 0 1 1
3849 9 6 -0.531 35.44940089511785 13.183833337097363 8.642539166361969 0 1 1
1495 4 4 0.053 39.97961920966847 12.43268816296435 40.25849341978841 -1 0 -1
1462 4 3 0.702 4.867653593796364 15.426549969182624 10.42688293697272 0 0 0
1470 4 4 0.053 37.83872365633566 16.89849426214696 9.931058026750593 -1 0 0
3882 9 4 0.053 36.7517069827566 10.105250407850505 9.69711152198708 0 1 1
3883 9 4 0.053 38.2640542415467 11.016664124134238 9.332346466312172 0 1 1
3875 9 3 0.702 37.8544138775394 10.146714008780652 6.222234433415693 0 1 1
1469 4 4 0.053 38.24389079606361 16.38261576994917 8.315044793401402 -1 0 0
1464 4 7 -0.396 40.27950698150313 15.796433556407736 9.770591865213106 -1 0 0
1460 4 4 0.053 39.26270817367558 13.525213126588241 10.53269870257152 -1 0 0
1458 4 1 -0.159 40.21654402943122 13.04279186312406 10.346251646706175 -1 0 0
3872 9 4 0.053 35.08914018884504 10.698643968388179 6.818947624923059 0 1 1
3871 9 1 -0.159 35.28687848770058 10.713554529963034 5.75524855477953 0 1 1
3870 9 4 0.053 37.11775935981481 10.886789461132278 41.0100310434003 0 1 0
3866 9 3 0.702 36.67422207840623 13.437701539365863 4.756669431765803 0 1 1
1459 4 4 0.053 40.487101671361316 13.04360244962483 9.294380129519048 -1 0 0
3860 9 2 0.172 36.2059019541739 14.803409029222022 5.4731333686066925 0 1 1
3868 9 7 -0.396 36.96117298457075 12.444106083542925 5.669606523198461 0 1 1
3861 9 4 0.053 37.111341117031216 14.989381058361667 6.100434432001808 0 1 1
3869 9 2 0.172 36.77973276748632 11.070709228514309 5.406042496646058 0 1 1
2859 7 1 -0.159 8.667267929006382 17.68070273135219 8.565083929030278 0 0 1
2860 7 4 0.053 7.636093029666668 17.266897130110358 8.130873969947533 0 0 1
2548 6 7 -0.396 9.327869222639485 21.292628275083157 6.745019706229613 0 1 1
2546 6 3 0.702 10.588641955913587 20.936168932468853 6.322465211135255 0 1 1
2542 6 1 -0.159 9.351148264657802 20.105044799773946 40.75788517702115 0 1 0
2543 6 4 0.053 8.408524340820954 20.51624462479767 4.523474462029171 0 1 1
2545 6 4 0.053 9.337261236236206 19.069665290993104 40.98317795281878 0 1 0
2540 6 2 0.172 10.604596989867428 20.713849817228112 4.8116888916607135 0 1 1
917 3 4 0.053 5.6002587509883925 21.249014102482633 10.626773085906374 0 0 0
1890 5 2 0.172 5.481465022973886 22.68490849269803 5.147459087083671 0 0 1
2858 7 4 0.053 10.323027015670156 17.03709975921698 7.222079033912545 0 0 1
2861 7 4 0.053 8.540023421981914 17.55134738184944 9.69176734108851 0 0 1
2862 7 4 0.053 8.602375215061233 18.7363763077757 8.270041920346637 0 0 1
2552 6 4 0.053 7.440497887440141 21.485787774704473 9.419218386742747 0 1 1
2857 7 2 0.172 9.967583093706455 17.055517461985225 8.263386489562443 0 0 1
1481 4 6 -0.531 7.1851317098546925 17.5135724476937 5.546852456352886 0 0 0
1480 4 3 0.702 6.092809603473983 17.068985376720775 5.578528876117891 0 0 0
2554 6 4 0.053 7.169216951050058 20.782892001203482 7.780834811411583 0 1 1
2550 6 4 0.053 9.702241486186004 20.762147309779586 8.695915714727345 0 1 1
1891 5 4 0.053 5.520784833084918 21.884923232235998 5.999913471347807 0 0 1
2549 6 2 0.172 9.193784089582287 21.55477775427 8.142712364643653 0 1 1
2551 6 1 -0.159 7.606160507866783 21.59123413140031 8.356072573370595 0 1 1
2851 7 4 0.053 13.649824236140866 19.89001038282865 9.126466191190147 0 0 1
2853 7 4 0.053 12.224874823840594 20.612720426122856 9.677093653623944 0 0 1
534 2 2 0.172 15.330396758089101 20.47739752373795 5.888001029404947 0 0 0
2547 6 6 -0.531 11.537122233272639 20.76500352458602 7.020217665213739 0 1 1
535 2 4 0.053 15.149716860972429 21.35628246729448 6.462370479134921 0 0 0
537 2 4 0.053 13.339266541724623 19.88349569995094 5.290256836916362 0 0 0
2856 7 7 -0.396 11.012824864915508 17.92122265526836 8.865997074824204 0 0 1
539 2 4 0.053 13.990037117855428 18.974487797123658 6.782896907451747 0 0 0
538 2 4 0.053 14.617947104233565 18.60781770150291 5.239569297214467 0 0 0
2846 7 6 -0.531 14.51393437592842 17.601284365275482 8.91066942598042 0 0 1
2845 7 3 0.702 14.536541462938064 17.237382223523248 10.059857633722384 0 0 1
536 2 1 -0.159 14.22041586940753 19.436436603430334 5.8095474693741584 0 0 0
2850 7 1 -0.159 13.048173090994956 19.98924574229992 9.977634887807879 0 0 1
2854 7 3 0.702 11.332981974364952 17.833427848741117 10.232991757599322 0 0 1
2852 7 4 0.053 13.668451509570694 20.645906967219453 10.674711634859174 0 0 1
533 2 7 -0.396 16.3252809001184 19.744628679295793 6.628196027044331 0 0 0
2541 6 4 0.053 11.50548316639702 20.07057999235507 41.118087824179526 0 1 0
520 2 4 0.053 15.712377981242236 20.549783731530933 10.619081115058304 0 0 0
528 2 4 0.053 18.200157106545554 17.4522211716543 7.041083852654392 0 0 0
530 2 4 0.053 18.648251893558502 17.170162039942753 8.761077630272524 0 0 0
523 2 6 -0.531 19.475390750120862 21.4102664530876 9.32327524576835 0 0 0
532 2 6 -0.531 17.59668829118929 21.527772673777473 7.11985931372583 0 0 0
531 2 3 0.702 17.356220126216428 20.359870680610566 7.209597197104494 0 0 0
2806 7 4 0.053 21.32672110921168 21.602422737977786 7.674739134015895 0 0 1
2807 7 4 0.053 21.100030393766147 22.863352401144724 6.47466408368918 0 0 1
529 2 4 0.053 16.99317944841411 17.574542964969872 8.270720815620074 0 0 0
527 2 1 -0.159 18.008200047464534 17.820552022669794 8.015861747817416 0 0 0
2805 7 1 -0.159 21.729306253286055 22.54226114534199 7.34456222691228 0 0 1
524 2 7 -0.396 17.995102572432433 19.784805291240357 9.462908420501455 0 0 0
525 2 2 0.172 18.259949224576353 19.331705979207467 8.160300799849058 0 0 0
526 2 4 0.053 19.274298587504326 19.57804449061571 7.7940828057064016 0 0 0