units real
atom_style full
boundary p p p

# --- Force Field Styles ---
pair_style lj/class2/coul/long 9.5 9.5
kspace_style pppm 1e-6
dielectric 1.000000
bond_style class2
angle_style class2
dihedral_style class2
improper_style class2
special_bonds lj/coul 0 0 1
pair_modify mix sixthpower tail yes
neighbor 2.0 bin
neigh_modify delay 0 every 1 check yes
neigh_modify one 4000
# KOKKOS: package loaded via -pk kokkos on the command line

read_data /home/arz2/PolyJarvis/data/PEG3/lammps/equil/npt_production/npt_production_out.data
Reading data file ...
  orthogonal box = (4.1142561 4.1142561 4.1142561) to (45.206877 45.206877 45.206877)
  1 by 1 by 1 MPI processor grid
  reading atoms ...
  7020 atoms
  reading velocities ...
  7020 velocities
  scanning bonds ...
  4 = max bonds/atom
  scanning angles ...
  10 = max angles/atom
  scanning dihedrals ...
  16 = max dihedrals/atom
  scanning impropers ...
  7 = max impropers/atom
  orthogonal box = (4.1142561 4.1142561 4.1142561) to (45.206877 45.206877 45.206877)
  1 by 1 by 1 MPI processor grid
  reading bonds ...
  7010 bonds
  reading angles ...
  13000 angles
  reading dihedrals ...
  14970 dihedrals
  reading impropers ...
  8000 impropers
Finding 1-2 1-3 1-4 neighbors ...
  special bond factors lj:    0        0        1       
  special bond factors coul:  0        0        1       
     4 = max # of 1-2 neighbors
     6 = max # of 1-3 neighbors
     8 = max # of special neighbors
  special bonds CPU = 0.004 seconds
  read_data CPU = 0.215 seconds


# --- Thermo Output ---
thermo_style custom step time temp press enthalpy etotal ke pe ebond eangle edihed eimp evdwl ecoul elong etail vol lx ly lz density pxx pyy pzz
thermo_modify flush yes
thermo 100

# --- Trajectory ---
dump dump_npt all custom 1000 /home/arz2/PolyJarvis/data/PEG3/lammps/mechanical/bm_series/bm_P0/bm_P0.dump id type mol x y z ix iy iz vx vy vz

# --- Restart Checkpointing ---
restart 10000 npt_1.rst npt_2.rst

# --- Initial Velocities (optional) ---
# Velocities read from data file

# --- SHAKE Constraints ---
fix shake_fix all shake 1e-4 1000 0 m 1.008
Finding SHAKE clusters ...
      10 = # of size 2 clusters
    1990 = # of size 3 clusters
      10 = # of size 4 clusters
       0 = # of frozen angles
  find clusters CPU = 0.002 seconds

# --- NPT Thermostat + Barostat (Nose-Hoover) ---
# T_damp = 100.0 fs  (heat bath coupling)
# P_damp = 1000.0 fs  (pressure bath coupling, ~10x T_damp typical)
# Ramp: T=300.0->300.0K  P=0.0->0.0atm
timestep 1.0
fix npt_fix all npt temp 300.0 300.0 100.0 iso 0.0 0.0 1000.0

run 500000
PPPM Kokkos initialization ...
  using 12-bit tables for long-range coulomb
  G vector (1/distance) = 0.30295659
  grid = 30 30 30
  stencil order = 5
  estimated absolute RMS force accuracy = 0.00030654209
  estimated relative force accuracy = 9.2314239e-07
  using double precision cuFFT
  3d grid and FFT values/proc = 50653 27000
Generated 10 of 10 mixed pair_coeff terms from sixthpower/sixthpower mixing rule
Neighbor list info ...
  update: every = 1 steps, delay = 0 steps, check = yes
  max neighbors/atom: 4000, page size: 100000
  master list distance cutoff = 11.5
  ghost atom cutoff = 11.5
  binsize = 11.5, bins = 4 4 4
  1 neighbor lists, perpetual/occasional/extra = 1 0 0
  (1) pair lj/class2/coul/long/kk, perpetual
      attributes: full, newton off, kokkos_device
      pair build: full/bin/kk/device
      stencil: full/bin/3d
      bin: kk/device
Per MPI rank memory allocation (min/avg/max) = 33.9 | 33.9 | 33.9 Mbytes
   Step          Time           Temp          Press         Enthalpy        TotEng         KinEng         PotEng         E_bond        E_angle        E_dihed        E_impro         E_vdwl         E_coul         E_long         E_tail         Volume           Lx             Ly             Lz          Density          Pxx            Pyy            Pzz      
         0   0              370.93213      1664.9285      4268.0175      2583.1607      6279.1467     -3695.986       1015.8144      4894.407      -8562.9082     -50.294211     -3062.7026      6954.6291     -4884.9315     -462.6475       69389.142      41.092621      41.092621      41.092621      1.0547206      328.43491      3015.8643      1650.4863    
       100   100            297.93602     -528.67975      971.23474      1505.2309      5043.4671     -3538.2362      1011.4832      4996.9656     -8568.2584     -50.003397     -3008.2819      6962.4339     -4882.5752     -463.52396      69257.938      41.066705      41.066705      41.066705      1.0567187     -864.58549     -359.3221      -362.13164    
       200   200            303.74235     -361.18014      1281.7904      1645.0428      5141.7567     -3496.7139      1080.3852      4996.0718     -8557.8876     -54.530467     -3027.6223      6951.846      -4884.9765     -465.51426      68961.827      41.008094      41.008094      41.008094      1.0612561     -255.25966     -312.85546     -515.42531    
       300   300            304.97996     -165.98538      1504.5801      1670.6155      5162.707      -3492.0915      975.61917      4994.5271     -8477.9273     -54.200892     -3015.9326      6964.3956     -4878.5725     -468.04416      68589.07       40.934074      40.934074      40.934074      1.0670236      231.52444     -464.9177      -264.5629     
       400   400            302.79405     -47.486637      1526.773       1574.0288      5125.7039     -3551.6751      1038.9733      4993.958      -8580.3056     -53.253963     -3025.5579      6959.1145     -4884.6034     -470.47268      68235.022      40.86352       40.86352       40.86352       1.0725601      269.98064     -428.24968      15.809127    
       500   500            303.22749      613.47953      2131.3558      1522.7486      5133.0411     -3610.2924      985.63301      4870.995      -8483.332      -49.581222     -2997.8885      6950.5875     -4886.7062     -471.93334      68023.83       40.821318      40.821318      40.821318      1.07589        420.82665      896.95328      522.65868    
       600   600            300.91548     -101.71816      1389.5421      1490.4793      5093.9034     -3603.424       1010.1608      4919.2324     -8488.6657     -55.829692     -3055.9309      6951.005      -4883.396      -471.80749      68041.976      40.824948      40.824948      40.824948      1.0756031     -378.0782      -602.18446      675.10819    
       700   700            295.90959      324.6295       1745.4687      1422.5694      5009.1636     -3586.5942      1035.0823      4872.5051     -8480.6872     -50.281884     -3024.2498      6950.2008     -4889.1636     -470.69386      68202.959      40.857119      40.857119      40.857119      1.0730643      262.35211      602.53467      109.00172    
       800   800            293.32581      523.95564      1837.5319      1315.0094      4965.4253     -3650.4159      1011.4605      4856.9242     -8512.9253     -51.008225     -3017.574       6950.4962     -4887.7892     -469.46927      68380.863      40.892613      40.892613      40.892613      1.0702725      701.7262      -127.29121      997.43194    
       900   900            294.30878     -1843.9257     -535.98764      1307.3559      4982.065      -3674.7091      999.21966      4927.0896     -8539.3062     -49.774368     -3069.965       6946.1987     -4888.1716     -468.33303      68546.764      40.925656      40.925656      40.925656      1.0676822     -1660.7058     -1922.6623     -1948.4092    
      1000   1000           297.25622      476.64904      1948.3948      1471.927       5031.9594     -3560.0323      1023.9313      4896.5874     -8491.3795     -51.505262     -3003.3751      6951.4912     -4885.7823     -468.36327      68542.338      40.924775      40.924775      40.924775      1.0677511      450.29595      1021.7666     -42.115456    
      1100   1100           303.80198     -996.74414      554.3125       1550.6418      5142.7661     -3592.1243      1018.3333      4923.4604     -8466.5865     -50.615074     -3079.0572      6952.7883     -4890.4476     -468.38011      68539.874      40.924285      40.924285      40.924285      1.0677895     -421.44812     -1742.2473     -826.53703    
      1200   1200           306.34551      539.86799      2096.6042      1558.0398      5185.823      -3627.7832      1028.2999      4844.1117     -8528.8701     -49.16931      -2994.4516      6959.4219     -4887.1257     -469.31843      68402.84       40.896993      40.896993      40.896993      1.0699287      338.13773      707.65948      573.80676    
      1300   1300           299.75526     -1194.0683      281.32302      1470.565       5074.2631     -3603.6982      1038.3524      4963.1578     -8516.0098     -49.099883     -3091.6795      6943.859      -4892.2782     -470.08522      68291.264      40.874744      40.874744      40.874744      1.0716767     -1683.4445     -1357.9909     -540.76966    
      1400   1400           301.33077      978.90101      2372.9838      1400.4728      5100.9333     -3700.4605      973.34376      4954.694      -8535.1225     -53.961211     -3105.1721      6956.2124     -4890.4548     -471.26141      68120.819      40.84071       40.84071       40.84071       1.0743582      1871.5679      1442.708      -377.57285    
      1500   1500           298.90223      166.54361      1582.9325      1417.6788      5059.8231     -3642.1443      1005.5092      4896.3531     -8513.0107     -52.684208     -3050.2734      6957.8553     -4885.8935     -471.83948      68037.363      40.824025      40.824025      40.824025      1.075676       106.5599      -101.29014      494.36107    
      1600   1600           300.99676      163.78524      1752.1838      1589.3638      5095.2792     -3505.9154      1033.7623      4895.2908     -8455.1403     -53.548743     -3006.0872      6962.9223     -4883.1145     -470.96063      68164.325      40.849403      40.849403      40.849403      1.0736725      276.46243     -769.09492      983.98821    
      1700   1700           299.44607      147.49539      1752.5279      1605.3275      5069.0292     -3463.7016      1035.0986      5020.9028     -8491.2469     -54.155503     -3054.4297      6963.4122     -4883.2832     -469.12362      68431.245      40.902653      40.902653      40.902653      1.0694846     -600.49717      1094.2737     -51.290387    
      1800   1800           296.44119     -999.32297      542.63858      1543.7173      5018.1625     -3474.4451      1040.3677      4905.7342     -8429.3352     -53.016097     -3018.1398      6964.8439     -4884.8999     -467.364        68688.889      40.953922      40.953922      40.953922      1.065473      -590.43184     -1572.9651     -834.57199    
      1900   1900           297.07055     -165.05549      1301.9379      1467.5385      5028.8164     -3561.2779      1006.8509      4957.2688     -8508.5349     -52.394515     -3038.7942      6959.1726     -4884.8466     -466.644        68794.87       40.974974      40.974974      40.974974      1.0638316     -11.698757     -644.53606      161.06835    
      2000   2000           298.60809      718.62287      2194.5963      1473.3161      5054.8438     -3581.5277      997.29949      4942.1111     -8574.5556     -52.961878     -2981.7136      6973.1758     -4884.8829     -466.46023      68821.974      40.980354      40.980354      40.980354      1.0634127      645.73122      993.40728      516.7301     
      2100   2100           303.72484      329.80087      1953.8721      1622.4495      5141.4603     -3519.0108      1044.0963      4945.2357     -8521.1228     -51.917614     -3007.8974      6961.2075     -4888.6126     -465.89417      68905.591      40.996944      40.996944      40.996944      1.0621222      27.125204     -628.8991       1591.1765    
      2200   2200           305.20948      956.40789      2613.8661      1652.9502      5166.5923     -3513.6421      1003.7243      4966.8685     -8538.1295     -49.951567     -2976.7292      6965.9766     -4885.4012     -465.98871      68891.613      40.994172      40.994172      40.994172      1.0623377      1353.3541      674.98334      840.88618    
      2300   2300           300.09741     -511.85841      1086.5194      1600.0896      5080.055      -3479.9654      1048.4741      4946.0812     -8487.2655     -53.565966     -3011.1232      6961.6561     -4884.222      -466.62457      68797.736      40.975543      40.975543      40.975543      1.0637873     -1660.3091      774.25953     -649.52567    
      2400   2400           293.18762      682.51178      2231.5512      1547.824       4963.086      -3415.262       1071.284       4930.3598     -8472.114      -49.016004     -2976.1152      6966.4033     -4886.0638     -467.3529       68690.519      40.954246      40.954246      40.954246      1.0654478      1377.828       323.80322      345.90413    
      2500   2500           300.66273      538.42161      2054.0089      1515.2976      5089.6248     -3574.3273      974.9103       5046.3635     -8557.4961     -52.669189     -3043.9328      6945.7313     -4887.2342     -467.93337      68605.309      40.937304      40.937304      40.937304      1.0667711      651.62891      1115.753      -152.11707    
      2600   2600           300.88475     -1343.2221      173.78138      1515.8772      5093.3832     -3577.506       1035.4444      4905.6719     -8457.4175     -47.013895     -3063.7457      6942.3306     -4892.7758     -468.57806      68510.919      40.918521      40.918521      40.918521      1.0682408     -2538.4479     -68.269226     -1422.9492    
      2700   2700           298.70863      866.30396      2376.3257      1511.8859      5056.5458     -3544.6599      1025.2162      4963.7843     -8498.7826     -53.43508      -3039.4347      6946.4732     -4888.4812     -469.19479      68420.865      40.900585      40.900585      40.900585      1.0696468      746.27221     -132.59309      1985.2327    
      2800   2800           301.32238     -241.58483      1253.0764      1494.0605      5100.7913     -3606.7308      1013.8617      4868.2137     -8476.6245     -51.815952     -3026.318       6956.0343     -4890.082      -469.35224      68397.914      40.896011      40.896011      40.896011      1.0700057      369.05628     -148.18011     -945.63067    
      2900   2900           298.47096      220.25517      1663.3506      1443.8018      5052.5224     -3608.7206      1005.1754      4910.5752     -8522.1355     -52.633079     -3017.2253      6951.8524     -4884.3298     -469.69137      68348.528      40.886166      40.886166      40.886166      1.0707789      1448.2824     -837.96793      50.451044    
      3000   3000           295.9574       1273.248       2638.0651      1368.1156      5009.9729     -3641.8572      998.28567      4924.6552     -8536.2741     -52.037647     -3029.9359      6938.3887     -4884.9392     -469.40123      68390.775      40.894588      40.894588      40.894588      1.0701174      1325.835       283.17203      2210.7371    
      3100   3100           296.07303     -161.17926      1254.384       1415.5406      5011.9303     -3596.3897      965.77013      4935.0311     -8511.5489     -51.831119     -3001.1347      6953.3504     -4886.0266     -468.25101      68558.77       40.928046      40.928046      40.928046      1.0674952      525.73835     -824.1262      -185.14992    
      3200   3200           299.34983      826.82085      2365.0294      1536.2557      5067.4        -3531.1443      959.2646       4871.9566     -8417.8863     -51.431601     -2977.1374      6968.0427     -4883.9529     -467.08197      68730.364      40.962163      40.962163      40.962163      1.0648301      703.15253      466.99946      1310.3106    
      3300   3300           298.15288     -982.40148      596.73212      1584.0977      5047.1381     -3463.0403      1056.5805      4977.6399     -8463.5259     -49.813541     -3052.1433      6952.7301     -4884.5081     -465.83128      68914.895      40.998789      40.998789      40.998789      1.0619788     -198.0218      -1376.4326     -1372.75      
      3400   3400           301.80093     -40.669404      1544.4965      1585.3623      5108.8923     -3523.53        1002.0372      4950.2822     -8509.5125     -51.488408     -2998.0642      6964.5259     -4881.3102     -465.93525      68899.517      40.99574       40.99574       40.99574       1.0622159      314.392        75.245102     -511.64532    
      3500   3500           302.63478      206.27991      1719.27        1512.1631      5123.0077     -3610.8446      1010.4244      4921.1472     -8529.1144     -49.804604     -3039.4954      6961.2144     -4885.2163     -466.31585      68843.282      40.984583      40.984583      40.984583      1.0630835     -165.73954     -425.09098      1209.6702    
      3600   3600           296.38681     -254.84828      1120.0318      1375.565       5017.2419     -3641.6769      1005.4367      4942.6264     -8584.427      -49.07147      -3039.4294      6965.4754     -4882.2876     -466.93024      68752.698      40.966599      40.966599      40.966599      1.0644842     -286.9169       554.57306     -1032.201     
      3700   3700           297.03122      397.96521      1813.6457      1415.0597      5028.1505     -3613.0909      1027.2028      4827.0714     -8504.0989     -50.401787     -2984.3519      6956.4049     -4884.9173     -467.45592      68675.382      40.951237      40.951237      40.951237      1.0656826      929.39626      161.70049      102.79887    
      3800   3800           301.88199     -452.13966      1041.3375      1493.6352      5110.2644     -3616.6292      1003.2604      4926.3584     -8538.0095     -53.109524     -3022.404       6958.3639     -4891.0889     -468.02161      68592.374      40.934731      40.934731      40.934731      1.0669722     -258.09951      316.54851     -1414.868     
      3900   3900           300.35676      833.4044       2357.4684      1524.5385      5084.4453     -3559.9069      1006.6943      4946.1027     -8548.3063     -51.648712     -2974.3929      6950.3702     -4888.7261     -468.45184      68529.379      40.922196      40.922196      40.922196      1.0679531      1606.2936     -23.071417      916.99101    
      4000   4000           304.28098     -763.94892      778.82174      1543.6939      5150.8745     -3607.1806      1005.7533      4985.2977     -8539.3191     -52.828512     -3067.8997      6950.2715     -4888.4559     -467.62004      68651.278      40.946446      40.946446      40.946446      1.0660568     -1222.8143      863.06165     -1932.0941    
      4100   4100           302.4452       725.48544      2240.6369      1513.8476      5119.7985     -3605.9509      1003.1117      4871.4782     -8533.2177     -50.653507     -2961.6883      6953.3806     -4888.3619     -467.34526      68691.643      40.954469      40.954469      40.954469      1.0654303      437.47105      291.44708      1447.5382    
      4200   4200           296.88361     -1083.4404      339.03018      1426.3412      5025.6517     -3599.3105      1001.2362      4938.9605     -8501.1455     -49.427053     -3046.6781      6945.1578     -4887.4144     -466.51847      68813.381      40.978649      40.978649      40.978649      1.0635455     -181.88655     -953.08339     -2115.3512    
      4300   4300           295.7196      -720.7018       686.53095      1409.6459      5005.9474     -3596.3015      1013.3475      4966.9217     -8525.2498     -51.383976     -3058.8848      6944.5767     -4885.6287     -466.62274      68798.004      40.975596      40.975596      40.975596      1.0637832     -1488.6666     -275.07455     -398.36426    
      4400   4400           301.136        484.55896      2009.0102      1523.7741      5097.6364     -3573.8622      1025.0325      4932.3106     -8508.2394     -51.081515     -3032.6825      6948.525      -4887.727      -467.53186      68664.227      40.94902       40.94902       40.94902       1.0658557      746.73321      692.87122      14.072441    
      4500   4500           303.70279     -828.76801      764.74627      1592.7035      5141.087      -3548.3835      1029.9113      5006.5915     -8544.4016     -51.852174     -3060.0258      6956.4614     -4885.0682     -468.64364      68501.332      40.916613      40.916613      40.916613      1.0683903     -648.80509     -156.66873     -1680.8302    
      4600   4600           297.66981      894.75003      2457.4739      1566.1613      5038.9606     -3472.7993      1049.1476      4893.898      -8466.6788     -50.006907     -2977.3844      6962.693      -4884.4677     -469.99079      68304.984      40.877482      40.877482      40.877482      1.0714615      2481.4112     -5.0758564      207.91479    
      4700   4700           301.34897      148.19634      1660.11        1512.3197      5101.2414     -3588.9217      1028.2676      4914.3672     -8495.1236     -51.424746     -3061.6507      6960.041      -4883.3985     -469.47148      68380.541      40.892549      40.892549      40.892549      1.0702776     -201.58913      1000.938      -354.75985    
      4800   4800           299.9935      -800.19549      653.21697      1452.9548      5078.2961     -3625.3413      1041.3844      4933.9732     -8536.7124     -50.258006     -3077.0309      6951.7832     -4888.4807     -468.45308      68529.197      40.92216       40.92216       40.92216       1.0679559     -431.45138     -324.81156     -1644.3235    
      4900   4900           294.21682     -514.88417      849.25024      1365.2784      4980.5084     -3615.23        1041.7745      4916.3799     -8538.9493     -50.984733     -3054.9027      6954.3016     -4882.8493     -467.14723      68720.763      40.960255      40.960255      40.960255      1.0649789     -246.00292     -1702.6678      404.01822    
      5000   5000           290.14457      1537.2399      2827.8235      1284.6196      4911.5732     -3626.9536      956.2616       4891.9787     -8537.6246     -50.794809     -2958.0291      6957.9063     -4886.6516     -466.37576      68834.439      40.982828      40.982828      40.982828      1.0632201      1534.3804      3652.8019     -575.46263    
      5100   5100           296.30919     -1585.9281     -184.55783      1413.6487      5015.928      -3602.2794      1040.5661      4879.7998     -8509.4902     -51.444682     -3029.9199      6952.2495     -4884.0399     -464.58827      69099.277      41.035321      41.035321      41.035321      1.0591451     -904.7274      -2547.5394     -1305.5175    
      5200   5200           300.2682       138.13741      1674.2244      1534.6092      5082.9462     -3548.337       1020.0402      4936.4008     -8521.1259     -55.296206     -2993.4038      6950.6355     -4885.5875     -463.22946      69301.97       41.075405      41.075405      41.075405      1.0560473     -421.3948       934.09813     -98.291097    
      5300   5300           301.7661      -601.19431      980.93015      1588.4798      5108.3026     -3519.8228      1014.6755      4936.7708     -8530.5362     -54.0192       -2960.9976      6960.3428     -4886.0588     -463.28764      69293.266      41.073686      41.073686      41.073686      1.05618       -470.26915     -1800.038       466.72416    
      5400   5400           304.48993      918.69795      2524.3215      1598.2968      5154.4117     -3556.1149      1013.6302      4901.6057     -8541.8862     -50.307651     -2947.0966      6951.3347     -4883.3952     -464.48083      69115.261      41.038485      41.038485      41.038485      1.0589001     -594.07672      1782.003       1568.1676    
      5500   5500           303.35716      515.673        2089.5518      1571.1781      5135.2362     -3564.0581      1039.2316      5032.6178     -8625.6702     -54.450086     -3014.6025      6945.3259     -4886.5106     -465.74598      68927.517      41.001292      41.001292      41.001292      1.0617844      357.37256      1024.2588      165.38768    
      5600   5600           303.40972     -458.68671      976.44545      1435.7459      5136.1259     -3700.38        1003.6438      4835.675      -8533.245      -49.810519     -3022.6595      6952.7693     -4886.7531     -467.55956      68660.158      40.948211      40.948211      40.948211      1.0659189      160.33343     -1248.7221     -287.67144    
      5700   5700           299.35641      357.62133      1757.4625      1400.5022      5067.5115     -3667.0093      1001.2316      4847.4278     -8501.2168     -52.982952     -3033.2148      6956.8598     -4885.1139     -469.05207      68441.683      40.904733      40.904733      40.904733      1.0693214      863.71195      30.688305      178.46375    
      5800   5800           297.36685     -338.1108       1119.4781      1456.4482      5033.8321     -3577.3839      1039.9255      4874.8604     -8481.2762     -52.885313     -3030.2598      6954.7825     -4882.5311     -469.77002      68337.084      40.883884      40.883884      40.883884      1.0709582     -32.724026      559.57411     -1541.1825    
      5900   5900           302.02835      99.369625      1648.2946      1549.3558      5112.742      -3563.3861      1026.0732      4967.3451     -8504.0557     -52.024649     -3065.9719      6952.8062     -4887.5584     -470.22423      68271.075      40.870716      40.870716      40.870716      1.0719937     -1218.7252      497.23705      1019.597     
      6000   6000           303.07229      209.3111       1752.7853      1544.5542      5130.4138     -3585.8596      1021.6172      4952.668      -8551.957      -51.452622     -3028.9046      6958.4647     -4886.2953     -470.61342      68214.616      40.859447      40.859447      40.859447      1.0728809      380.23775     -88.048085      335.74364    
      6100   6100           297.41813      588.19728      2075.5424      1489.451       5034.7001     -3545.2492      1013.7778      4963.5436     -8520.133      -52.979274     -3013.5852      6950.9855     -4886.8587     -469.86734      68322.93       40.881061      40.881061      40.881061      1.0711801      366.63875      482.71563      915.23745    
      6200   6200           300.1087      -511.24353      941.76062      1453.1846      5080.2462     -3627.0616      1011.5252      4955.5387     -8564.7881     -53.279581     -3034.6649      6943.6349     -4885.0278     -468.01998      68592.613      40.934779      40.934779      40.934779      1.0669685     -351.83768     -490.23797     -691.65494    
      6300   6300           297.03811      354.6534       1808.364       1452.4875      5028.2671     -3575.7796      1041.0486      4876.2729     -8488.6927     -53.019542     -3013.318       6950.8414     -4888.9124     -466.57608      68804.885      40.976962      40.976962      40.976962      1.0636768     -275.5215       723.47078      616.01092    
      6400   6400           303.89858      103.22007      1701.2653      1597.4213      5144.4013     -3546.98        1000.4771      4960.3081     -8509.9841     -51.681522     -3008.6644      6949.3696     -4886.8047     -465.37193      68982.917      41.012274      41.012274      41.012274      1.0609316      1083.2234     -1956.0626      1182.4994    
      6500   6500           306.48493     -21.189061      1598.5829      1619.9159      5188.1832     -3568.2673      1025.2263      4815.0307     -8409.9985     -52.990084     -3010.5612      6951.0789     -4886.0533     -465.02748      69034.014      41.022398      41.022398      41.022398      1.0601464      191.00029      1649.9551     -1904.5225    
      6600   6600           300.44721      350.01892      1884.0845      1532.3197      5085.9764     -3553.6567      985.71976      4942.4424     -8506.4498     -54.37408      -3002.3093      6964.6143     -4883.2999     -465.86142      68910.436      40.997905      40.997905      40.997905      1.0620476     -390.16971     -76.792566      1517.019     
      6700   6700           297.79264      336.69949      1805.8555      1467.7327      5041.0398     -3573.3071      1025.1107      4984.6224     -8543.9973     -52.438079     -3054.0144      6955.2823     -4887.8727     -466.21438      68858.266      40.987556      40.987556      40.987556      1.0628522      822.84302      261.32244     -74.066979    
      6800   6800           295.12518     -890.77865      591.37465      1483.5387      4995.8851     -3512.3464      1032.9122      5056.8981     -8554.5101     -52.025305     -3044.3221      6937.8229     -4889.122      -467.45812      68675.059      40.951173      40.951173      40.951173      1.0656876     -448.75713     -1616.1217     -607.45708    
      6900   6900           301.02252      934.54399      2419.9529      1486.5575      5095.7154     -3609.1579      982.82701      4865.697      -8470.2238     -50.38879      -3007.2643      6956.3848     -4886.1899     -468.76131      68484.137      40.913189      40.913189      40.913189      1.0686586      91.567548      117.17814      2594.8863    
      7000   7000           298.78134     -481.156        1014.8641      1494.9838      5057.7766     -3562.7928      1063.9046      4818.3504     -8437.0178     -54.733291     -3016.9954      6949.0771     -4885.3785     -469.19568      68420.735      40.900559      40.900559      40.900559      1.0696488      386.02634     -120.709       -1708.7853    
      7100   7100           302.05703      578.31248      2056.1198      1480.1424      5113.2275     -3633.085       982.70026      5009.3498     -8595.5088     -54.510845     -3041.7544      6950.0218     -4883.3829     -470.08326      68291.548      40.874801      40.874801      40.874801      1.0716723      684.7797       114.13879      936.01894    
      7200   7200           297.30687      796.32745      2117.8584      1324.528       5032.8168     -3708.2887      950.48376      4905.7479     -8549.2959     -48.396894     -3040.911       6958.373      -4884.2895     -469.95392      68310.344      40.878551      40.878551      40.878551      1.0713774      1379.6697      1345.0579     -335.74521    
      7300   7300           296.2081       830.1143       2139.1484      1308.4193      5014.2167     -3705.7973      975.83532      4836.2398     -8521.5085     -54.011251     -3010.7557      6952.0702     -4883.6672     -467.83866      68619.198      40.940067      40.940067      40.940067      1.0665552      2257.2235     -873.85017      1106.9696    
      7400   7400           296.46863     -1036.342       389.94754      1429.9048      5018.6269     -3588.7221      1020.891       4974.3186     -8519.7068     -52.153521     -3073.8858      6945.0329     -4883.2186     -466.55757      68807.615      40.977504      40.977504      40.977504      1.0636346     -1460.4434     -195.55529     -1453.0273    
      7500   7500           300.2187       578.27529      2091.4058      1511.8784      5082.1082     -3570.2298      979.71214      4944.3946     -8487.5383     -50.601222     -3031.7917      6957.3521     -4881.7574     -467.1736       68716.883      40.959485      40.959485      40.959485      1.065039       347.65673      608.2757       778.89344    
      7600   7600           300.73567     -124.0565       1434.902       1559.2114      5090.8595     -3531.6481      1030.9807      4919.1975     -8465.5039     -55.873928     -3038.0095      6958.8406     -4881.2795     -467.2324       68708.236      40.957766      40.957766      40.957766      1.065173       22.11469      -775.59798      381.31381    
      7700   7700           303.08488      1030.6402      2625.7533      1595.3476      5130.627      -3535.2795      1000.7646      4996.7013     -8483.1931     -54.788272     -3056.4571      6947.5499     -4885.8569     -468.29167      68552.818      40.926861      40.926861      40.926861      1.0675879      1134.1601      1322.4085      635.35196    
      7800   7800           306.00482     -217.37072      1364.4752      1581.0011      5180.0558     -3599.0547      1007.0817      4982.0754     -8555.9295     -52.877855     -3034.9347      6940.2371     -4884.7068     -470.01185      68301.925      40.876871      40.876871      40.876871      1.0715095     -110.41982     -553.70161      12.009251    
      7900   7900           300.82389      42.704128      1484.8589      1442.4341      5092.353      -3649.9189      1048.8657      4839.338      -8509.2861     -51.44335      -3032.3875      6942.9119     -4887.9175     -471.2671       68119.997      40.840546      40.840546      40.840546      1.0743712     -372.54629     -199.79472      700.4534     
      8000   8000           296.52916      315.69775      1694.9545      1381.3821      5019.6517     -3638.2696      1010.6582      4818.7164     -8492.8664     -51.222475     -2996.9113      6958.8434     -4885.4874     -471.35839      68106.804      40.837909      40.837909      40.837909      1.0745793      1725.7492      8.7924395     -787.44837    
      8100   8100           300.54555     -765.82642      644.4192       1406.8062      5087.6411     -3680.8349      1028.3519      4878.8964     -8503.2245     -54.129747     -3091.9413      6948.8952     -4887.6828     -470.29729      68260.469      40.868599      40.868599      40.868599      1.0721602     -593.50847     -763.43186     -940.53894    
      8200   8200           304.86937      22.167463      1539.6948      1517.6158      5160.8349     -3643.2192      1012.482       4946.9252     -8538.6803     -53.915404     -3078.9953      6952.5761     -4883.6115     -470.06058      68294.844      40.875459      40.875459      40.875459      1.0716206      460.76746      57.754429     -452.0195     
      8300   8300           301.41674      719.2923       2284.1591      1566.5135      5102.3887     -3535.8752      1013.8162      5029.249      -8552.8868     -55.880904     -3053.4201      6963.6065     -4880.359      -469.25942      68411.441      40.898707      40.898707      40.898707      1.0697941      515.48598      1052.319       590.07195    
      8400   8400           297.68337     -508.12042      986.17986      1493.9349      5039.1902     -3545.2552      971.65468      5099.3051     -8579.3244     -55.936405     -3055.6782      6957.1439     -4882.4198     -468.52202      68519.114      40.920153      40.920153      40.920153      1.0681131     -5.4293757     -617.57146     -901.36043    
      8500   8500           297.07856      1042.7167      2389.3915      1344.6145      5028.9519     -3684.3375      983.2069       4889.548      -8568.1987     -52.721428     -2999.817       6949.8814     -4886.2366     -467.26189      68703.899      40.956905      40.956905      40.956905      1.0652403      819.42484     -73.845675      2382.571     
      8600   8600           298.6502      -1071.0602      326.9531       1404.5447      5055.5566     -3651.0118      1027.851       4902.9962     -8537.8115     -51.943541     -3067.3359      6957.9489     -4882.7168     -465.34744      68986.549      41.012994      41.012994      41.012994      1.0608758     -1257.3096     -1335.0063     -620.86486    
      8700   8700           298.27903     -25.046437      1471.8537      1497.0218      5049.2734     -3552.2516      1007.0185      4909.3896     -8492.5925     -53.178999     -3003.1637      6963.5949     -4883.3194     -465.9218       68901.506      40.996134      40.996134      40.996134      1.0621852      356.4402      -1351.9836      920.40413    
      8800   8800           301.11797      620.38045      2187.325       1565.6579      5097.3312     -3531.6733      991.94147      4991.906      -8539.1519     -53.552739     -3001.7943      6965.2707     -4886.2926     -467.21615      68710.624      40.958241      40.958241      40.958241      1.065136       1168.4995      379.45756      313.18432    
      8900   8900           301.28258     -704.54579      876.86859      1582.9599      5100.1177     -3517.1578      1085.0641      4904.8736     -8498.6001     -52.126085     -3028.7523      6956.2396     -4883.8566     -467.16037      68718.829      40.959871      40.959871      40.959871      1.0650088     -1165.1864     -2114.5901      1166.1392    
      9000   9000           300.32284      174.05376      1664.9003      1490.5084      5083.8712     -3593.3627      1033.3774      4895.1379     -8505.1483     -48.227336     -3029.9422      6950.5261     -4889.0864     -467.27752      68701.601      40.956448      40.956448      40.956448      1.0652759      1169.1448     -613.00718     -33.976387    
      9100   9100           294.47154      55.179208      1421.1159      1365.8334      4984.8202     -3618.9868      1002.5991      4950.0538     -8511.1913     -50.054352     -3071.5672      6949.8138     -4888.6408     -467.31004      68696.82       40.955498      40.955498      40.955498      1.06535        260.38526      93.230457     -188.07809    
      9200   9200           297.40698      571.89313      1979.246       1407.225       5034.5114     -3627.2863      985.22118      4944.103      -8519.7496     -47.845011     -3046.1574      6945.8259     -4888.6844     -468.0805       68583.745      40.933015      40.933015      40.933015      1.0671065      831.7687       661.9854       221.9253     
      9300   9300           300.36082     -966.59863      534.39267      1500.4252      5084.5141     -3584.0889      1040.1298      4957.2006     -8515.4852     -53.271178     -3074.5682      6948.444      -4886.5387     -468.45952      68528.255      40.921972      40.921972      40.921972      1.0679706     -1155.3759     -492.12497     -1252.295     
      9400   9400           304.29221      494.17969      2051.1795      1558.3145      5151.0647     -3592.7502      1012.9323      4934.5521     -8516.8486     -54.53212      -3032.545       6951.414      -4887.7228     -469.43399      68386.002      40.893637      40.893637      40.893637      1.0701921      752.70809      1491.3324     -761.50142    
      9500   9500           305.54188     -199.73361      1368.0311      1567.2605      5172.2191     -3604.9586      1031.863       4957.6351     -8509.5904     -52.219512     -3084.6298      6940.4478     -4888.4648     -469.37003      68395.32       40.895494      40.895494      40.895494      1.0700463      1346.8649     -1975.1604      29.094647    
      9600   9600           297.52071      633.23125      2102.5911      1470.0877      5036.4366     -3566.3489      1026.9746      4871.7472     -8495.162      -52.888758     -2979.8052      6949.4135     -4886.6282     -468.7239       68489.603      40.914277      40.914277      40.914277      1.0685733     -841.85958      2786.9015     -45.348139    
      9700   9700           291.02601     -224.30106      1145.0361      1369.6107      4926.4942     -3556.8835      1056.433       5015.4793     -8558.8891     -54.918842     -3070.6125      6944.5941     -4888.9696     -467.61491      68652.031      40.946595      40.946595      40.946595      1.0660451      781.68059     -1284.0372     -170.54661    
      9800   9800           297.34305     -234.80293      1182.1549      1417.6771      5033.4292     -3615.7521      1022.8239      4935.1381     -8545.1458     -52.481535     -3033.4614      6944.7533     -4887.3788     -466.75537      68778.455      40.971715      40.971715      40.971715      1.0640855     -353.64084      602.68715     -953.45511    
      9900   9900           298.45373      518.75661      2021.7571      1501.1283      5052.2308     -3551.1025      1021.4074      4920.0061     -8507.3003     -54.560386     -2987.8552      6944.8455     -4887.6455     -466.50152      68815.882      40.979145      40.979145      40.979145      1.0635068      1633.2482      322.66736     -399.64567    
     10000   10000          303.49397     -596.82281      921.65371      1520.2831      5137.552      -3617.2689      1035.257       4862.187      -8508.79       -51.397263     -3022.6344      6949.2262     -4881.1174     -466.77223      68775.971      40.971221      40.971221      40.971221      1.064124      -985.24976     -859.11805      53.899372    
     10100   10100          297.14511      966.39274      2488.0314      1519.0841      5030.0785     -3510.9944      1035.7576      4895.104      -8505.647      -50.359974     -2957.2931      6957.0793     -4885.6353     -466.95082      68749.668      40.965998      40.965998      40.965998      1.0645311      1301.0481      1441.4923      156.63782    
     10200   10200          299.1995      -325.64551      1206.3809      1532.7165      5064.8553     -3532.1388      1085.7975      4897.9149     -8532.4908     -48.614036     -2992.8579      6944.3205     -4886.2089     -467.19514      68713.715      40.958855      40.958855      40.958855      1.0650881      923.9943      -741.77828     -1159.1525    
     10300   10300          300.09624      205.80873      1758.3661      1552.0461      5080.0352     -3527.9891      1093.7298      4933.5637     -8524.7833     -51.750003     -3042.3003      6947.2609     -4883.71       -467.025        68738.748      40.963828      40.963828      40.963828      1.0647002     -519.59991      1666.0849     -529.05884    
     10400   10400          299.23735     -480.24444      1094.8447      1575.8556      5065.4959     -3489.6403      1065.7365      4946.1341     -8483.0144     -50.153876     -3026.7288      6941.6233     -4883.2372     -467.43912      68677.85       40.951728      40.951728      40.951728      1.0656443      102.04964     -1061.3568     -481.42615    
     10500   10500          302.72606      346.26378      2009.0332      1663.0549      5124.553      -3461.498       1074.2883      4973.2927     -8485.4738     -51.247214     -3046.411       6954.1902     -4880.1371     -468.57154      68511.873      40.918711      40.918711      40.918711      1.0682259      953.59129      1389.5992     -1304.3992    
     10600   10600          305.17575      246.09773      1936.4251      1690.474       5166.0213     -3475.5473      1057.3066      4931.7755     -8468.4273     -53.672843     -3013.7022      6954.6068     -4883.434      -468.46429      68527.557      40.921833      40.921833      40.921833      1.0679814     -274.39122      429.12554      583.55888    
     10700   10700          299.29694     -577.07317      990.32173      1567.6502      5066.5046     -3498.8544      1040.2992      4983.1397     -8478.3738     -52.349237     -3060.594       6955.474      -4886.4502     -467.97807      68598.756      40.936001      40.936001      40.936001      1.066873      -1701.3514      674.60002     -704.46815    
     10800   10800          299.79855      672.83385      2159.7126      1486.3811      5074.996      -3588.6149      1008.7305      4799.3255     -8473.9956     -50.719981     -2951.1084      6962.1621     -4883.009      -467.8391       68619.134      40.940054      40.940054      40.940054      1.0665562      704.57845      733.59236      580.33073    
     10900   10900          294.34762     -538.32338      970.67717      1511.0383      4982.7226     -3471.6843      1047.4156      5036.3613     -8509.486      -54.959358     -3063.4842      6960.9467     -4888.4784     -466.41961      68827.967      40.981544      40.981544      40.981544      1.0633201     -32.612204     -1435.0109     -147.34701    
     11000   11000          301.62811      302.45751      1898.9935      1594.7852      5105.9668     -3511.1816      1046.4393      4887.1703     -8503.3003     -50.174736     -2970.8265      6964.5148     -4885.0046     -465.49054      68965.341      41.008791      41.008791      41.008791      1.061202       350.24678      300.56469      256.56105    
     11100   11100          299.42058     -738.09121      900.55776      1643.0279      5068.5977     -3425.5698      1066.3814      4944.3805     -8449.9095     -52.602078     -3005.5769      6959.8018     -4888.0449     -465.42389      68975.217      41.010748      41.010748      41.010748      1.0610501     -917.56974     -1845.6962      548.99228    
     11200   11200          301.78783     -384.03606      1236.5238      1621.7365      5108.6706     -3486.9341      1066.7037      4975.6984     -8495.0361     -52.725918     -3054.0575      6959.6243     -4887.1411     -466.75511      68778.495      40.971722      40.971722      40.971722      1.0640849     -279.70325     -48.296693     -824.10822    
     11300   11300          301.38047      641.54262      2143.9211      1503.2989      5101.7747     -3598.4758      1009.128       4861.2388     -8480.2026     -50.7712       -3012.8409      6960.1687     -4885.1967     -468.85788      68470.032      40.91038       40.91038       40.91038       1.0688787     -793.06504      1465.1952      1252.4977    
     11400   11400          300.70536      525.3986       1975.7064      1451.8812      5090.3465     -3638.4653      987.89462      4949.9817     -8539.3158     -47.40004      -3049.4327      6950.7787     -4890.9717     -469.59142      68363.075      40.889067      40.889067      40.889067      1.070551       1161.9899      760.4652      -346.25934    
     11500   11500          297.38415      736.18082      2223.7679      1488.5486      5034.125      -3545.5764      1007.9387      4935.4277     -8483.8187     -51.4757       -3023.2952      6954.1699     -4884.5232     -468.79742      68478.861      40.912138      40.912138      40.912138      1.0687409      886.63317     -714.9746       2036.8839    
     11600   11600          302.69453     -390.27695      1206.0898      1596.6208      5124.0191     -3527.3983      1063.6207      4900.2449     -8486.6574     -51.639238     -3025.793       6958.9924     -4886.1666     -467.88057      68613.052      40.938844      40.938844      40.938844      1.0666507      709.3539      -668.40041     -1211.7843    
     11700   11700          300.79359     -324.27529      1310.4368      1634.9271      5091.84       -3456.9129      1035.8883      4995.1379     -8510.2982     -54.62669      -2998.8129      6959.0298     -4883.2312     -467.87486      68613.888      40.939011      40.939011      40.939011      1.0666377     -512.74621      1252.4477     -1712.5274    
     11800   11800          299.38405      1090.7172      2626.5563      1533.9263      5067.9793     -3534.0529      1025.4625      4943.2395     -8523.117      -52.677435     -2990.2248      6949.9134     -4886.6491     -467.3655       68688.668      40.953878      40.953878      40.953878      1.0654765      1149.3898      1606.6788      516.08288    
     11900   11900          296.85139     -1873.657      -482.76954      1398.0188      5025.1064     -3627.0876      1036.5299      4890.0423     -8486.0461     -52.183636     -3080.0314      6950.0248     -4885.4235     -466.40993      68829.395      40.981827      40.981827      40.981827      1.063298      -1580.5732     -1476.9807     -2563.4171    
     12000   12000          299.57255      49.846852      1470.9173      1421.0362      5071.1702     -3650.134       989.44818      4917.388      -8502.4809     -51.372388     -3070.7333      6952.6055     -4884.9891     -467.86406      68615.473      40.939326      40.939326      40.939326      1.0666131      955.72541     -848.84035      42.655495    
     12100   12100          298.90657     -458.4812       1038.3625      1494.9497      5059.8964     -3564.9468      1030.0977      4932.0744     -8520.543      -52.83652      -3028.027       6957.0398     -4882.7522     -470.12728      68285.154      40.873525      40.873525      40.873525      1.0717726     -1900.9842     -926.09812      1451.6387    
     12200   12200          302.55296      489.33044      2068.3179      1581.9388      5121.6226     -3539.6838      1000.8977      4986.3356     -8500.1762     -54.062643     -3039.5881      6950.3057     -4883.3959     -471.02609      68154.852      40.84751       40.84751       40.84751       1.0738217      704.13215     -573.55575      1337.4149    
     12300   12300          299.40763      608.38435      2190.5486      1584.9131      5068.3785     -3483.4653      1026.5215      4961.9651     -8462.6568     -52.669107     -3033.757       6960.6618     -4883.5309     -470.31016      68258.601      40.868227      40.868227      40.868227      1.0721896     -187.52004      43.208069      1969.465     
     12400   12400          298.32263     -91.080785      1422.9136      1513.7802      5050.0115     -3536.2313      1066.8125      4950.686      -8500.3987     -51.349505     -3069.7156      6954.0067     -4886.2725     -469.28825      68407.24       40.89787       40.89787       40.89787       1.0698599      424.62586     -1102.928       405.05981    
     12500   12500          296.9419       1359.859       2711.3883      1351.4425      5026.6385     -3675.196       1007.6426      4860.4804     -8496.349      -51.159715     -3057.1754      6949.9921     -4888.627      -468.15528      68572.789      40.930835      40.930835      40.930835      1.067277       1239.3305      2635.7095      204.53699    
     12600   12600          298.10291     -129.31915      1239.2302      1368.9169      5046.2921     -3677.3753      1025.9195      4807.036      -8486.9509     -48.408478     -3032.3819      6946.5156     -4889.1052     -466.85819      68763.308      40.968707      40.968707      40.968707      1.0643199     -964.83677      303.98796      272.89136    
     12700   12700          303.46529      532.84252      2001.5545      1466.4774      5137.0666     -3670.5892      997.94867      4894.3664     -8598.6472     -53.287994     -2977.7617      6952.0181     -4885.2255     -466.22986      68855.979      40.987103      40.987103      40.987103      1.0628875      1201.9981     -375.7074       772.23686    
     12800   12800          302.95959      145.47292      1665.0586      1518.5794      5128.506      -3609.9266      1024.0651      4895.4734     -8549.9175     -51.742332     -2999.8886      6957.357      -4885.2736     -464.96879      69042.728      41.024124      41.024124      41.024124      1.0600126     -1160.1853      952.04937      644.55472    
     12900   12900          299.34644      732.23255      2260.0881      1522.2736      5067.3426     -3545.069       1018.0268      4841.2302     -8484.392      -52.165343     -2940.4399      6959.3473     -4886.6761     -464.6431       69091.123      41.033707      41.033707      41.033707      1.0592701      1593.7101     -767.56521      1370.5528    
     13000   13000          298.44436     -1136.3898      427.3173       1571.3771      5052.0722     -3480.6951      1085.8317      4985.8342     -8547.5926     -51.115713     -3027.6346      6959.9439     -4885.962      -465.04635      69031.214      41.021843      41.021843      41.021843      1.0601894      421.16558     -1641.636      -2188.699     
     13100   13100          305.22162      267.51763      1939.4844      1670.969       5166.7978     -3495.8288      1010.9263      5024.1122     -8565.835      -51.548478     -2990.8159      6959.6444     -4882.3122     -466.44552      68824.144      40.980785      40.980785      40.980785      1.0633791     -431.86448      813.32578      421.09159    
     13200   13200          304.34292      27.033841      1726.3313      1699.2493      5151.9231     -3452.6738      1076.1196      4942.6315     -8484.1676     -54.768378     -3004.2752      6956.6848     -4884.8985     -467.35351      68690.43       40.954228      40.954228      40.954228      1.0654491      550.24752      18.850406     -487.99641    
     13300   13300          302.55373      478.09722      2042.0892      1563.8164      5121.6357     -3557.8193      1022.6881      4916.1181     -8499.5466     -51.197083     -3028.8223      6966.7082     -4883.7677     -468.01326      68593.598      40.934975      40.934975      40.934975      1.0669532      113.99133      315.29852      1005.0018    
     13400   13400          301.72691     -838.11965      649.67838      1488.9073      5107.6392     -3618.7319      1063.2799      4884.1156     -8494.948      -53.176901     -3091.9257      6960.5942     -4886.671      -467.5663       68659.169      40.948014      40.948014      40.948014      1.0659343      226.48634     -1554.5213     -1186.324     
     13500   13500          300.9234       1495.0436      2957.4534      1463.5929      5094.0374     -3630.4445      985.21628      4887.5876     -8515.0944     -48.882752     -3014.1765      6959.7466     -4884.8415     -468.55597      68514.149      40.919164      40.919164      40.919164      1.0681904      1908.6432      157.49574      2418.9919    
     13600   13600          300.39389     -80.350139      1408.18        1488.5658      5085.0739     -3596.5081      997.25277      5000.1503     -8523.445      -54.482226     -3103.1109      6973.2087     -4886.0817     -467.97723      68598.879      40.936025      40.936025      40.936025      1.0668711     -155.36899      23.386147     -109.06757    
     13700   13700          304.91772      1237.5812      2810.3672      1574.5356      5161.6534     -3587.1178      1039.1995      4927.5071     -8576.9745     -53.396593     -3006.2954      6966.5012     -4883.6592     -468.848        68471.474      40.910667      40.910667      40.910667      1.0688562      2019.3546      74.539271      1618.8499    
     13800   13800          303.40908     -434.3732       1196.1665      1629.8958      5136.1151     -3506.2192      1043.3559      4981.4334     -8498.4347     -52.241352     -3054.5388      6962.6993     -4888.4929     -468.88013      68466.782      40.909732      40.909732      40.909732      1.0689295     -192.37206     -898.28253     -212.46501    
     13900   13900          304.61357      1860.085       3396.8891      1540.0054      5156.5047     -3616.4994      953.5515       4942.7067     -8536.8152     -49.516754     -3003.2228      6961.2582     -4884.4611     -468.99231      68450.405      40.90647       40.90647       40.90647       1.0691852      2275.2195      1271.981       2033.0546    
     14000   14000          296.66463     -340.95363      1089.5825      1430.8975      5021.9449     -3591.0474      981.68452      4886.0577     -8451.5178     -52.81997      -3019.2706      6951.5897     -4886.771      -467.68943      68641.093      40.944421      40.944421      40.944421      1.0662149      708.32765     -1044.4868     -686.70179    
     14100   14100          300.20049      711.30698      2160.2433      1447.3146      5081.8001     -3634.4855      1009.8344      4913.1558     -8554.1857     -52.379939     -3023.6454      6956.0832     -4883.3478     -467.12015      68724.745      40.961047      40.961047      40.961047      1.0649171      408.86607      763.70593      961.34895    
     14200   14200          300.01382      190.58008      1701.5583      1510.4337      5078.6401     -3568.2063      995.05753      4936.8096     -8492.2049     -51.596765     -3038.1175      6966.4562     -4884.6106     -466.85131      68764.322      40.968908      40.968908      40.968908      1.0643042      1832.9789     -841.85618     -419.38247    
     14300   14300          301.07554     -219.52969      1386.3307      1606.7375      5096.6129     -3489.8754      1063.6224      4912.6537     -8490.391      -55.289818     -2995.7062      6958.3136     -4883.0781     -466.32183      68842.4        40.984408      40.984408      40.984408      1.0630972     -307.45845     -621.94115      270.81054    
     14400   14400          308.37459     -515.55819      1139.5731      1657.8604      5220.1714     -3562.311       1026.201       4893.2484     -8480.802      -47.797913     -3036.1964      6964.8527     -4881.8169     -465.71987      68931.381      41.002058      41.002058      41.002058      1.0617248      205.69339     -2225.3016      472.93361    
     14500   14500          299.2334      -274.2936       1310.1027      1585.9425      5065.429      -3479.4865      1016.8232      4992.3789     -8494.4154     -53.723247     -3008.0031      6950.0727     -4882.6196     -465.5608       68954.932      41.006727      41.006727      41.006727      1.0613622     -466.46478     -323.65648     -32.75954     
     14600   14600          297.10346     -814.13781      657.41746      1474.0671      5029.3734     -3555.3063      1038.603       4940.0646     -8516.7865     -49.227927     -3046.3927      6958.733      -4880.2998     -466.74512      68779.966      40.972015      40.972015      40.972015      1.0640622      373.07217     -1734.5494     -1080.9362    
     14700   14700          297.95111      1048.7338      2512.0358      1462.4445      5043.7224     -3581.2779      1037.7768      4855.3238     -8477.1253     -51.655703     -3020.3457      6955.9521     -4881.204      -467.80269      68624.475      40.941116      40.941116      40.941116      1.0664732     -157.15583      1264.1326      2039.2247    
     14800   14800          302.94178     -666.12939      875.52271      1541.4604      5128.2047     -3586.7442      1043.5787      4920.548      -8501.0363     -54.022518     -3072.1739      6955.3171     -4878.9553     -468.31991      68548.684      40.926038      40.926038      40.926038      1.0676523     -114.62825     -709.77442     -1173.9855    
     14900   14900          304.32883      161.25039      1776.4735      1615.5764      5151.6846     -3536.1082      1029.7096      4901.0983     -8442.9432     -52.855089     -3060.824       6971.0372     -4881.331      -469.21328      68418.17       40.900048      40.900048      40.900048      1.0696889      751.78239     -62.662815     -205.36839    
     15000   15000          302.84135      642.34527      2244.5739      1604.2456      5126.5045     -3522.2588      993.08449      5103.4587     -8577.0934     -53.816339     -3046.4492      6944.4257     -4885.8687     -469.65993      68353.103      40.887078      40.887078      40.887078      1.0707072      686.45126      770.90158      469.68296    
     15100   15100          294.87071     -413.79514      1011.67        1424.6467      4991.5773     -3566.9306      1033.2779      4811.0318     -8436.3721     -49.13083      -2997.3549      6955.5726     -4883.9551     -469.11303      68432.79       40.902961      40.902961      40.902961      1.0694604      105.25454     -208.42145     -1138.2185    
     15200   15200          297.49548      289.0835       1708.5439      1419.6726      5036.0096     -3616.337       987.35336      4941.8728     -8508.2662     -51.205326     -3043.262       6945.7401     -4888.5698     -468.52898      68518.096      40.91995       40.91995       40.91995       1.0681289      542.80788     -906.53669      1230.9793    
     15300   15300          297.28424     -144.04822      1355.2723      1499.2415      5032.4336     -3533.1921      986.02315      5035.3914     -8557.8004     -56.013291     -3004.9125      6950.2027     -4886.0831     -468.44193      68530.829      40.922485      40.922485      40.922485      1.0679305      1107.875      -1024.2506     -515.76907    
     15400   15400          302.70649      562.21526      2145.23        1582.7751      5124.2217     -3541.4466      1039.9197      4909.5742     -8517.1762     -53.664828     -2992.0513      6957.4038     -4885.452      -467.98564      68597.647      40.93578       40.93578       40.93578       1.0668902      887.52643     -519.29109      1318.4104    
     15500   15500          300.55594      436.1233       2004.6616      1567.6534      5087.8171     -3520.1637      1013.7653      4862.8628     -8486.1392     -49.229942     -2951.8163      6973.6252     -4883.2316     -467.2371       68707.543      40.957629      40.957629      40.957629      1.0651838     -74.846565      445.73337      937.48309    
     15600   15600          301.10201      532.98755      2062.1968      1527.0374      5097.0609     -3570.0235      1005.5225      4901.6036     -8502.1375     -52.90318      -2998.0377      6962.4409     -4886.5122     -466.28505      68847.83       40.985486      40.985486      40.985486      1.0630133      2415.4975      210.54051     -1027.0754    
     15700   15700          295.75254     -171.5086       1223.0213      1395.4354      5006.505      -3611.0696      1003.3694      4903.1097     -8506.7009     -49.815622     -3024.7494      6951.4241     -4887.7068     -465.72618      68930.447      41.001873      41.001873      41.001873      1.0617392     -45.241411     -856.95238      387.66801    
     15800   15800          294.77692     -106.50844      1273.5753      1380.5891      4989.9896     -3609.4005      1060.6315      4856.7528     -8540.7858     -50.21628      -3010.6385      6959.9695     -4885.1137     -465.97424      68893.751      40.994596      40.994596      40.994596      1.0623048      700.42405      378.96836     -1398.9177    
     15900   15900          297.62015     -297.40888      1198.6752      1497.0023      5038.1199     -3541.1176      1043.2584      4868.618      -8481.5193     -51.590811     -2984.3579      6950.6581     -4886.184      -466.74407      68780.121      40.972045      40.972045      40.972045      1.0640598      185.39081     -2637.1312      1559.5138    
     16000   16000          299.56839      1164.7794      2717.41        1550.6816      5071.0998     -3520.4182      1028.4763      4975.9267     -8531.8132     -52.246068     -3015.3254      6960.9359     -4886.3724     -467.40301      68683.155      40.952782      40.952782      40.952782      1.065562       1144.8493      1450.4508      899.03801    
     16100   16100          302.93824      205.76167      1766.5622      1560.1037      5128.1447     -3568.0411      1023.4758      4853.6353     -8476.6282     -51.015488     -2978.6788      6949.2299     -4888.0596     -466.60492      68800.632      40.976118      40.976118      40.976118      1.0637426     -785.29137      1230.6566      171.91982    
     16200   16200          297.72409     -493.81057      1041.0831      1537.6025      5039.8795     -3502.277       1023.422       4980.2494     -8495.2328     -53.929979     -3025.4128      6955.2658     -4886.6386     -465.6309       68944.552      41.00467       41.00467       41.00467       1.061522      -1045.355      -695.04618      258.96943    
     16300   16300          295.68875      137.51328      1559.3962      1421.2043      5005.4251     -3584.2208      1006.7108      4895.9311     -8468.3707     -48.641094     -3046.6817      6962.6965     -4885.8658     -465.88595      68906.809      40.997186      40.997186      40.997186      1.0621035     -252.71462     -72.629606      737.88407    
     16400   16400          295.64081      904.7664       2284.1847      1375.3515      5004.6136     -3629.2621      971.29507      4944.1561     -8550.9609     -51.138625     -3010.035       6953.6734     -4886.2522     -466.09011      68876.625      40.991199      40.991199      40.991199      1.0625689     -151.14371      2310.7662      554.67668    
     16500   16500          300.32366     -883.40652      599.99219      1487.8402      5083.885      -3596.0448      1008.9144      4901.7576     -8496.1346     -47.683161     -3032.5219      6955.2691     -4885.6463     -465.84305      68913.154      40.998444      40.998444      40.998444      1.0620057     -941.08563     -310.57715     -1398.5568    
     16600   16600          298.45919      1493.7699      3060.3673      1559.524       5052.3232     -3492.7992      998.29046      5040.591      -8519.3084     -51.667413     -3036.9506      6961.8332     -4885.5875     -465.97859      68893.108      40.994468      40.994468      40.994468      1.0623147      888.04162      1923.1375      1670.1305    
     16700   16700          300.54239     -557.7558       1026.8058      1587.1396      5087.5876     -3500.448       1057.557       4977.1165     -8547.0266     -49.690802     -3002.1651      6952.7604     -4888.9993     -466.03111      68885.345      40.992929      40.992929      40.992929      1.0624344      306.018       -1183.5422     -795.74324    
     16800   16800          301.97895      406.43256      1988.7887      1580.4276      5111.9057     -3531.4781      1028.2814      4927.8765     -8492.9368     -49.865832     -3016.6334      6957.8702     -4886.0702     -465.97409      68893.774      40.994601      40.994601      40.994601      1.0623044      110.24815     -313.09129      1422.1408    
     16900   16900          297.92691      197.14454      1686.4906      1488.5565      5043.3129     -3554.7563      990.2346       4898.4982     -8442.5031     -49.189527     -3022.3705      6957.4655     -4886.8914     -466.31774      68843.003      40.984528      40.984528      40.984528      1.0630878      32.85572       1062.2629     -503.68494    
     17000   17000          300.08459     -984.06247      416.89657      1403.0226      5079.8381     -3676.8155      979.1201       4892.2434     -8530.1118     -49.476909     -3037.3697      6954.2621     -4885.4828     -467.20544      68712.2        40.958554      40.958554      40.958554      1.0651116     -418.49323     -1633.6864     -900.00777    
     17100   17100          299.5435       525.71173      1982.1378      1456.3686      5070.6785     -3614.3098      991.92537      4975.3961     -8512.6431     -51.067736     -3062.657       6936.9022     -4892.1657     -468.13396      68575.913      40.931456      40.931456      40.931456      1.0672284      129.80927      1039.8239      407.50197    
     17200   17200          300.99592     -115.46876      1491.8786      1607.1761      5095.2651     -3488.089       1013.2913      4899.5113     -8456.2364     -52.214348     -2961.9674      6954.2306     -4884.7041     -468.88066      68466.705      40.909717      40.909717      40.909717      1.0689307     -2051.6164      1381.0552      324.15491    
     17300   17300          302.9429       551.34791      2158.8404      1607.8689      5128.2236     -3520.3546      984.05413      5008.6033     -8512.831      -56.061094     -3010.5358      6951.9187     -4885.5029     -468.50505      68521.595      40.920647      40.920647      40.920647      1.0680744      382.39438      878.48013      393.16921    
     17400   17400          298.9254       847.48672      2388.8378      1540.278       5060.2152     -3519.9373      1016.2965      5008.9675     -8535.6385     -54.864939     -3012.7691      6943.6185     -4885.5472     -467.59309      68655.236      40.947233      40.947233      40.947233      1.0659953      1109.8232      1282.9621      149.67484    
     17500   17500          298.02852     -1056.6733      385.59894      1447.0267      5045.0328     -3598.0061      1048.5659      4915.0984     -8526.4183     -56.461606     -3030.4529      6937.7216     -4886.0592     -466.08799      68876.938      40.991261      40.991261      40.991261      1.0625641     -938.6536      -1408.847      -822.51919    
     17600   17600          298.85679     -739.86087      698.98989      1442.8164      5059.0538     -3616.2374      1034.7533      4825.479      -8427.1645     -53.000587     -3066.2126      6955.5493     -4885.6412     -465.68905      68935.942      41.002963      41.002963      41.002963      1.0616546     -543.101       -162.81958     -1513.662     
     17700   17700          301.83216      1039.5319      2660.0052      1617.164       5109.4209     -3492.2569      1056.2362      4926.0478     -8536.1595     -56.11855      -2955.3991      6957.0069     -4883.8707     -466.69941      68786.703      40.973352      40.973352      40.973352      1.0639579      1585.8885      1670.3724     -137.66514    
     17800   17800          300.58584     -802.97791      837.29195      1642.5386      5088.3233     -3445.7847      1080.7273      5041.73       -8534.6609     -49.250396     -3046.3574      6945.5522     -4883.5256     -466.86609      68762.144      40.968475      40.968475      40.968475      1.064338      -136.52608     -1750.4489     -521.95871    
     17900   17900          301.49153      718.38003      2281.6063      1562.614       5103.6547     -3541.0407      1051.7812      4921.804      -8500.8394     -48.449867     -3017.788       6937.5435     -4885.092      -467.7865       68626.85       40.941588      40.941588      40.941588      1.0664362     -645.40807      1328.3612      1472.187     
     18000   18000          300.74834      395.93972      1883.76        1487.5527      5091.074      -3603.5213      1002.4747      4943.4806     -8512.1752     -51.05018      -3041.1087      6944.4042     -4889.5467     -467.86898      68614.751      40.939182      40.939182      40.939182      1.0666243      397.88716     -123.57626      913.50828    
     18100   18100          299.07894     -193.37165      1297.9441      1491.4499      5062.8144     -3571.3645      1043.7638      4964.9647     -8575.3054     -55.377667     -3000.009       6936.5506     -4885.9516     -467.86064      68615.974      40.939425      40.939425      40.939425      1.0666053     -105.99716     -318.69827     -155.41953    
     18200   18200          303.941       -127.35124      1476.2454      1603.7406      5145.1194     -3541.3787      1041.9088      4859.3913     -8439.1838     -50.668509     -3023.2711      6954.8766     -4884.432      -467.65638      68645.944      40.945385      40.945385      40.945385      1.0661396      454.64509      667.8387      -1504.5375    
     18300   18300          305.35887      184.9974       1871.6633      1686.2951      5169.1212     -3482.826       1012.83        5000.5715     -8461.1668     -52.847987     -3038.8542      6943.1035     -4886.462      -467.24864      68705.848      40.957292      40.957292      40.957292      1.0652101     -192.0592       1462.8429     -715.79152    
     18400   18400          299.6137       282.2621       1908.7793      1625.6682      5071.8668     -3446.1986      1054.3296      5004.1926     -8521.6912     -52.081714     -2984.2383      6943.0051     -4889.7147     -466.78114      68774.658      40.970961      40.970961      40.970961      1.0641443      602.04498      8.5203583      236.22097    
     18500   18500          303.01437      542.19646      2109.8539      1564.6906      5129.4334     -3564.7429      984.17648      4897.9425     -8439.2643     -51.592628     -3011.8368      6946.5315     -4890.6997     -465.63726      68943.61       41.004483      41.004483      41.004483      1.0615365     -102.10588      13.255181      1715.4401    
     18600   18600          297.3761      -169.13479      1347.786       1518.1483      5033.9887     -3515.8404      1006.7058      4992.4814     -8497.7941     -54.345899     -3025.8504      6948.9607     -4885.9979     -464.81175      69066.055      41.028743      41.028743      41.028743      1.0596546      220.42812     -774.3149       46.482419    
     18700   18700          300.57181     -217.97212      1318.7364      1538.1325      5088.0856     -3549.9531      1077.7996      4843.7621     -8512.1724     -51.874946     -2972.4283      6951.6732     -4886.7124     -465.14645      69016.357      41.0189        41.0189        41.0189        1.0604176     -239.56913     -271.83343     -142.5138     
     18800   18800          301.78787     -571.89389      1053.0115      1628.4747      5108.6712     -3480.1965      1054.0917      4940.5145     -8471.7709     -53.714225     -3019.6214      6958.6134     -4888.3096     -465.28121      68996.368      41.01494       41.01494       41.01494       1.0607248     -565.75212     -1286.0401      136.11053    
     18900   18900          303.89377      607.14614      2385.7285      1775.6151      5144.32       -3368.7048      1046.6193      5006.816      -8461.1296     -55.824327     -2983.8494      6961.5719     -4882.9088     -465.90815      68903.525      40.996535      40.996535      40.996535      1.0621541      1240.0476      724.13829     -142.74749    
     19000   19000          305.04406     -365.88691      1353.8793      1721.5962      5163.792      -3442.1957      1029.2102      5015.9933     -8486.5973     -56.454483     -2999.6652      6942.0076     -4886.6897     -465.85517      68911.361      40.998089      40.998089      40.998089      1.0620333     -1149.2989     -906.89154      958.52976    
     19100   19100          302.02929      391.40861      2024.9088      1631.1382      5112.758      -3481.6198      1007.8399      5053.2642     -8530.6477     -49.776896     -3031.9918      6957.6611     -4887.9686     -465.37683      68982.191      41.01213       41.01213       41.01213       1.0609428      985.13757      887.94832     -698.86008    
     19200   19200          299.28067      36.665337      1599.1876      1562.3328      5066.2293     -3503.8966      1064.7537      4918.4212     -8539.112      -51.731686     -2972.786       6959.5914     -4883.0331     -465.77776      68922.813      41.00036       41.00036       41.00036       1.0618568     -557.25897     -127.76779      795.02277    
     19300   19300          298.36597      141.01791      1653.0935      1511.4193      5050.7451     -3539.3258      1029.6333      4902.2581     -8489.4944     -52.227331     -3009.9413      6966.5753     -4886.1296     -466.01625      68887.541      40.993364      40.993364      40.993364      1.0624005      43.257632     -143.72388      523.51997    
     19400   19400          296.87831     -1280.3275      234.51268      1521.6984      5025.562      -3503.8636      1091.3592      4851.6127     -8447.4208     -51.286044     -3024.8514      6961.1026     -4884.3798     -465.69064      68935.707      41.002916      41.002916      41.002916      1.0616582     -1896.6826     -2042.4326      98.132749    
     19500   19500          307.68816      833.24958      2492.6272      1654.4657      5208.5515     -3554.0857      1020.8891      4878.3801     -8497.87       -53.763581     -2985.5902      6967.609      -4883.7401     -465.44145      68972.615      41.010232      41.010232      41.010232      1.0610901     -104.22859      1995.5328      608.44451    
     19600   19600          304.165       -1200.4199      490.67681      1698.6256      5148.9112     -3450.2856      1057.6471      5000.0902     -8519.4355     -54.730709     -3007.6732      6962.5278     -4888.7114     -465.26706      68998.467      41.015356      41.015356      41.015356      1.0606925     -562.36617     -1994.2019     -1044.6916    
     19700   19700          302.69429      11.305639      1631.5767      1620.2185      5124.0151     -3503.7966      1044.9196      4943.1276     -8462.388      -51.974476     -3049.4585      6958.1333     -4886.1561     -466.01869      68887.18       40.993293      40.993293      40.993293      1.0624061      1001.8526     -1101.2519      133.31619    
     19800   19800          299.84476      601.36669      2143.9835      1541.2086      5075.7782     -3534.5696      1014.7021      4900.1851     -8526.3386     -53.105855     -2936.07        6953.3319     -4887.2742     -467.09139      68728.978      40.961888      40.961888      40.961888      1.0648516      665.4107       350.8947       787.79466    
     19900   19900          298.50064     -22.835804      1512.142       1535.0593      5053.0249     -3517.9656      1018.3304      5023.4551     -8526.7104     -52.628815     -3041.1944      6948.2664     -4887.4838     -466.52001      68813.154      40.978604      40.978604      40.978604      1.063549      -25.498214     -246.73411      203.72492    
     20000   20000          302.30945      460.16771      1989.351       1526.938       5117.5005     -3590.5625      1006.0798      4849.0488     -8482.2178     -51.040933     -2982.3138      6957.8824     -4888.0011     -465.91178      68902.987      40.996428      40.996428      40.996428      1.0621624      226.73353      1019.5519      134.2177     
     20100   20100          297.299       -1024.407       425.5694       1458.4008      5032.6835     -3574.2827      1032.5488      5015.4157     -8595.5625     -55.043524     -3033.778       6949.2844     -4887.1475     -464.36632      69132.305      41.041858      41.041858      41.041858      1.0586391     -506.96316     -1046.3944     -1519.8634    
     20200   20200          296.53794     -161.64469      1210.3955      1373.5163      5019.8003     -3646.284       990.08776      4979.5182     -8539.6048     -51.644855     -3090.5127      6953.2101     -4887.3376     -463.94827      69194.597      41.054181      41.054181      41.054181      1.0576861      322.025       -1075.933       268.97392    
     20300   20300          298.97798     -528.32698      909.48672      1441.3275      5061.1052     -3619.7777      1021.6081      4854.9519     -8529.5804     -50.879341     -2985.3641      6954.0782     -4884.5921     -465.09192      69024.45       41.020503      41.020503      41.020503      1.0602933     -1452.5698      29.611737     -162.02293    
     20400   20400          306.66568     -875.97571      676.69786      1554.715       5191.2428     -3636.5278      1050.8067      4914.7917     -8538.3147     -52.715695     -3067.4215      6946.0473     -4889.7216     -467.0966       68728.211      40.961735      40.961735      40.961735      1.0648634      535.25289     -2403.6561     -759.52397    
     20500   20500          302.98842      832.2462       2375.5773      1547.1226      5128.994      -3581.8714      994.49554      4894.9841     -8493.8627     -50.272019     -3002.9753      6962.8039     -4887.0448     -470.32788      68256.03       40.867714      40.867714      40.867714      1.07223        1156.1487      1794.3875     -453.79764    
     20600   20600          300.32512      739.82691      2210.7869      1477.1309      5083.9097     -3606.7788      1006.4866      4953.636      -8548.2853     -51.572975     -3040.4743      6960.3046     -4886.8734     -472.12319      67996.477      40.815846      40.815846      40.815846      1.0763228      581.06714      701.90972      936.50387    
     20700   20700          297.51937      471.2658       1870.1036      1401.9946      5036.414      -3634.4193      1010.9102      4878.7317     -8493.4541     -50.369415     -3037.2363      6946.2225     -4889.224      -471.34247      68109.105      40.838369      40.838369      40.838369      1.074543      -754.08802      1919.7841      248.10135    
     20800   20800          299.28026      107.42852      1507.8476      1400.6361      5066.2223     -3665.5862      1014.4253      4862.4669     -8458.4653     -50.88008      -3091.9431      6946.7098     -4887.8996     -469.13298      68429.88       40.902381      40.902381      40.902381      1.0695059     -772.57163      187.55821      907.29897    
     20900   20900          300.8116       323.70632      1860.4084      1536.5998      5092.1449     -3555.545       1013.8252      4914.9157     -8445.9733     -50.847043     -3061.1453      6958.0614     -4884.3817     -468.03735      68590.069      40.934273      40.934273      40.934273      1.0670081     -148.84382      269.32562      850.63716    
     21000   21000          302.86035     -1028.8454      571.17586      1601.8189      5126.8261     -3525.0072      1049.0406      4866.1941     -8471.8784     -50.509823     -2992.8536      6960.8302     -4885.8303     -467.36855      68688.22       40.953789      40.953789      40.953789      1.0654834     -979.36319     -885.40797     -1221.7651    
     21100   21100          301.31639     -148.90061      1398.0156      1547.3573      5100.6899     -3553.3327      1018.0163      4977.4048     -8521.3804     -51.500078     -3057.374       6962.5511     -4881.0504     -466.80251      68771.51       40.970335      40.970335      40.970335      1.064193      -166.08488     -311.79499      31.178029    
     21200   21200          296.46479      354.13655      1821.9434      1466.4562      5018.562      -3552.1059      1004.2015      4935.6788     -8480.9289     -54.043071     -3038.3365      6965.7124     -4884.39       -466.40628      68829.934      40.981934      40.981934      40.981934      1.0632897     -67.828108      1011.3307      118.90709    
[...]
    495200   495200         302.67796     -665.93622      891.00868      1560.0415      5123.7387     -3563.6972      1042.5909      4895.549      -8532.3147     -51.475749     -2964.0788      6934.6412     -4888.609      -466.01816      68887.259      40.993308      40.993308      40.993308      1.0624049     -812.05221     -1137.9516     -47.804842    
    495300   495300         299.58659      581.81786      2097.3665      1514.0748      5071.4079     -3557.3331      1021.9359      4842.029      -8466.533      -48.073633     -2964.643       6948.8962     -4890.9447     -467.00216      68742.109      40.964496      40.964496      40.964496      1.0646482     -1164.0575      316.1137       2593.3974    
    495400   495400         299.46251      78.582977      1539.3152      1460.3801      5069.3074     -3608.9274      1013.5862      4913.8363     -8553.3673     -52.543421     -2988.3196      6947.6405     -4889.76       -466.09607      68875.744      40.991024      40.991024      40.991024      1.0625825     -784.33227      927.86442      92.216777    
    495500   495500         295.13725     -1144.1983      224.89472      1377.8906      4996.0894     -3618.1988      978.17871      4963.5173     -8524.2522     -52.10565      -3035.1024      6940.0533     -4888.4878     -464.61279      69095.63       41.034599      41.034599      41.034599      1.059201      -1835.2741     -1929.8057      332.48497    
    495600   495600         298.98197      1026.8063      2415.4876      1380.6096      5061.1728     -3680.5632      960.79252      4936.0779     -8556.5253     -51.72667      -3032.0957      6949.031      -4886.1169     -464.53346      69107.431      41.036935      41.036935      41.036935      1.0590201      769.49023      1007.0963      1303.8323    
    495700   495700         299.65679     -655.0441       871.7775       1532.7003      5072.5962     -3539.8958      995.60693      4987.8593     -8526.4908     -51.705007     -3001.4905      6942.0715     -4885.7473     -464.02076      69183.788      41.052043      41.052043      41.052043      1.0578513      394.39427     -1059.3218     -1300.2047    
    495800   495800         304.87034      750.95545      2359.1173      1601.7739      5160.8512     -3559.0774      1037.8337      4928.3562     -8563.6371     -56.175066     -2960.9078      6940.6086     -4885.1559     -464.2361       69151.696      41.045695      41.045695      41.045695      1.0583422      269.10321      513.81148      1469.9516    
    495900   495900         299.97119     -1163.2931      435.37517      1609.0065      5077.9184     -3468.9119      1060.4562      4986.6486     -8519.4179     -50.569702     -3004.8626      6942.2687     -4883.4352     -464.06102      69177.786      41.050856      41.050856      41.050856      1.0579431     -1156.6892     -1123.3771     -1209.8129    
    496000   496000         298.19536      273.77048      1833.4395      1557.6428      5047.8571     -3490.2143      1013.3864      5029.3539     -8494.9895     -56.238285     -3031.5026      6933.5498     -4883.7741     -464.74551      69075.899      41.030693      41.030693      41.030693      1.0595035      529.86175      141.65439      149.79531    
    496100   496100         298.46308      28.266522      1489.4831      1461.1235      5052.389      -3591.2656      987.44331      4945.3963     -8522.904      -50.019756     -2995.623       6931.4954     -4887.0538     -466.64773      68794.32       40.974865      40.974865      40.974865      1.0638401      412.52834      263.3782      -591.10698    
    496200   496200         297.02583      149.27095      1532.9126      1383.2196      5028.0593     -3644.8397      959.83962      5038.939      -8580.8377     -52.179419     -3056.6735      6933.4663     -4887.3939     -466.86527      68762.266      40.9685        40.9685        40.9685        1.0643361     -575.042        747.10177      275.75309    
    496300   496300         300.9102      -961.39305      526.25555      1490.2962      5093.8139     -3603.5178      1007.8872      4903.4903     -8495.8508     -53.885426     -3017.3214      6939.7206     -4887.5583     -466.89937      68757.244      40.967502      40.967502      40.967502      1.0644138     -1507.6857     -86.38648      -1290.107     
    496400   496400         298.83445      870.84279      2462.8243      1588.994       5058.6756     -3469.6816      1033.9586      4983.3994     -8552.0339     -54.006467     -2943.2655      6947.6693     -4885.403      -466.58449      68803.644      40.976716      40.976716      40.976716      1.063696       799.23549      943.04404      870.24883    
    496500   496500         301.93515     -1493.9452      93.762594      1597.5045      5111.1643     -3513.6599      1083.322       4945.206      -8506.6738     -53.49917      -3033.6403      6941.2066     -4889.5812     -465.135        69018.057      41.019237      41.019237      41.019237      1.0603915     -2318.4097     -1614.3749     -549.05116    
    496600   496600         302.92162      741.48046      2293.6587      1547.4284      5127.8633     -3580.4349      1022.1401      4888.7334     -8509.8123     -50.628676     -2996.0202      6949.5508     -4884.398      -465.2051       69007.656      41.017176      41.017176      41.017176      1.0605513     -172.1953       2165.8759      230.76072    
    496700   496700         297.77676     -789.26549      674.53259      1469.5455      5040.771      -3571.2256      1022.6846      4914.0582     -8538.4991     -51.049559     -2979.9657      6947.0809     -4885.5348     -464.80049      69067.727      41.029075      41.029075      41.029075      1.0596289     -1096.9738     -537.76124     -733.06142    
    496800   496800         297.49516      360.95406      1827.5678      1463.3889      5036.0042     -3572.6153      1000.7129      4974.928      -8544.8619     -54.230528     -3007.2388      6945.735      -4887.66       -464.03931      69181.022      41.051496      41.051496      41.051496      1.0578936      47.727718      505.90476      529.2297     
    496900   496900         302.177       -334.17006      1239.3321      1576.6263      5115.2585     -3538.6321      1008.1958      4955.8544     -8497.3485     -51.02249      -3003.0047      6935.8674     -4887.174      -463.84863      69209.461      41.057121      41.057121      41.057121      1.0574589     -97.700218     -661.04398     -243.766      
    497000   497000         299.96836      1122.9623      2799.9779      1666.8849      5077.8706     -3410.9856      975.11849      5027.5397     -8470.9701     -56.425979     -2933.9175      6937.33       -4889.6602     -463.99927      69186.992      41.052677      41.052677      41.052677      1.0578023      1511.2311      1200.5805      657.07535    
    497100   497100         300.69974     -568.38038      1078.7771      1652.5642      5090.2513     -3437.6871      1009.047       4984.8187     -8476.8369     -53.608212     -2963.5439      6945.1138     -4882.6777     -463.77355      69220.665      41.059336      41.059336      41.059336      1.0572877     -1126.0657     -854.72155      275.64614    
    497200   497200         298.41472     -91.23124       1470.1962      1562.1965      5051.5705     -3489.374       1047.98        4916.3126     -8485.9918     -53.343302     -2971.0593      6946.4691     -4889.7414     -464.27163      69146.404      41.044648      41.044648      41.044648      1.0584232      246.16517      575.46282     -1095.3217    
    497300   497300         302.90794      769.13252      2215.6684      1440.4714      5127.6317     -3687.1604      994.08467      4864.4503     -8592.3042     -51.294735     -2968.1483      6950.8393     -4884.7875     -464.52247      69109.066      41.037259      41.037259      41.037259      1.0589951      839.52555      1225.7704      242.10161    
    497400   497400         296.18078     -213.39393      1203.499       1418.4522      5013.7543     -3595.3021      1014.9112      4846.6646     -8492.1152     -52.978854     -2964.9957      6939.9673     -4886.7554     -464.78888      69069.452      41.029416      41.029416      41.029416      1.0596024     -28.193292     -827.45336      215.46486    
    497500   497500         300.76233     -249.13186      1204.0095      1454.5239      5091.3109     -3636.787       1037.8561      4816.747      -8481.4598     -54.363097     -3002.2398      6933.8035     -4887.1309     -465.60135      68948.927      41.005537      41.005537      41.005537      1.0614547     -0.094260898   -348.30119     -399.00012    
    497600   497600         295.79036      178.79079      1689.1924      1509.6802      5007.1452     -3497.465       1057.0048      4962.416      -8509.3055     -50.934157     -3018.2664      6945.8284     -4884.2081     -466.30372      68845.073      40.984938      40.984938      40.984938      1.0630559      1220.3104     -77.388452     -606.54956    
    497700   497700         300.67724      386.49641      1965.9849      1578.716       5089.8704     -3511.1544      1008.9907      5057.2546     -8535.7806     -50.836629     -3032.0276      6928.7554     -4887.5101     -467.25135      68705.449      40.957213      40.957213      40.957213      1.0652162      120.19847      1085.9498     -46.659058    
    497800   497800         301.25826     -923.47792      661.82413      1586.0051      5099.706      -3513.7009      1054.8299      4983.3717     -8495.537      -53.252282     -3064.1658      6946.1926     -4885.1399     -467.82899      68620.616      40.940349      40.940349      40.940349      1.0665331     -2001.5248     -598.52119     -170.38778    
    497900   497900         302.8677       1558.2315      3036.471       1480.0927      5126.9506     -3646.8579      969.00842      4813.6341     -8486.6899     -53.714663     -2953.6836      6950.943      -4886.3552     -468.74265      68486.864      40.913732      40.913732      40.913732      1.068616       1656.0908      2065.322       953.28183    
    498000   498000         296.18091     -51.690437      1331.2876      1383.0055      5013.7565     -3630.751       1003.5196      4879.3792     -8481.0215     -50.533828     -3033.6214      6939.1212     -4887.5942     -467.93681      68604.805      40.937204      40.937204      40.937204      1.0667789      240.73652      787.82916     -1183.637     
    498100   498100         296.30286     -532.65312      888.90432      1422.6989      5015.8208     -3593.1219      1043.2885      4880.792      -8518.6891     -49.933441     -2994.7395      6933.5246     -4887.365      -467.184        68715.353      40.959181      40.959181      40.959181      1.0650627     -628.31389     -618.37455     -351.27091    
    498200   498200         300.70221     -934.36263      577.24109      1515.0582      5090.2931     -3575.2349      1041.8278      4959.8953     -8525.4033     -54.059129     -3052.9548      6941.3243     -4885.865      -466.4606       68821.92       40.980343      40.980343      40.980343      1.0634135     -570.78243      34.777127     -2267.0826    
    498300   498300         298.52375      233.83488      1792.0882      1556.8405      5053.4161     -3496.5756      1028.5775      4872.9003     -8464.9626     -51.418607     -2944.1232      6948.3606     -4885.9096     -465.37352      68982.682      41.012228      41.012228      41.012228      1.0609353     -715.84111      348.288        1069.0578    
    498400   498400         301.30954     -847.26137      722.76728      1577.542       5100.5741     -3523.0321      1004.1199      5045.3698     -8537.9746     -54.914383     -3036.3442      6943.1191     -4886.4077     -464.06989      69176.463      41.050595      41.050595      41.050595      1.0579633     -1865.7751      26.673365     -702.68237    
    498500   498500         301.21596     -120.91421      1416.626       1538.6321      5098.9899     -3560.3577      1013.417       4942.2037     -8554.7362     -50.316009     -2973.1411      6946.0974     -4883.8825     -463.99482      69187.655      41.052808      41.052808      41.052808      1.0577922      531.29349      308.87738     -1202.9135    
    498600   498600         299.42917     -651.69245      755.8567       1413.7317      5068.7431     -3655.0115      1000.7219      4866.8749     -8509.5418     -50.221064     -3019.8542      6943.6344     -4886.6256     -463.78528      69218.915      41.05899       41.05899       41.05899       1.0573145     -1094.2034     -1085.1736      224.29963    
    498700   498700         297.29919     -350.0829       1038.2285      1390.6841      5032.6868     -3642.0027      1035.0882      4856.79       -8546.1839     -48.743248     -3003.3627      6945.9408     -4881.5318     -465.03342      69033.133      41.022223      41.022223      41.022223      1.0601599      142.5714      -559.15567     -633.66443    
    498800   498800         294.44811      399.31034      1928.3685      1528.3274      4984.4236     -3456.0961      1049.8387      5031.1667     -8548.5615     -54.695918     -2984.6076      6937.3324     -4886.5689     -467.32998      68693.889      40.954916      40.954916      40.954916      1.0653955     -1279.9572     -503.88216      2981.7704    
    498900   498900         301.19004     -48.35352       1525.0085      1573.3977      5098.5512     -3525.1534      1031.1129      4952.4609     -8490.3703     -49.581847     -3026.8604      6943.4527     -4885.3674     -467.84012      68618.984      40.940024      40.940024      40.940024      1.0665585      719.60169      401.57283     -1266.2351    
    499000   499000         298.78239      159.55223      1700.361       1540.3986      5057.7943     -3517.3957      1035.8937      4996.3885     -8530.2716     -54.672101     -3020.8682      6939.7684     -4883.6344     -466.98478      68744.668      40.965004      40.965004      40.965004      1.0646085     -1200.4456     -90.707868      1769.8101    
    499100   499100         292.95105     -1195.8175      264.07024      1462.8109      4959.0813     -3496.2705      1058.4799      4984.5141     -8522.0972     -52.692874     -3000.3189      6922.5277     -4886.6832     -467.04347      68736.03       40.963289      40.963289      40.963289      1.0647423     -1095.8523     -2459.6948     -31.905315    
    499200   499200         298.25217      880.71043      2347.5144      1465.6858      5048.8188     -3583.133       1009.8874      4866.3329     -8503.0008     -52.33295      -2962.5967      6942.2631     -4883.6859     -467.5915       68655.468      40.947279      40.947279      40.947279      1.0659917      863.86393      2012.1679     -233.90054    
    499300   499300         301.66719      560.12198      2141.8576      1580.4918      5106.6284     -3526.1365      1025.1222      4959.7471     -8513.2332     -54.32459      -3014.8031      6954.7108     -4883.3558     -467.14781      68720.676      40.960238      40.960238      40.960238      1.0649802      449.82382      590.61524      639.92687    
    499400   499400         307.08001     -287.04702      1379.0214      1667.0942      5198.2567     -3531.1625      1035.8328      4967.0561     -8560.1112     -52.639194     -2991.6406      6950.7356     -4880.396      -466.51797      68813.456      40.978663      40.978663      40.978663      1.0635443      361.42927      151.70269     -1374.273     
    499500   499500         303.68863      656.77681      2275.1622      1614.7711      5140.8474     -3526.0763      1035.5902      5008.9357     -8575.9836     -55.087523     -2993.9262      6939.4301     -4885.035      -465.6228       68945.751      41.004907      41.004907      41.004907      1.0615036      1095.6238      1073.6283     -198.92164    
    499600   499600         297.97534     -695.32952      833.31415      1531.9169      5044.1327     -3512.2158      1047.6973      4887.7856     -8462.1355     -50.155572     -2995.1484      6943.1172     -4883.3764     -465.99153      68891.195      40.994089      40.994089      40.994089      1.0623442     -711.71213     -1329.5982     -44.678228    
    499700   499700         299.4402       504.60026      2026.2727      1520.9259      5068.9298     -3548.0039      1004.4242      5073.2471     -8615.9329     -54.950482     -3010.0886      6937.8202     -4882.5235     -467.49347      68669.866      40.950141      40.950141      40.950141      1.0657682      1585.2929      252.78794     -324.28004    
    499800   499800         300.59302      383.85515      1917.7863      1533.2423      5088.4448     -3555.2025      1027.5397      4903.123      -8496.4057     -51.321083     -3006.4898      6952.2281     -4883.8768     -467.34637      68691.479      40.954437      40.954437      40.954437      1.0654329     -745.59282     -173.4141       2070.5724    
    499900   499900         299.50094     -366.24622      1238.7987      1606.1072      5069.9579     -3463.8508      1046.4781      5047.779      -8519.4374     -55.521595     -3031.6713      6935.3792     -4886.8568     -466.83109      68767.299      40.969499      40.969499      40.969499      1.0642582     -368.21183     -222.3672      -508.15964    
    500000   500000         306.79315      1062.2422      2777.9813      1713.6828      5193.4006     -3479.7178      1028.4936      5009.8869     -8506.738      -51.192425     -3006.8075      6934.2414     -4887.6018     -467.28057      68701.153      40.956359      40.956359      40.956359      1.0652828      1084.1317      1307.2733      795.32147    
Loop time of 2123.43 on 1 procs for 500000 steps with 7020 atoms

Performance: 20.344 ns/day, 1.180 hours/ns, 235.469 timesteps/s, 1.653 Matom-step/s
99.9% CPU use with 1 MPI tasks x 1 OpenMP threads

MPI task timing breakdown:
Section |  min time  |  avg time  |  max time  |%varavg| %total
---------------------------------------------------------------
Pair    | 1001.8     | 1001.8     | 1001.8     |   0.0 | 47.18
Bond    | 184.85     | 184.85     | 184.85     |   0.0 |  8.71
Kspace  | 436.3      | 436.3      | 436.3      |   0.0 | 20.55
Neigh   | 154.6      | 154.6      | 154.6      |   0.0 |  7.28
Comm    | 15.337     | 15.337     | 15.337     |   0.0 |  0.72
Output  | 8.5373     | 8.5373     | 8.5373     |   0.0 |  0.40
Modify  | 261.19     | 261.19     | 261.19     |   0.0 | 12.30
Other   |            | 60.78      |            |       |  2.86

Nlocal:           7020 ave        7020 max        7020 min
Histogram: 1 0 0 0 0 0 0 0 0 0
Nghost:          19749 ave       19749 max       19749 min
Histogram: 1 0 0 0 0 0 0 0 0 0
Neighs:              0 ave           0 max           0 min
Histogram: 1 0 0 0 0 0 0 0 0 0
FullNghs:  4.56302e+06 ave 4.56302e+06 max 4.56302e+06 min
Histogram: 1 0 0 0 0 0 0 0 0 0

Total # of neighbors = 4563022
Ave neighs/atom = 650.00313
Ave special neighs/atom = 5.7008547
Neighbor list builds = 14753
Dangerous builds = 0

# --- Cleanup ---
unfix npt_fix
unfix shake_fix
undump dump_npt

# --- Write Output ---
write_dump all custom /home/arz2/PolyJarvis/data/PEG3/lammps/mechanical/bm_series/bm_P0/bm_P0_last.dump id type mol x y z xu yu zu vx vy vz modify sort id
write_data /home/arz2/PolyJarvis/data/PEG3/lammps/mechanical/bm_series/bm_P0/bm_P0_out.data
System init for write_data ...
PPPM Kokkos initialization ...
  using 12-bit tables for long-range coulomb
  G vector (1/distance) = 0.30322916
  grid = 30 30 30
  stencil order = 5
  estimated absolute RMS force accuracy = 0.00030349519
  estimated relative force accuracy = 9.1396675e-07
  using double precision cuFFT
  3d grid and FFT values/proc = 50653 27000
Generated 10 of 10 mixed pair_coeff terms from sixthpower/sixthpower mixing rule

print "STAGE COMPLETE: NPT T=300.0->300.0K P=0.0->0.0atm steps=500000"
STAGE COMPLETE: NPT T=300.0->300.0K P=0.0->0.0atm steps=500000
quit
