LAMMPS data file via write_data, version 22 Jul 2025, timestep = 1000000, units = real

4020 atoms
6 atom types
4010 bonds
7 bond types
7600 angles
12 angle types
9570 dihedrals
14 dihedral types
4800 impropers
11 improper types

1.303471134671316 41.02098810533389 xlo xhi
1.303471134671316 41.02098810533389 ylo yhi
1.303471134671316 41.02098810533389 zlo zhi

Masses

1 12.01115
2 12.01115
3 1.00797
4 1.00797
5 32.064
6 32.064

Pair Coeffs # lj/class2/coul/long/gpu

1 0.054 4.01
2 0.054 4.01
3 0.02 2.995
4 0.02 2.995
5 0.071 4.027
6 0.071 4.027

Bond Coeffs # class2

1 1.53 299.67 -501.77 679.81
2 1.101 345 -691.89 844.6
3 1.823 225.277 -327.706 488.972
4 1.101 345 -691.89 844.6
5 1.823 225.277 -327.706 488.972
6 1.823 225.277 -327.706 488.972
7 1.3261 275.112 -531.318 562.963

Angle Coeffs # class2

1 112.67 39.516 -7.443 -9.5583
2 110.77 41.453 -10.604 5.129
3 112.564 47.0276 -10.679 -10.1687
4 112.564 47.0276 -10.679 -10.1687
5 97.5 57.6938 -5.0559 -11.8206
6 110.77 41.453 -10.604 5.129
7 112.564 47.0276 -10.679 -10.1687
8 96.8479 56.7336 14.2713 0
9 107.66 39.641 -12.921 -2.4318
10 107.852 51.4949 -13.527 7.026
11 107.852 51.4949 -13.527 7.026
12 107.852 51.4949 -13.527 7.026

BondBond Coeffs

1 0 1.53 1.53
2 3.3872 1.53 1.101
3 10.9186 1.53 1.823
4 10.9186 1.53 1.823
5 -22.3144 1.823 1.823
6 3.3872 1.53 1.101
7 10.9186 1.53 1.823
8 -0.57 1.823 1.3261
9 5.3316 1.101 1.101
10 7.0463 1.101 1.823
11 7.0463 1.101 1.823
12 7.0463 1.101 1.823

BondAngle Coeffs

1 8.016 8.016 1.53 1.53
2 20.754 11.421 1.53 1.101
3 -3.5621 22.3865 1.53 1.823
4 -3.5621 22.3865 1.53 1.823
5 -13.0015 -13.0015 1.823 1.823
6 20.754 11.421 1.53 1.101
7 -3.5621 22.3865 1.53 1.823
8 10.7325 5.1221 1.823 1.3261
9 18.103 18.103 1.101 1.101
10 9.3225 44.9874 1.101 1.823
11 9.3225 44.9874 1.101 1.823
12 9.3225 44.9874 1.101 1.823

Dihedral Coeffs # class2

1 0 0 0.0316 0 -0.1681 0
2 -0.7017 0 0.0201 0 0.104 0
3 -0.4871 0 -0.4514 0 -0.1428 0
4 -0.5073 0 0.0155 0 -0.0671 0
5 -0.3338 0 -0.0684 0 -0.1706 0
6 -0.5073 0 0.0155 0 -0.0671 0
7 -0.3338 0 -0.0684 0 -0.1706 0
8 -0.1432 0 0.0617 0 -0.1083 0
9 -0.2078 0 -0.106 0 -0.3595 0
10 -0.2078 0 -0.106 0 -0.3595 0
11 -0.2078 0 -0.106 0 -0.3595 0
12 -0.5374 0 -0.5091 0 -0.1361 0
13 -1.2002 0 -1.2999 0 -0.1626 0
14 -1.2002 0 -1.2999 0 -0.1626 0

AngleAngleTorsion Coeffs

1 -16.164 112.67 110.77
2 -26.71 112.67 112.564
3 -28.1728 112.564 96.8479
4 -32.8949 112.564 97.5
5 -26.49 97.5 107.852
6 -32.8949 112.564 97.5
7 -26.49 97.5 107.852
8 -12.564 110.77 110.77
9 -13.1026 110.77 112.564
10 -13.1026 110.77 112.564
11 -13.1026 110.77 112.564
12 -18.6334 107.852 96.8479
13 -13.9674 112.564 112.564
14 -13.9674 112.564 112.564

EndBondTorsion Coeffs

1 0.2486 0.2422 -0.0925 0.0814 0.0591 0.2219 1.53 1.101
2 -0.1586 -0.7244 -0.2608 -0.7991 -0.959 0.5855 1.53 1.823
3 0.1026 0.0936 -0.0404 -0.3008 0.0606 0.4501 1.53 1.3261
4 -0.2542 -0.7984 -0.6525 -0.3047 -0.0109 -0.3763 1.53 1.823
5 0.2592 -0.0166 0.1306 -0.41 0.0668 0.4187 1.823 1.101
6 -0.2542 -0.7984 -0.6525 -0.3047 -0.0109 -0.3763 1.53 1.823
7 0.2592 -0.0166 0.1306 -0.41 0.0668 0.4187 1.823 1.101
8 0.213 0.312 0.0777 0.213 0.312 0.0777 1.101 1.101
9 -0.1526 -0.371 0.1048 1.0661 0.3298 0.425 1.101 1.823
10 -0.1526 -0.371 0.1048 1.0661 0.3298 0.425 1.101 1.823
11 -0.1526 -0.371 0.1048 1.0661 0.3298 0.425 1.101 1.823
12 0.4376 0.2001 -1.0696 0.2902 0.0695 0.1726 1.101 1.3261
13 -0.3252 0.5008 0.5191 -0.3252 0.5008 0.5191 1.823 1.823
14 -0.3252 0.5008 0.5191 -0.3252 0.5008 0.5191 1.823 1.823

MiddleBondTorsion Coeffs

1 -14.879 -3.6581 -0.3138 1.53
2 -4.2593 -5.6468 -3.3835 1.53
3 0.502 -1.0204 -0.9177 1.823
4 -2.5172 -2.0107 -2.8547 1.823
5 -0.6955 -2.9427 -1.2372 1.823
6 -2.5172 -2.0107 -2.8547 1.823
7 -0.6955 -2.9427 -1.2372 1.823
8 -14.261 -0.5322 -0.4864 1.53
9 -5.7537 -2.0104 0.2813 1.53
10 -5.7537 -2.0104 0.2813 1.53
11 -5.7537 -2.0104 0.2813 1.53
12 -0.3729 0.5373 -0.7035 1.823
13 1.7001 -3.3479 -0.8067 1.53
14 1.7001 -3.3479 -0.8067 1.53

BondBond13 Coeffs

1 0 1.53 1.101
2 0 1.53 1.823
3 0 1.53 1.3261
4 0 1.53 1.823
5 0 1.823 1.101
6 0 1.53 1.823
7 0 1.823 1.101
8 0 1.101 1.101
9 0 1.101 1.823
10 0 1.101 1.823
11 0 1.101 1.823
12 0 1.101 1.3261
13 0 1.823 1.823
14 0 1.823 1.823

AngleTorsion Coeffs

1 -0.2454 0 -0.1136 0.3113 0.4516 -0.1988 112.67 110.77
2 -2.0927 -0.1498 -1.7848 1.1179 0.3638 0.9423 112.67 112.564
3 -0.6045 3.8941 0.8885 1.0193 -0.6016 0.2097 112.564 96.8479
4 5.1289 2.0927 -2.4004 -4.5489 0.0886 0.6237 112.564 97.5
5 -1.0888 -0.2 -0.0909 0.5962 3.3479 0.2265 97.5 107.852
6 5.1289 2.0927 -2.4004 -4.5489 0.0886 0.6237 112.564 97.5
7 -1.0888 -0.2 -0.0909 0.5962 3.3479 0.2265 97.5 107.852
8 -0.8085 0.5569 -0.2466 -0.8085 0.5569 -0.2466 110.77 110.77
9 -2.0382 0.2102 -0.9023 0.3322 -0.0519 -0.3553 110.77 112.564
10 -2.0382 0.2102 -0.9023 0.3322 -0.0519 -0.3553 110.77 112.564
11 -2.0382 0.2102 -0.9023 0.3322 -0.0519 -0.3553 110.77 112.564
12 -2.2533 2.6948 -0.1723 1.434 -0.1915 -0.2611 107.852 96.8479
13 -5.0565 -0.6355 0.6015 -5.0565 -0.6355 0.6015 112.564 112.564
14 -5.0565 -0.6355 0.6015 -5.0565 -0.6355 0.6015 112.564 112.564

Improper Coeffs # class2

1 0 0
2 0 0
3 0 0
4 0 0
5 0 0
6 0 0
7 0 0
8 0 0
9 0 0
10 0 0
11 0 0

AngleAngle Coeffs

1 0.2738 -0.4825 0.2738 110.77 110.77 107.66
2 2.7985 -3.0031 -0.0668 110.77 112.564 107.852
3 -0.3157 -0.3157 -0.3157 107.66 107.66 107.66
4 0.5086 0.5086 -0.064 107.66 107.852 107.852
5 -1.3199 -1.3199 0.1184 112.67 110.77 110.77
6 -0.2564 -0.2564 -0.8766 112.67 112.564 112.564
7 -0.2564 -0.2564 -0.8766 112.67 112.564 112.564
8 2.7985 -3.0031 -0.0668 110.77 112.564 107.852
9 2.7985 -3.0031 -0.0668 110.77 112.564 107.852
10 -0.0668 -3.0031 2.7985 112.564 110.77 107.852
11 -0.0668 -3.0031 2.7985 112.564 110.77 107.852

Atoms # full

3392 9 1 -0.159 4.689074867065095 4.44993445404471 3.7367090484505616 1 1 0
3395 9 3 0.053 5.246751461707128 5.373553561614692 3.6736934222313726 1 1 0
3390 9 2 0.012 3.2510813798621245 4.809028696481143 4.0483333814614655 1 1 0
3389 9 3 0.053 2.1847444415436903 5.28406029333339 2.0686465473816567 1 1 0
3396 9 6 -0.13 2.904113240395308 5.279716669474885 5.692336450946767 1 1 0
737 2 3 0.053 4.834147863432323 3.5509064000834 7.65315185116706 -1 0 0
735 2 3 0.053 6.111434054885462 2.383084945065489 5.568334946603212 -1 0 0
734 2 3 0.053 6.876312113236376 3.058124098540717 6.880817167338105 -1 0 0
733 2 1 -0.041 6.1493477662404645 2.2117360874422034 6.694822716037595 -1 0 0
2139 6 3 0.053 13.78301045417396 1.676989137104683 18.42487936959419 0 1 0
2085 6 3 0.053 19.91663532199176 15.456735643642737 20.941303502038753 0 1 0
2846 8 3 0.053 9.308863950238187 20.558368370523972 17.340598880556364 0 -1 0
1433 4 3 0.053 10.203882736403457 3.252729641825969 2.216860285028197 0 0 0
812 3 3 0.053 9.819050138330017 20.808713849005812 6.368419385551332 0 -1 0
712 2 6 -0.13 13.274192592300546 1.349063682423397 6.305224018017502 -1 0 0
1483 4 3 0.053 11.826449651326257 7.973278486257862 4.720154953651286 0 0 0
1561 4 3 0.053 21.158545578853087 17.093043028271154 11.520189662732399 0 0 0
1388 4 3 0.053 20.886372027606146 3.5430578711827256 8.473705989600239 0 0 0
1429 4 3 0.053 12.002230229304963 5.589608458611166 2.1686007429621785 0 0 0
731 2 3 0.053 9.138366031506608 2.22350468063509 5.3566663192955355 -1 0 0
2226 6 1 -0.159 7.763919379321397 9.207223847186086 19.08740748966619 0 1 0
1436 4 6 -0.13 9.101434405064952 5.9324656270236575 2.2610113680765664 0 0 0
2074 6 2 0.012 21.07133865215708 17.008569451840753 18.00692588802068 0 1 0
1049 3 3 0.053 19.97501299667798 16.975322433578846 4.589371898497102 0 -1 0
1658 5 6 -0.13 3.2504492405109633 3.941646757895949 19.749294996983625 1 1 0
2090 6 6 -0.13 19.798646814514814 13.131370038098058 20.074749032991647 0 1 0
1485 4 3 0.053 11.663947487680318 6.691135993363759 5.779192264280612 0 0 0
1400 4 2 0.012 16.837042190278563 5.8817369524088114 5.700860909796836 0 0 0
1401 4 3 0.053 17.533174521211944 6.582021778334529 6.207519204090805 0 0 0
1406 4 6 -0.13 16.922863591523715 6.224906222552801 3.8896542712362883 0 0 0
1402 4 1 -0.159 15.396137731506455 5.950141707213255 6.304912747801184 0 0 0
1403 4 3 0.053 15.046293132799489 7.009225991412417 6.378245888597862 0 0 0
1405 4 3 0.053 14.620663817148078 5.316424039277408 5.818213826307033 0 0 0
2052 6 3 0.053 12.628228176087505 13.171698377178922 19.773217243196598 0 1 0
1482 4 1 -0.159 12.323987480342467 7.528950401177014 5.600137226144724 0 0 0
1057 3 3 0.053 18.49991598313029 15.34183041814165 2.607290404051975 0 -1 0
1484 4 3 0.053 13.339828711838825 7.267208276983084 5.386463749865618 0 0 0
1418 4 3 0.053 14.607398478213174 6.234534956284978 2.130884721196112 0 0 0
1387 4 1 -0.041 20.737730050471413 3.289316596922517 7.4561544555279085 0 0 0
1569 4 3 0.053 19.727502595459487 14.714600693783598 12.751564117429655 0 0 0
1397 4 1 -0.041 17.41237939684446 4.397255381120641 5.900723000793014 0 0 0
1399 4 3 0.053 17.19484428972603 3.9255225091188217 6.907265481430223 0 0 0
1398 4 3 0.053 16.712909918093207 3.8522531625470635 5.288735813141548 0 0 0
2045 6 3 0.053 11.877842034915622 16.972949318163817 20.595386624361247 0 1 0
118 1 3 0.053 12.198743876673944 19.628362973038776 19.64859973134745 0 1 0
1386 4 6 -0.13 20.19674731919228 1.5041090502915198 7.735660279990244 0 0 0
1193 3 3 0.053 1.6513542069328708 16.555277474365738 5.291932317455998 1 -1 0
3391 9 3 0.053 2.680238986474311 3.864701692590912 4.013829718014643 1 1 0
3388 9 3 0.053 1.7960465591128199 6.1999049577437555 3.395034086569461 1 1 0
3387 9 1 -0.041 2.6644217147135163 5.685305820263913 2.9613491822624862 1 1 0
3386 9 6 -0.13 3.693846141651439 6.956545172939096 2.0989003995791067 1 1 0
1549 4 3 0.053 20.680648219338348 15.158172721052049 6.968415343437715 0 0 0
2841 8 3 0.053 13.125046033454812 20.10767346747342 15.76772799763448 0 -1 0
1440 4 2 0.012 8.38609682753463 8.71598309068556 1.627709330702375 0 0 0
1391 4 3 0.053 18.92109161223904 4.455572445574635 7.677577506113894 0 0 0
3382 9 1 -0.159 1.710468930285878 8.779380788539642 1.3506940531283684 1 1 0
2084 6 2 0.012 20.60221657966863 14.615806358224784 20.757789424293026 0 1 0
1707 5 3 0.053 5.176755052295496 11.739825193318378 6.7029813106001415 1 1 0
1705 5 3 0.053 6.863797078630882 11.709291864876942 7.2623455377013695 1 1 0
1704 5 1 -0.159 5.91514677084117 11.133217474724985 7.237931115642877 1 1 0
1706 5 3 0.053 6.2171833893175235 10.25558875930551 6.521808381847881 1 1 0
2224 6 2 0.012 7.222315633804328 10.409684616620156 19.879155238228556 0 1 0
2048 6 3 0.053 10.773525374292952 16.08721090883947 18.52429348061913 0 1 0
2029 6 3 0.053 17.065637306223937 17.803414166400692 20.24046718965749 0 1 0
1439 4 3 0.053 10.433768006637626 7.948968692436039 1.9634833424375433 0 0 0
1438 4 3 0.053 9.510118380394115 7.963991492219519 3.441302451107795 0 0 0
1437 4 1 -0.041 9.410945953394284 7.726626655821925 2.3161472599166126 0 0 0
2855 8 1 -0.041 5.779942201425727 20.779917047961696 18.23430397044818 0 -1 0
1659 5 1 -0.041 3.1971660451176227 5.783615200077445 20.01205460882068 1 1 0
1190 3 1 -0.159 2.224089740178064 16.87639251569781 4.364563281746798 1 -1 0
1441 4 3 0.053 7.415106326253502 8.422729067159043 2.1955033994103914 0 0 0
2136 6 1 -0.159 14.508349839824069 1.5433630580316815 19.323487761006014 0 1 0
1446 4 6 -0.13 9.10103953080615 10.329611935999422 1.9309978116636546 0 0 0
1448 4 3 0.053 6.943636778072226 11.514288027353956 1.6478649647347248 0 0 0
1458 4 3 0.053 11.359059196008532 13.113579722322454 3.085917757253207 0 0 0
1459 4 3 0.053 10.74725980533474 14.686387150807118 2.1220658453350874 0 0 0
1468 4 3 0.053 12.923460728775604 12.11215606125302 4.606635547107117 0 0 0
1457 4 1 -0.041 10.597775899972909 13.946569984246757 2.973066062157162 0 0 0
1409 4 3 0.053 14.890713931316885 7.571275154592107 4.142882127105184 0 0 0
1407 4 1 -0.041 15.943000596751137 7.806715331628419 3.9093609433859884 0 0 0
1408 4 3 0.053 16.405537822746293 8.522788721814463 4.660876311135235 0 0 0
1414 4 3 0.053 15.40652135542502 10.487824649187235 3.5985682750266474 0 0 0
1412 4 1 -0.159 15.16555660290456 9.874360580473645 2.6908351176648924 0 0 0
1410 4 2 0.012 16.1907208024927 8.609773676034074 2.6881180177239665 0 0 0
1411 4 3 0.053 17.262850787153948 9.020342203359903 2.7484330018282384 0 0 0
1413 4 3 0.053 14.143826283645703 9.495757237970103 3.0055246038323853 0 0 0
1052 3 3 0.053 20.960803031605202 19.672331394099356 3.532832174933473 0 -1 0
1294 4 3 0.053 2.371537726099803 4.163697699252674 14.56719425277432 1 0 0
1543 4 3 0.053 18.583049843061318 12.012881148744675 3.6368287803012547 0 0 0
1479 4 3 0.053 12.48248121443639 9.951553993854759 5.193177339464488 0 0 0
1469 4 3 0.053 13.712887185106956 13.750773216318699 4.8567721260502354 0 0 0
1467 4 1 -0.041 13.092759001923648 12.949255407938967 5.321728028456195 0 0 0
1390 4 2 0.012 19.733063754797637 4.405159388850396 6.980764112504974 0 0 0
1555 4 3 0.053 19.24020068445329 17.71708310410486 7.503235156571789 0 0 0
2228 6 3 0.053 8.865710365495676 9.114033059082605 19.086333056067545 0 1 0
2050 6 6 -0.13 13.572298184049316 15.419637142536855 19.941137749649755 0 1 0
1188 3 2 0.012 1.337774440017511 16.97935516876265 3.1422979322373656 1 -1 0
1055 3 1 -0.041 19.431424184417537 15.289593165677692 1.9498997753548526 0 -1 0
1736 5 3 0.053 7.18854575800661 18.302327276793257 9.995908380823495 1 1 0
1734 5 1 -0.159 6.546551056160965 17.494805021585503 9.875110701883889 1 1 0
2093 6 3 0.053 17.67523681892811 12.405004189104833 20.548610350813885 0 1 0
1529 4 3 0.053 21.159309012784956 12.155048388799184 8.222534644590578 0 0 0
2857 8 3 0.053 4.708902008562435 20.71460135230888 18.209405539441732 0 -1 0
2053 6 3 0.053 13.802197598576246 13.55531433520803 21.151905403365312 0 1 0
1394 4 3 0.053 19.991467265545737 6.632568045811051 6.902263507409467 0 0 0
2123 6 3 0.053 20.61955384863809 4.1975079766557215 20.68616743904172 0 1 0
2216 6 1 -0.159 3.4720581745380787 13.960326323093868 19.06153724890642 0 1 0
2124 6 2 0.012 18.48488107749859 4.026757791108062 20.65907881427124 0 1 0
1456 4 6 -0.13 8.831772502963622 13.68846394448279 3.0874603617645016 0 0 0
1460 4 2 0.012 11.125875972216566 14.804674253648868 4.247260942805636 0 0 0
1462 4 1 -0.159 10.171836499876006 16.06762895945148 4.446658153016666 0 0 0
1464 4 3 0.053 9.209542348902655 15.656922602762288 4.528331494950707 0 0 0
1465 4 3 0.053 10.369060585352257 16.720644852353555 5.245554695270773 0 0 0
1103 3 3 0.053 20.243976464688057 9.313334003279099 1.723063779643224 0 -1 0
2125 6 3 0.053 17.609809721783645 4.662881801566392 20.42021232831836 0 1 0
2695 7 3 0.053 10.322420144808907 5.05673851226065 20.520940768784744 -1 1 0
1044 3 6 -0.13 17.48695512278647 16.79793558697422 4.650116123477022 0 -1 0
1038 3 2 0.012 15.667193403437983 17.36754388605674 4.89597271290195 0 -1 0
1042 3 3 0.053 16.020210132487563 18.28847830077358 6.834043207347033 0 -1 0
1040 3 1 -0.159 15.587945868306718 18.60130951442342 5.847094820352816 0 -1 0
1039 3 3 0.053 15.308943163487411 16.401127905048718 5.385311922524403 0 -1 0
1466 4 6 -0.13 11.430868835330953 13.650161006582586 5.61501106368255 0 0 0
1463 4 3 0.053 10.256388599579758 16.658224605285323 3.519183223878571 0 0 0
1461 4 3 0.053 12.087582877023108 15.159900309068648 3.8473400669642586 0 0 0
1544 4 3 0.053 17.239506387363672 12.703694815947744 4.460949516412888 0 0 0
1034 3 6 -0.13 15.087118679401726 16.434574670416993 2.2123309935827127 0 -1 0
1541 4 3 0.053 19.324077386828595 14.134576862663781 4.718282899104288 0 0 0
1553 4 3 0.053 19.419987198791773 17.822191062044865 9.224498454631442 0 0 0
1045 3 1 -0.041 18.533214946677703 18.20263166134402 3.76317577747808 0 -1 0
3886 10 3 0.053 20.968391335049546 20.114685353066328 20.6874572442626 1 1 0
1301 4 3 0.053 1.8917037971438129 3.286938215184365 12.359469334430116 1 0 0
1548 4 3 0.053 19.318394021166768 15.810976634943207 6.132841949110616 0 0 0
116 1 1 -0.159 11.991713308467316 20.001092028744946 20.679564716813665 0 1 0
1186 3 3 0.053 3.007677532404232 16.791319873508183 1.6694281758535152 1 -1 0
1735 5 3 0.053 6.78487601542598 17.081095704660857 8.889753693200493 1 1 0
1185 3 1 -0.041 2.1185056678335252 17.570686071227197 1.8978674469866543 1 -1 0
2218 6 3 0.053 4.225342850566595 14.306418144709664 19.644267693815383 0 1 0
1192 3 3 0.053 3.1170623036579226 16.27350698236459 4.108898106572624 1 -1 0
1187 3 3 0.053 2.4411191832436785 18.6178309234764 2.2621775531795016 1 -1 0
810 3 1 -0.159 8.723843161068217 21.090446796455776 6.343542181998638 0 -1 0
2049 6 3 0.053 10.594638703043783 14.502884949185193 19.42019163361341 0 1 0
705 2 3 0.053 14.894092968111735 1.5286497049744119 3.5254443995255267 -1 0 0
1056 3 3 0.053 19.975399256732448 14.39282375281499 2.3980699419085387 0 -1 0
2120 6 6 -0.13 19.982064962590496 6.036504732491435 19.249815634663296 0 1 0
811 3 3 0.053 8.205993204718727 20.39452700401634 5.630741858012485 0 -1 0
1043 3 3 0.053 14.534186331382935 18.89628035634235 5.986903087924221 0 -1 0
1036 3 3 0.053 13.904349186314244 17.95564774920713 3.6932662805248837 0 -1 0
1041 3 3 0.053 16.315052660084444 19.36340737674456 5.479826855776397 0 -1 0
1037 3 3 0.053 15.42417322384047 18.51503690865074 3.083657578164724 0 -1 0
1035 3 1 -0.041 14.969829012547166 17.684928785647944 3.4826790222636492 0 -1 0
1029 3 3 0.053 13.262764007078822 17.99348996359882 1.5048561800046434 0 -1 0
1046 3 3 0.053 18.40516736266271 19.081153546007847 4.4353955384004475 0 -1 0
1047 3 3 0.053 18.04117816178167 18.417556776845487 2.8021163558311932 0 -1 0
2072 6 3 0.053 19.27120043410192 16.480897161280854 19.201669420224114 0 1 0
3394 9 3 0.053 5.205192092548268 3.9219312174430816 4.479673078553979 1 1 0
747 2 3 0.053 4.179391060407391 3.7461866527869025 11.02073426704814 -1 0 0
746 2 2 0.012 5.212524384635169 3.5281346256108566 11.325782068282905 -1 0 0
752 2 6 -0.13 5.21923747302941 2.297990875687412 12.709145025067102 -1 0 0
742 2 6 -0.13 5.094058649799965 1.7253308485045913 9.116207331100478 -1 0 0
744 2 3 0.053 6.079873031731976 4.000862024538021 9.457505567479313 -1 0 0
743 2 1 -0.041 6.017117218741874 3.034916638569186 10.08180634020954 -1 0 0
745 2 3 0.053 7.002077836307332 2.6112961173173153 10.28744360367256 -1 0 0
736 2 2 0.012 4.874844512884677 2.4681252064832493 7.4995719626777175 -1 0 0
2044 6 2 0.012 11.971024319102035 15.855126973390872 20.525774359582908 0 1 0
749 2 3 0.053 5.438660090597881 5.540252006560863 10.69318289384814 -1 0 0
750 2 3 0.053 4.980701754742943 5.521074349818091 12.297337642814137 -1 0 0
748 2 1 -0.159 5.580611697713144 5.0136538565484985 11.696410881089873 -1 0 0
751 2 3 0.053 6.658439264224338 5.107291426075216 11.948012118098658 -1 0 0
1283 4 3 0.053 1.5716586177466807 1.5493143287993 20.545045645176103 1 0 0
727 2 3 0.053 8.374095199551428 2.3270894007063703 7.520258774094955 -1 0 0
2489 7 3 0.053 4.201755144892133 1.8758551278004723 3.415030060974984 0 1 1
1415 4 3 0.053 15.118169660984579 10.450195620450542 1.771868025084201 0 0 0
722 2 6 -0.13 10.696188728840333 1.512185026332298 9.158664152026542 -1 0 0
1487 4 1 -0.041 11.216419236857247 7.722040176547797 9.177055633063281 0 0 0
1494 4 3 0.053 10.17071168703272 5.2042025146397 9.04376275899362 0 0 0
1495 4 3 0.053 11.986875822007306 5.0308997825374835 9.211178496127848 0 0 0
1493 4 3 0.053 10.807730853968936 4.663969515271371 10.595981254467944 0 0 0
1492 4 1 -0.159 11.079994963283106 5.336404815032235 9.698108496087494 0 0 0
1490 4 2 0.012 11.092611232781914 6.712191401715029 10.248836293891065 0 0 0
1491 4 3 0.053 10.07473616646287 6.86338633828618 10.673579171738009 0 0 0
3393 9 3 0.053 4.923616663718952 4.059477514686309 2.6771386078586303 1 1 0
1191 3 3 0.053 2.792686716054756 17.824220847709125 4.514318795436931 1 -1 0
1396 4 6 -0.13 19.031616993086395 4.0764545904614575 5.32162995335012 0 0 0
1404 4 3 0.053 15.312149905357655 5.463355829347252 7.331019770351732 0 0 0
1505 4 3 0.053 15.895368499432832 4.253783466513761 11.797634773542917 0 0 0
2027 6 3 0.053 15.392857761666706 18.213463081903353 20.117014437265276 0 1 0
1498 4 3 0.053 12.621103460846562 4.429649295196344 11.99346590122309 0 0 0
1499 4 3 0.053 13.74621899667076 5.576837121106242 12.952466643000802 0 0 0
1497 4 1 -0.041 13.217921145607086 5.452922219423107 11.98975207301631 0 0 0
1500 4 2 0.012 14.382963649717432 5.6168187000992145 10.95448856825611 0 0 0
1501 4 3 0.053 14.122397598066291 5.634336087346328 9.913716803238854 0 0 0
1507 4 1 -0.041 16.756721533243223 7.066651424709545 10.332872644837128 0 0 0
1486 4 6 -0.13 12.7456162332593 7.754331767294657 8.292780611386247 0 0 0
1496 4 6 -0.13 12.006272429827325 6.8611824925530644 11.885777446708857 0 0 0
1508 4 3 0.053 16.488308961564705 6.5316370085488975 9.383478261352415 0 0 0
1509 4 3 0.053 17.564023116211114 6.561580759502618 10.819390740902989 0 0 0
1506 4 6 -0.13 15.287198592230991 7.146303698996407 11.362023374380634 0 0 0
1502 4 1 -0.159 15.277888894683953 4.266342698474846 10.981915646942106 0 0 0
1503 4 3 0.053 15.904026937651565 4.186771013037236 10.13030336035679 0 0 0
1504 4 3 0.053 14.752426920093423 3.310541360409388 10.92198735239547 0 0 0
1661 5 3 0.053 2.6788726324623435 6.196916338553076 20.915037199411998 1 1 0
1710 5 3 0.053 2.6432554996479416 10.378422780475454 10.31010716201048 1 1 0
1703 5 3 0.053 4.871777393161189 9.755503541944401 8.463253053965932 1 1 0
1699 5 1 -0.041 6.716085837625108 9.793094767968174 9.204195515615043 1 1 0
1702 5 2 0.012 5.513222634636878 10.6028759377707 8.690003675877913 1 1 0
1698 5 6 -0.13 6.577151561313618 8.669501825931187 10.617498916523566 1 1 0
1701 5 3 0.053 7.03533771199426 9.055353330997496 8.465480180905761 1 1 0
1708 5 6 -0.13 4.5762921167536215 11.83464138405979 9.759338238891207 1 1 0
1700 5 3 0.053 7.482637910151976 10.528820467921115 9.240512166452742 1 1 0
1488 4 3 0.053 10.430484574550105 7.334040213392679 8.460459790803636 0 0 0
1697 5 3 0.053 8.686409911634584 8.680599103372172 12.475375568586806 1 1 0
1481 4 3 0.053 11.066075433700954 8.688951089787311 6.979465320874095 0 0 0
1692 5 2 0.012 6.8396845779261 9.668899418976313 12.118555755335326 1 1 0
1693 5 3 0.053 6.220417058289647 10.532493597538863 11.948037832506552 1 1 0
1696 5 3 0.053 8.751181229793328 10.315643725581777 13.184984740559432 1 1 0
1694 5 1 -0.159 8.31436982125399 9.757246905134757 12.344128296452604 1 1 0
1695 5 3 0.053 8.881073653771054 10.237299945140533 11.505095649748966 1 1 0
1476 4 6 -0.13 12.587923141790206 11.124410374499329 7.4554498129317865 0 0 0
1471 4 3 0.053 13.439800601845356 13.320382278147 7.34777888168476 0 0 0
1489 4 3 0.053 10.956073323068395 8.675205893137074 9.339459392734248 0 0 0
1511 4 3 0.053 17.259276529825538 9.149091528660845 10.94748943553268 0 0 0
1510 4 2 0.012 17.264558739958392 8.533200773432016 10.044646690737014 0 0 0
1480 4 2 0.012 12.136687245627005 8.550158733953992 6.738093964464229 0 0 0
1477 4 1 -0.041 12.843454716772808 9.790539418731148 6.238842046937891 0 0 0
1515 4 3 0.053 15.419633984221715 9.554291386543811 9.253597039739056 0 0 0
1478 4 3 0.053 13.925207780688499 9.548492839787192 6.205854404357125 0 0 0
1474 4 3 0.053 15.19342268302756 11.802943010109386 5.437149509568408 0 0 0
1470 4 2 0.012 13.672698310702891 12.5153468568451 6.634758419131433 0 0 0
1472 4 1 -0.159 15.139616557638654 12.169400109101659 6.402767346433409 0 0 0
1475 4 3 0.053 15.675996153613228 11.52062604221875 7.138213225096619 0 0 0
1473 4 3 0.053 15.789152681526366 13.170362768151794 6.40099560203636 0 0 0
2167 6 3 0.053 14.481179893077368 9.989377727529464 10.833252999160582 0 1 0
1513 4 3 0.053 16.27984969693576 8.661641169286296 7.943445535458424 0 0 0
1512 4 1 -0.159 16.39092158632264 9.229294355497608 8.904167951285027 0 0 0
1514 4 3 0.053 16.763171982731777 10.326762200788503 8.699216220785852 0 0 0
2179 6 3 0.053 16.583691453070863 13.929214350424939 9.95323782797971 0 1 0
1516 4 6 -0.13 19.063783166604136 8.218438634485207 9.583257753943645 0 0 0
1517 4 1 -0.041 20.032243704912798 9.700051240750138 9.993818289478925 0 0 0
1519 4 3 0.053 19.547041846880443 10.513340720437448 9.441308438251715 0 0 0
1518 4 3 0.053 20.046931141815822 9.927388021935974 11.079400309838046 0 0 0
1552 4 1 -0.159 19.73039928811977 17.277093698800005 8.357189466150015 0 0 0
1538 4 3 0.053 21.013131834086717 11.944357954576597 4.283635403563767 0 0 0
1737 5 3 0.053 6.897939230209183 16.8764814992942 10.687626694972277 1 1 0
1717 5 3 0.053 2.614454999275936 13.67206102253098 9.647335613754914 1 1 0
2132 6 3 0.053 16.663681477252336 1.647360614415665 20.756940237077345 0 1 0
1395 4 3 0.053 20.962973195987605 5.743997743332129 8.22897971593757 0 0 0
1731 5 3 0.053 4.903411426531023 15.683548616218312 10.150468907552238 1 1 0
1709 5 1 -0.041 3.389173724241792 11.021270738608669 10.823418231007004 1 1 0
1713 5 3 0.053 2.147764527039952 11.906486323711984 12.325191191582066 1 1 0
1711 5 3 0.053 3.8966904593223823 10.436355521273342 11.599803500663047 1 1 0
1712 5 2 0.012 2.7385988253086775 12.295225169228122 11.46307694546726 1 1 0
1714 5 1 -0.159 2.013744723795757 13.041981089210385 10.290310761322548 1 1 0
1718 5 6 -0.13 3.9062068597793638 13.438503145740883 12.11478901474211 1 1 0
1719 5 1 -0.041 2.8653369913612905 14.70786515088989 12.845307943209331 1 1 0
1720 5 3 0.053 2.97724987754785 14.619328027540599 14.032473864867887 1 1 0
1721 5 3 0.053 1.7975339609303302 14.498159570565024 12.714369188408876 1 1 0
1722 5 2 0.012 2.9074117939156787 16.20305416573913 12.552223510474926 1 1 0
1723 5 3 0.053 3.874998646149947 16.536875218525772 12.95044122466214 1 1 0
2188 6 3 0.053 12.2204474280074 17.028454626531005 14.371131963403657 0 1 0
1545 4 3 0.053 17.885687570663784 11.264144867884571 5.184414483917261 0 0 0
2182 6 3 0.053 12.017442591083064 14.025339990043642 11.776117469886543 0 1 0
2175 6 3 0.053 14.188997140310128 13.35686349687659 11.025606916952258 0 1 0
2183 6 3 0.053 11.482720111482788 15.590383722402478 11.983561609685992 0 1 0
2178 6 3 0.053 15.11519364035856 14.291066169989259 9.161939553275953 0 1 0
2181 6 1 -0.041 12.303321808457348 14.929962206227566 12.226479229215967 0 1 0
1542 4 1 -0.159 18.200482272502935 12.159589251184643 4.612614522578722 0 0 0
1546 4 6 -0.13 18.93954713895462 13.500596784792707 6.91385252816527 0 0 0
1540 4 2 0.012 19.30977055602931 13.047687275314226 5.236142216347544 0 0 0
2176 6 1 -0.159 15.718904241735315 14.539563059178061 10.00545127022376 0 1 0
2180 6 6 -0.13 13.786587430980349 15.720639369722601 11.53317388940033 0 1 0
2174 6 2 0.012 14.837448109831682 14.198832285767518 11.18752944537993 0 1 0
2177 6 3 0.053 16.112234476332816 15.546473763242483 10.168820299831266 0 1 0
1550 4 2 0.012 19.328469020639925 15.816483201865328 8.3271197094373 0 0 0
1547 4 1 -0.041 19.65355052534799 15.20083010074469 6.966998508752659 0 0 0
1537 4 1 -0.041 20.73258660189836 12.407037761087237 5.321006055816853 0 0 0
1551 4 3 0.053 18.18338486558598 15.65018852031867 8.515571098037448 0 0 0
1539 4 3 0.053 20.73333500517581 11.384731186396458 5.947005748146921 0 0 0
1556 4 6 -0.13 20.043080249159637 14.790619361359516 9.969030454850488 0 0 0
1653 5 3 0.053 3.7419711494158787 2.213801420811483 21.153297446517396 1 1 0
1738 5 6 -0.13 4.40127746594702 19.388086509315226 9.137872223952279 1 1 0
1733 5 3 0.053 5.181697049963567 18.316107398376587 11.203328882129535 1 1 0
1730 5 3 0.053 4.073857381178439 16.42291266836036 8.86819042462733 1 1 0
1729 5 1 -0.041 4.300107675815155 16.639542168684983 9.96431690283314 1 1 0
1732 5 2 0.012 5.167000276686733 17.95187624779818 10.168554485933727 1 1 0
1728 5 6 -0.13 2.5537381792004847 16.553080531810103 10.692335608412966 1 1 0
1660 5 3 0.053 4.23670636325519 6.095672236818934 20.101937597921996 1 1 0
1743 5 3 0.053 6.871727326368659 20.748348306993936 9.364006764136105 1 1 0
2047 6 3 0.053 9.794323724491125 15.915998723313407 19.93659202257266 0 1 0
142 1 3 0.053 19.360681095568953 20.769149498596942 14.369085464857166 0 1 0
1054 3 6 -0.13 20.42472110753798 16.799121417658014 2.2445972383610955 0 -1 0
1673 5 3 0.053 1.8981745569730286 7.350027464673526 15.782508197822015 1 1 0
755 2 3 0.053 4.348792524380185 3.7910124753155228 14.407764352878493 -1 0 0
754 2 3 0.053 6.070091860227292 3.8975232654309764 14.156498026114974 -1 0 0
753 2 1 -0.041 5.21092582495665 3.2608105601063064 14.24993024711705 -1 0 0
757 2 3 0.053 6.415018254333347 1.8471304876475727 15.121403463951772 -1 0 0
1739 5 1 -0.041 4.95002687821764 20.83664826573518 10.12582430820687 1 1 0
756 2 2 0.012 5.420867531865675 2.2062064329520723 15.355730265001982 -1 0 0
759 2 3 0.053 6.609601989264625 3.660513797215455 16.561919985211695 -1 0 0
758 2 1 -0.159 5.702684872568826 3.0467621849066977 16.629220986945093 -1 0 0
760 2 3 0.053 4.753266757416855 3.611409764064966 16.9471603061873 -1 0 0
761 2 3 0.053 5.953977520320174 2.5097680775358957 17.589654033434762 -1 0 0
1680 5 3 0.053 4.780433040996124 7.689861121217572 17.021122519445534 1 1 0
1048 3 2 0.012 19.94996274449405 17.635963550652612 3.758184715465924 0 -1 0
1669 5 1 -0.041 1.6486091365301783 8.831704084382217 17.182448949859964 1 1 0
2707 7 3 0.053 10.263673666130199 1.8271193665148666 15.63958787668639 -1 1 0
2706 7 2 0.012 11.246586776858443 2.1843610208555795 15.395015458812212 -1 1 0
2711 7 3 0.053 10.482183126766959 2.393441325660319 13.429137314036653 -1 1 0
2703 7 1 -0.041 11.721829252061337 3.117024276217605 16.58357599613596 -1 1 0
2219 6 3 0.053 2.4481960380331436 13.980642216204053 19.566200744976676 0 1 0
2709 7 3 0.053 12.176318727489711 3.1609934859099984 13.679067348231925 -1 1 0
2710 7 3 0.053 10.699458019898138 3.996152721298073 14.342707579913089 -1 1 0
2708 7 1 -0.159 11.184252178691805 3.0719460067310047 14.07222981361195 -1 1 0
2704 7 3 0.053 12.890642354879807 3.273915792974073 16.676478254590172 -1 1 0
2705 7 3 0.053 11.428185206651166 2.586744916296639 17.573276582024555 -1 1 0
1686 5 3 0.053 7.211279860636203 6.037485689578832 16.324370312597008 1 1 0
2702 7 6 -0.13 10.918034296395577 4.786141232043661 16.627986487780827 -1 1 0