units real
atom_style full
boundary p p p

# --- Force Field Styles ---
pair_style lj/class2/coul/long 9.5 9.5
kspace_style pppm 1e-6
dielectric 1.000000
bond_style class2
angle_style class2
dihedral_style class2
improper_style class2
special_bonds lj/coul 0 0 1
pair_modify mix sixthpower tail yes
neighbor 2.0 bin
neigh_modify delay 0 every 1 check yes
neigh_modify one 4000
# KOKKOS: package loaded via -pk kokkos on the command line

read_data /home/alexzhao/PolyJarvis/data/PVC3/lammps/equil/npt_prod300/npt_prod300_out.data
Reading data file ...
  orthogonal box = (6.2276347 6.2276347 6.2276347) to (42.15786 42.15786 42.15786)
  1 by 1 by 1 MPI processor grid
  reading atoms ...
  3620 atoms
  reading velocities ...
  3620 velocities
  scanning bonds ...
  4 = max bonds/atom
  scanning angles ...
  12 = max angles/atom
  scanning dihedrals ...
  24 = max dihedrals/atom
  scanning impropers ...
  10 = max impropers/atom
  orthogonal box = (6.2276347 6.2276347 6.2276347) to (42.15786 42.15786 42.15786)
  1 by 1 by 1 MPI processor grid
  reading bonds ...
  3610 bonds
  reading angles ...
  7200 angles
  reading dihedrals ...
  10710 dihedrals
  reading impropers ...
  4800 impropers
Finding 1-2 1-3 1-4 neighbors ...
  special bond factors lj:    0        0        1       
  special bond factors coul:  0        0        1       
     4 = max # of 1-2 neighbors
     6 = max # of 1-3 neighbors
    10 = max # of special neighbors
  special bonds CPU = 0.002 seconds
  read_data CPU = 0.171 seconds
include /home/alexzhao/PolyJarvis/data/PVC3/lammps/equil/emc_build.params
# LAMMPS parameters created by EMC v9.4.4, build Jul 31 2025 20:33:44

# Variables

variable	seed		index	472913
variable	ntotal		index	3620
variable	fshape		index	1
variable	output		index	emc_build
variable	field		index	pcff/pcff
variable	location1	index	~/emc/field/
variable	nav		index	0.6022141179
variable	temperature	index	300
variable	radius		index	5
variable	nrelax		index	100
variable	weight_nonbond	index	0.0001
variable	weight_bond	index	0.0001
variable	weight_focus	index	1
variable	cutoff		index	9.5
variable	charge_cutoff	index	9.5
variable	kappa		index	4
variable	density1	index	0.55
variable	lprevious	index	0
variable	lphase		index	48.3854950346
variable	f_poly		index	10
variable	chem_repeat	index	*CC(Cl)*
variable	chem_cap	index	*[H]
variable	lg_repeat	index	6
variable	lg_cap		index	1
variable	norm_poly	index	100
variable	l_poly		index	362
variable	mg_repeat	index	50.48806
variable	mg_cap		index	1.00797
variable	m_poly		index	3031.29954
variable	n_poly		index	10
variable	mtotal		index	37519.6854
variable	nphase1		index	3620
variable	mphase1		index	37519.6854
variable	vphase1		index	113277.998291
variable	lbox		index	48.3854950346
variable	lphase1		index	48.3854950346
variable	lxx		index	48.3854950346
variable	lyy		index	48.3854950346
variable	lzz		index	48.3854950346
variable	lzy		index	0
variable	lzx		index	0
variable	lyx		index	0
variable	vtotal		index	113277.998291
variable	nl_poly		index	10

# Types

variable	type_c		index	1
variable	type_c1		index	2
variable	type_cl		index	3
variable	type_hc		index	4

variable	type_bond_c_c	index	1
variable	type_bond_c_c1	index	2
variable	type_bond_c_cl	index	3
variable	type_bond_c_hc	index	4
variable	type_bond_c1_cl	index	5
variable	type_bond_c1_hc	index	6

variable	type_angle_c_c_c1 index	1
variable	type_angle_c_c_cl index	2
variable	type_angle_c_c_hc index	3
variable	type_angle_c_c1_c index	4
variable	type_angle_c_c1_cl index	5
variable	type_angle_c_c1_hc index	6
variable	type_angle_c1_c_c1 index	7
variable	type_angle_c1_c_hc index	8
variable	type_angle_cl_c_hc index	9
variable	type_angle_cl_c1_hc index	10
variable	type_angle_hc_c_hc index	11

# Clusters

variable	n0_poly		index	1
variable	n1_poly		index	10
variable	nl_poly		index	10

# Flags

variable	flag_charged	index	1

# Masses

mass		1    12.01115  # c
mass		2    12.01115  # c1
mass		3    35.45300  # cl
mass		4     1.00797  # hc

# Potentials

pair_modify	mix sixthpower tail yes
special_bonds	lj/coul 0 0 1

# Pair Coeffs

pair_coeff	 1  1    0.05400    4.01000  # c,c
pair_coeff	 2  2    0.05400    4.01000  # c1,c1
pair_coeff	 3  3    0.22470    3.92000  # cl,cl
pair_coeff	 4  4    0.02000    2.99500  # hc,hc

# Bond Coeffs

bond_coeff	1    1.53000  299.67000 -501.77000  679.81000  # c,c
bond_coeff	2    1.53000  299.67000 -501.77000  679.81000  # c,c1
bond_coeff	3    1.79000  194.31900    0.00000    0.00000  # c,cl
bond_coeff	4    1.10100  345.00000 -691.89000  844.60000  # c,hc
bond_coeff	5    1.79000  194.31900    0.00000    0.00000  # c1,cl
bond_coeff	6    1.10100  345.00000 -691.89000  844.60000  # c1,hc

# Angle Coeffs

angle_coeff	 1  112.67000   39.51600   -7.44300   -9.55830  # c,c,c1
angle_coeff	 2  107.00000   61.17450    0.00000    0.00000  # c,c,cl
angle_coeff	 3  110.77000   41.45300  -10.60400    5.12900  # c,c,hc
angle_coeff	 4  112.67000   39.51600   -7.44300   -9.55830  # c,c1,c
angle_coeff	 5  107.00000   61.17450    0.00000    0.00000  # c,c1,cl
angle_coeff	 6  110.77000   41.45300  -10.60400    5.12900  # c,c1,hc
angle_coeff	 7  112.67000   39.51600   -7.44300   -9.55830  # c1,c,c1
angle_coeff	 8  110.77000   41.45300  -10.60400    5.12900  # c1,c,hc
angle_coeff	 9  107.99680   51.09870    0.00000    0.00000  # cl,c,hc
angle_coeff	10  107.99680   51.09870    0.00000    0.00000  # cl,c1,hc
angle_coeff	11  107.66000   39.64100  -12.92100   -2.43180  # hc,c,hc

# BondBond Coeffs

angle_coeff	 1 bb    0.00000    1.53000    1.53000  # c,c,c1
angle_coeff	 2 bb    0.00000    1.53000    1.79000  # c,c,cl
angle_coeff	 3 bb    3.38720    1.53000    1.10100  # c,c,hc
angle_coeff	 4 bb    0.00000    1.53000    1.53000  # c,c1,c
angle_coeff	 5 bb    0.00000    1.53000    1.79000  # c,c1,cl
angle_coeff	 6 bb    3.38720    1.53000    1.10100  # c,c1,hc
angle_coeff	 7 bb    0.00000    1.53000    1.53000  # c1,c,c1
angle_coeff	 8 bb    3.38720    1.53000    1.10100  # c1,c,hc
angle_coeff	 9 bb    0.00000    1.79000    1.10100  # cl,c,hc
angle_coeff	10 bb    0.00000    1.79000    1.10100  # cl,c1,hc
angle_coeff	11 bb    5.33160    1.10100    1.10100  # hc,c,hc

# BondAngle Coeffs

angle_coeff	 1 ba    8.01600    8.01600    1.53000    1.53000  # c,c,c1
angle_coeff	 2 ba    0.00000    0.00000    1.53000    1.79000  # c,c,cl
angle_coeff	 3 ba   20.75400   11.42100    1.53000    1.10100  # c,c,hc
angle_coeff	 4 ba    8.01600    8.01600    1.53000    1.53000  # c,c1,c
angle_coeff	 5 ba    0.00000    0.00000    1.53000    1.79000  # c,c1,cl
angle_coeff	 6 ba   20.75400   11.42100    1.53000    1.10100  # c,c1,hc
angle_coeff	 7 ba    8.01600    8.01600    1.53000    1.53000  # c1,c,c1
angle_coeff	 8 ba   20.75400   11.42100    1.53000    1.10100  # c1,c,hc
angle_coeff	 9 ba    0.00000    0.00000    1.79000    1.10100  # cl,c,hc
angle_coeff	10 ba    0.00000    0.00000    1.79000    1.10100  # cl,c1,hc
angle_coeff	11 ba   18.10300   18.10300    1.10100    1.10100  # hc,c,hc

# Dihedral Coeffs

dihedral_coeff	 1    0.00000    0.00000    0.05140    0.00000   -0.14300    0.00000  # c,c,c1,c
dihedral_coeff	 2    0.00000    0.00000    0.00000    0.00000    0.15000    0.00000  # c,c,c1,cl
dihedral_coeff	 3    0.00000    0.00000    0.03160    0.00000   -0.16810    0.00000  # c,c,c1,hc
dihedral_coeff	 4    0.00000    0.00000    0.05140    0.00000   -0.14300    0.00000  # c,c1,c,c1
dihedral_coeff	 5    0.00000    0.00000    0.03160    0.00000   -0.16810    0.00000  # c,c1,c,hc
dihedral_coeff	 6    0.00000    0.00000    0.00000    0.00000    0.15000    0.00000  # c1,c,c,cl
dihedral_coeff	 7    0.00000    0.00000    0.03160    0.00000   -0.16810    0.00000  # c1,c,c,hc
dihedral_coeff	 8    0.00000    0.00000    0.00000    0.00000    0.15000    0.00000  # c1,c,c1,cl
dihedral_coeff	 9    0.00000    0.00000    0.03160    0.00000   -0.16810    0.00000  # c1,c,c1,hc
dihedral_coeff	10    0.00000    0.00000    0.00000    0.00000   -0.10000    0.00000  # cl,c,c,hc
dihedral_coeff	11    0.00000    0.00000    0.00000    0.00000   -0.10000    0.00000  # cl,c1,c,hc
dihedral_coeff	12   -0.14320    0.00000    0.06170    0.00000   -0.10830    0.00000  # hc,c,c,hc
dihedral_coeff	13   -0.14320    0.00000    0.06170    0.00000   -0.10830    0.00000  # hc,c,c1,hc

# MiddleBondTorsion Coeffs

dihedral_coeff	 1 mbt  -17.78700   -7.18770    0.00000    1.53000  # c,c,c1,c
dihedral_coeff	 2 mbt    0.00000    0.00000    0.00000    1.53000  # c,c,c1,cl
dihedral_coeff	 3 mbt  -14.87900   -3.65810   -0.31380    1.53000  # c,c,c1,hc
dihedral_coeff	 4 mbt  -17.78700   -7.18770    0.00000    1.53000  # c,c1,c,c1
dihedral_coeff	 5 mbt  -14.87900   -3.65810   -0.31380    1.53000  # c,c1,c,hc
dihedral_coeff	 6 mbt    0.00000    0.00000    0.00000    1.53000  # c1,c,c,cl
dihedral_coeff	 7 mbt  -14.87900   -3.65810   -0.31380    1.53000  # c1,c,c,hc
dihedral_coeff	 8 mbt    0.00000    0.00000    0.00000    1.53000  # c1,c,c1,cl
dihedral_coeff	 9 mbt  -14.87900   -3.65810   -0.31380    1.53000  # c1,c,c1,hc
dihedral_coeff	10 mbt    0.00000    0.00000    0.00000    1.53000  # cl,c,c,hc
dihedral_coeff	11 mbt    0.00000    0.00000    0.00000    1.53000  # cl,c1,c,hc
dihedral_coeff	12 mbt  -14.26100   -0.53220   -0.48640    1.53000  # hc,c,c,hc
dihedral_coeff	13 mbt  -14.26100   -0.53220   -0.48640    1.53000  # hc,c,c1,hc

# EndBondTorsion Coeffs

dihedral_coeff	 1 ebt   -0.07320    0.00000    0.00000   -0.07320    0.00000    0.00000    1.53000    1.53000  # c,c,c1,c
dihedral_coeff	 2 ebt    0.00000    0.00000    0.00000    0.00000    0.00000    0.00000    1.53000    1.79000  # c,c,c1,cl
dihedral_coeff	 3 ebt    0.24860    0.24220   -0.09250    0.08140    0.05910    0.22190    1.53000    1.10100  # c,c,c1,hc
dihedral_coeff	 4 ebt   -0.07320    0.00000    0.00000   -0.07320    0.00000    0.00000    1.53000    1.53000  # c,c1,c,c1
dihedral_coeff	 5 ebt    0.24860    0.24220   -0.09250    0.08140    0.05910    0.22190    1.53000    1.10100  # c,c1,c,hc
dihedral_coeff	 6 ebt    0.00000    0.00000    0.00000    0.00000    0.00000    0.00000    1.53000    1.79000  # c1,c,c,cl
dihedral_coeff	 7 ebt    0.24860    0.24220   -0.09250    0.08140    0.05910    0.22190    1.53000    1.10100  # c1,c,c,hc
dihedral_coeff	 8 ebt    0.00000    0.00000    0.00000    0.00000    0.00000    0.00000    1.53000    1.79000  # c1,c,c1,cl
dihedral_coeff	 9 ebt    0.24860    0.24220   -0.09250    0.08140    0.05910    0.22190    1.53000    1.10100  # c1,c,c1,hc
dihedral_coeff	10 ebt    0.00000    0.00000    0.00000    0.00000    0.00000    0.00000    1.79000    1.10100  # cl,c,c,hc
dihedral_coeff	11 ebt    0.00000    0.00000    0.00000    0.00000    0.00000    0.00000    1.79000    1.10100  # cl,c1,c,hc
dihedral_coeff	12 ebt    0.21300    0.31200    0.07770    0.21300    0.31200    0.07770    1.10100    1.10100  # hc,c,c,hc
dihedral_coeff	13 ebt    0.21300    0.31200    0.07770    0.21300    0.31200    0.07770    1.10100    1.10100  # hc,c,c1,hc

# AngleTorsion Coeffs

dihedral_coeff	 1 at    0.38860   -0.31390    0.13890    0.38860   -0.31390    0.13890  112.67000  112.67000  # c,c,c1,c
dihedral_coeff	 2 at    0.00000    0.00000    0.00000    0.00000    0.00000    0.00000  112.67000  107.00000  # c,c,c1,cl
dihedral_coeff	 3 at   -0.24540    0.00000   -0.11360    0.31130    0.45160   -0.19880  112.67000  110.77000  # c,c,c1,hc
dihedral_coeff	 4 at    0.38860   -0.31390    0.13890    0.38860   -0.31390    0.13890  112.67000  112.67000  # c,c1,c,c1
dihedral_coeff	 5 at   -0.24540    0.00000   -0.11360    0.31130    0.45160   -0.19880  112.67000  110.77000  # c,c1,c,hc
dihedral_coeff	 6 at    0.00000    0.00000    0.00000    0.00000    0.00000    0.00000  112.67000  107.00000  # c1,c,c,cl
dihedral_coeff	 7 at   -0.24540    0.00000   -0.11360    0.31130    0.45160   -0.19880  112.67000  110.77000  # c1,c,c,hc
dihedral_coeff	 8 at    0.00000    0.00000    0.00000    0.00000    0.00000    0.00000  112.67000  107.00000  # c1,c,c1,cl
dihedral_coeff	 9 at   -0.24540    0.00000   -0.11360    0.31130    0.45160   -0.19880  112.67000  110.77000  # c1,c,c1,hc
dihedral_coeff	10 at    0.00000    0.00000    0.00000    0.00000    0.00000    0.00000  107.00000  110.77000  # cl,c,c,hc
dihedral_coeff	11 at    0.00000    0.00000    0.00000    0.00000    0.00000    0.00000  107.00000  110.77000  # cl,c1,c,hc
dihedral_coeff	12 at   -0.80850    0.55690   -0.24660   -0.80850    0.55690   -0.24660  110.77000  110.77000  # hc,c,c,hc
dihedral_coeff	13 at   -0.80850    0.55690   -0.24660   -0.80850    0.55690   -0.24660  110.77000  110.77000  # hc,c,c1,hc

# AngleAngleTorsion Coeffs

dihedral_coeff	 1 aat  -22.04500  112.67000  112.67000  # c,c,c1,c
dihedral_coeff	 2 aat    0.00000  112.67000  107.00000  # c,c,c1,cl
dihedral_coeff	 3 aat  -16.16400  112.67000  110.77000  # c,c,c1,hc
dihedral_coeff	 4 aat  -22.04500  112.67000  112.67000  # c,c1,c,c1
dihedral_coeff	 5 aat  -16.16400  112.67000  110.77000  # c,c1,c,hc
dihedral_coeff	 6 aat    0.00000  112.67000  107.00000  # c1,c,c,cl
dihedral_coeff	 7 aat  -16.16400  112.67000  110.77000  # c1,c,c,hc
dihedral_coeff	 8 aat    0.00000  112.67000  107.00000  # c1,c,c1,cl
dihedral_coeff	 9 aat  -16.16400  112.67000  110.77000  # c1,c,c1,hc
dihedral_coeff	10 aat    0.00000  107.00000  110.77000  # cl,c,c,hc
dihedral_coeff	11 aat    0.00000  107.00000  110.77000  # cl,c1,c,hc
dihedral_coeff	12 aat  -12.56400  110.77000  110.77000  # hc,c,c,hc
dihedral_coeff	13 aat  -12.56400  110.77000  110.77000  # hc,c,c1,hc

# BondBond13 Coeffs

dihedral_coeff	 1 bb13    0.00000    1.53000    1.53000  # c,c,c1,c
dihedral_coeff	 2 bb13    0.00000    1.53000    1.79000  # c,c,c1,cl
dihedral_coeff	 3 bb13    0.00000    1.53000    1.10100  # c,c,c1,hc
dihedral_coeff	 4 bb13    0.00000    1.53000    1.53000  # c,c1,c,c1
dihedral_coeff	 5 bb13    0.00000    1.53000    1.10100  # c,c1,c,hc
dihedral_coeff	 6 bb13    0.00000    1.53000    1.79000  # c1,c,c,cl
dihedral_coeff	 7 bb13    0.00000    1.53000    1.10100  # c1,c,c,hc
dihedral_coeff	 8 bb13    0.00000    1.53000    1.79000  # c1,c,c1,cl
dihedral_coeff	 9 bb13    0.00000    1.53000    1.10100  # c1,c,c1,hc
dihedral_coeff	10 bb13    0.00000    1.79000    1.10100  # cl,c,c,hc
dihedral_coeff	11 bb13    0.00000    1.79000    1.10100  # cl,c1,c,hc
dihedral_coeff	12 bb13    0.00000    1.10100    1.10100  # hc,c,c,hc
dihedral_coeff	13 bb13    0.00000    1.10100    1.10100  # hc,c,c1,hc

# Improper Coeffs

improper_coeff	 1    0.00000    0.00000  # c,c,cl,hc
improper_coeff	 2    0.00000    0.00000  # c,c,hc,c1
improper_coeff	 3    0.00000    0.00000  # c,c,hc,cl
improper_coeff	 4    0.00000    0.00000  # c,c,hc,hc
improper_coeff	 5    0.00000    0.00000  # c,c1,c1,hc
improper_coeff	 6    0.00000    0.00000  # c,c1,hc,hc
improper_coeff	 7    0.00000    0.00000  # c,cl,hc,hc
improper_coeff	 8    0.00000    0.00000  # c,hc,hc,hc
improper_coeff	 9    0.00000    0.00000  # c1,c,c,cl
improper_coeff	10    0.00000    0.00000  # c1,c,c,hc
improper_coeff	11    0.00000    0.00000  # c1,c,cl,hc

# AngleAngle Coeffs

improper_coeff	 1 aa    0.00000    0.00000    0.00000  107.00000  110.77000  107.99680  # c,c,cl,hc
improper_coeff	 2 aa    0.11840   -1.31990   -1.31990  110.77000  112.67000  110.77000  # c,c,hc,c1
improper_coeff	 3 aa    0.00000    0.00000    0.00000  110.77000  107.00000  107.99680  # c,c,hc,cl
improper_coeff	 4 aa    0.27380   -0.48250    0.27380  110.77000  110.77000  107.66000  # c,c,hc,hc
improper_coeff	 5 aa   -1.31990   -1.31990    0.11840  112.67000  110.77000  110.77000  # c,c1,c1,hc
improper_coeff	 6 aa    0.27380   -0.48250    0.27380  110.77000  110.77000  107.66000  # c,c1,hc,hc
improper_coeff	 7 aa    0.00000    0.00000    0.00000  107.99680  107.99680  107.66000  # c,cl,hc,hc
improper_coeff	 8 aa   -0.31570   -0.31570   -0.31570  107.66000  107.66000  107.66000  # c,hc,hc,hc
improper_coeff	 9 aa    0.00000    0.00000    0.00000  112.67000  107.00000  107.00000  # c1,c,c,cl
improper_coeff	10 aa   -1.31990   -1.31990    0.11840  112.67000  110.77000  110.77000  # c1,c,c,hc
improper_coeff	11 aa    0.00000    0.00000    0.00000  107.00000  110.77000  107.99680  # c1,c,cl,hc


# --- Thermo Output ---
thermo_style custom step time temp press enthalpy etotal ke pe ebond eangle edihed eimp evdwl ecoul elong etail vol lx ly lz density pxx pyy pzz
thermo_modify flush yes
thermo 500

# --- Velocity initialization at T_START (once only — Rule A) ---
velocity all create 550.0 730559 mom yes rot yes dist gaussian

# --- Temperature staircase (inherits momenta across steps — Rule A) ---
variable temps index 550 530 510 490 470 450 430 410 390 370 350 330 310 290 270 250 230 210 190 170 150
label TEMP_LOOP
  timestep 1
  fix npt_tg all npt temp ${temps} ${temps} 100 iso 1.0 1.0 1000.0
  fix npt_tg all npt temp 550 ${temps} 100 iso 1.0 1.0 1000.0
  fix npt_tg all npt temp 550 550 100 iso 1.0 1.0 1000.0
  run 200000
PPPM Kokkos initialization ...
  using 12-bit tables for long-range coulomb
  G vector (1/distance) = 0.29528808
  grid = 24 24 24
  stencil order = 5
  estimated absolute RMS force accuracy = 0.00037836216
  estimated relative force accuracy = 1.1394264e-06
  using double precision cuFFT
  3d grid and FFT values/proc = 29791 13824
Generated 6 of 6 mixed pair_coeff terms from sixthpower/sixthpower mixing rule
Neighbor list info ...
  update: every = 1 steps, delay = 0 steps, check = yes
  max neighbors/atom: 4000, page size: 100000
  master list distance cutoff = 11.5
  ghost atom cutoff = 11.5
  binsize = 11.5, bins = 4 4 4
  1 neighbor lists, perpetual/occasional/extra = 1 0 0
  (1) pair lj/class2/coul/long/kk, perpetual
      attributes: full, newton off, kokkos_device
      pair build: full/bin/kk/device
      stencil: full/bin/3d
      bin: kk/device
Per MPI rank memory allocation (min/avg/max) = 24.04 | 24.04 | 24.04 Mbytes
   Step          Time           Temp          Press         Enthalpy        TotEng         KinEng         PotEng         E_bond        E_angle        E_dihed        E_impro         E_vdwl         E_coul         E_long         E_tail         Volume           Lx             Ly             Lz          Density          Pxx            Pyy            Pzz      
         0   0              550            1924.9463      3600.7484      2298.5584      5933.1534     -3634.5949      1279.1893      2008.3248     -2081.7111      15.437357     -985.99346     -1620.8711     -2248.9708     -272.82288      46385.243      35.930226      35.930226      35.930226      1.343162       2647.8026      52.185152      3074.8513    
       500   500            542.41708      2137.4417      6545.4062      5036.7038      5851.3522     -814.64843      2281.0746      3301.9572     -1999.607       20.723413     -591.45638     -1590.313      -2237.0272     -261.47323      48398.667      36.442749      36.442749      36.442749      1.2872854      3746.231       80.137863      2585.9563    
      1000   1000           540.13846      1629.5337      6124.3553      4948.7033      5826.7715     -878.06821      2261.0066      3214.0829     -1963.586       19.076785     -587.86883     -1586.6262     -2234.1534     -255.8121       49469.73       36.709617      36.709617      36.709617      1.2594145      1640.7547      1398.4202      1849.4262    
      1500   1500           541.31478     -80.444405      5146.627       5204.8999      5839.4611     -634.56124      2372.5123      3333.1156     -1976.1456      21.813816     -577.55701     -1576.5293     -2231.771      -254.78044      49670.045      36.759098      36.759098      36.759098      1.2543354     -1127.0336      1816.1131     -930.41274    
      2000   2000           558.07634      2026.6375      6816.0824      5355.8528      6020.2773     -664.42456      2364.8839      3256.4603     -1965.1867      19.352102     -518.19151     -1589.0357     -2232.7069     -256.14827      49404.806      36.69355       36.69355       36.69355       1.2610696      3533.6416      1471.5309      1074.7401    
      2500   2500           563.44122     -311.46761      5092.6355      5317.6072      6078.1513     -760.54403      2313.3011      3217.9825     -1946.4959      19.061703     -539.99954     -1587.5565     -2236.8374     -255.51794      49526.682      36.723698      36.723698      36.723698      1.2579663      235.79397      1156.782      -2326.9788    
      3000   3000           551.98257     -638.47374      4705.9713      5169.681       5954.5404     -784.85941      2280.482       3228.577      -1956.028       19.752496     -526.82597     -1591.1231     -2239.6939     -254.11679      49799.763      36.791071      36.791071      36.791071      1.2510682     -282.46819     -564.32041     -1068.6326    
      3500   3500           528.17191     -658.2527       4534.0649      5012.2155      5697.6817     -685.46624      2430.6566      3232.7142     -1976.5122      19.363329     -577.4665      -1580.5802     -2233.6414     -254.07649      49807.66       36.793015      36.793015      36.793015      1.2508698     -244.55844     -510.23735     -1219.9623    
      4000   4000           548.56112      1216.2224      5999.2123      5121.8174      5917.6314     -795.81404      2337.7176      3183.4252     -1960.7965      20.076256     -551.11235     -1589.8692     -2235.2551     -255.8317       49465.941      36.708679      36.708679      36.708679      1.259511       1582.7806      1263.6714      802.21504    
      4500   4500           545.75663      190.47758      5293.8895      5158.0225      5887.3778     -729.35524      2395.2692      3236.2703     -1976.6605      21.678309     -600.36261     -1573.4795     -2232.0705     -258.74169      48909.613      36.570543      36.570543      36.570543      1.2738375     -375.03716      162.14838      784.32151    
      5000   5000           558.8434      -706.11898      4825.9079      5339.4315      6028.552      -689.12045      2414.4406      3216.0415     -1948.7845      17.685723     -578.18392     -1578.9816     -2231.3383     -253.77803      49866.238      36.807433      36.807433      36.807433      1.2494004     -2784.6285     -962.43008      1628.7017    
      5500   5500           562.47119     -1731.5655      4110.9261      5363.0188      6067.687      -704.66813      2359.9343      3364.4325     -1991.4323      20.808842     -641.12413     -1578.7079     -2238.5795     -255.23425      49581.73       36.737299      36.737299      36.737299      1.2565697     -2213.4562     -631.95336     -2349.287     
      6000   6000           559.79249      1528.911       6408.9407      5291.6705      6038.7903     -747.1198       2301.195       3246.2522     -1978.9635      19.313243     -514.21599     -1580.2585     -2240.4423     -252.55764      50107.198      36.866624      36.866624      36.866624      1.2433922      2546.7753      262.23916      1777.7184    
      6500   6500           549.55069     -232.25699      5203.0747      5373.8466      5928.3064     -554.45977      2484.1578      3230.9219     -1982.71        20.928555     -484.34211     -1582.9383     -2240.4776     -251.0087       50416.403      36.942302      36.942302      36.942302      1.2357664     -124.32885      1069.7609     -1642.203     
      7000   7000           560.50917     -443.14277      5123.0651      5444.9692      6046.5216     -601.55232      2384.3994      3245.7503     -1939.9624      18.461616     -499.34868     -1579.67       -2231.1825     -254.07016      49808.902      36.793321      36.793321      36.793321      1.2508386      229.14844     -354.07365     -1204.5031    
      7500   7500           553.33996      53.57845       5344.0289      5304.763       5969.1833     -664.42033      2280.3083      3285.8267     -1941.948       20.642647     -487.9026      -1582.24       -2239.1074     -251.83217      50251.545      36.901992      36.901992      36.901992      1.2398206      281.47059     -431.64448      310.90924    
      8000   8000           537.17299     -1527.7046      4173.2199      5299.8279      5794.7814     -494.95351      2377.8         3290.057      -1916.7896      19.292989     -458.47913     -1575.3993     -2231.4355     -250.26671      50565.877      36.978775      36.978775      36.978775      1.2321135     -289.67555     -2610.9953     -1682.443     
      8500   8500           546.60164      497.61299      5790.6018      5423.7028      5896.4933     -472.79056      2389.8137      3295.1691     -1958.5834      22.124974     -396.01654     -1588.9129     -2236.3855     -250.31202      50556.725      36.976543      36.976543      36.976543      1.2323365     -245.75529      1654.1371      84.457151    
      9000   9000           546.77198     -428.06836      5184.295       5501.1271      5898.331      -397.20388      2444.2361      3342.5956     -1948.487       20.540621     -455.42044     -1570.0327     -2230.636      -249.35635      50750.484      37.023721      37.023721      37.023721      1.2276316     -883.97135     -447.26573      47.032002    
      9500   9500           552.33455     -88.248265      5260.8985      5324.9845      5958.3375     -633.35298      2348.1035      3154.9544     -1908.3906      18.380106     -442.3668      -1576.2963     -2227.7373     -254.14393      49794.444      36.789761      36.789761      36.789761      1.2512018     -2776.8471      2003.8204      508.28193    
     10000   10000          542.67598     -2153.1643      3674.9378      5257.8494      5854.1451     -596.29572      2408.5956      3208.8952     -1936.1893      20.445347     -487.64432     -1579.7983     -2230.5999     -251.04815      50408.48       36.940367      36.940367      36.940367      1.2359607     -1256.729      -2878.8254     -2323.9385    
     10500   10500          554.21412      1412.3816      6411.9688      5377.9918      5978.6134     -600.62162      2338.9775      3278.6839     -1947.7867      21.332396     -481.37198     -1575.3488     -2235.1079     -252.10282      50197.598      36.888782      36.888782      36.888782      1.241153       831.28806      2190.9554      1214.9013    
     11000   11000          556.3189      -768.03338      4870.2816      5430.0241      6001.3189     -571.29477      2435.3651      3180.3137     -1924.2446      19.166452     -469.16371     -1578.2363     -2234.4954     -253.23768      49972.642      36.833595      36.833595      36.833595      1.2467401      904.85137      647.39145     -3856.343     
     11500   11500          553.10859     -594.18262      4934.4735      5374.0905      5966.6875     -592.59696      2371.2901      3282.5942     -1972.0611      21.480636     -482.64419     -1580.5066     -2232.75       -249.44912      50731.611      37.019131      37.019131      37.019131      1.2280883      899.54707     -1715.8376     -966.25729    
     12000   12000          549.867       -1074.3966      4579.5689      5373.0187      5931.7186     -558.69995      2293.4288      3337.4477     -1937.3376      21.624868     -476.7116      -1568.0686     -2229.0835     -249.90889      50638.278      36.996415      36.996415      36.996415      1.2303518     -564.64696     -1498.7401     -1159.8027    
     12500   12500          551.22323      33.212763      5424.1105      5399.8862      5946.349      -546.46284      2260.3452      3329.3883     -1913.8193      20.562043     -433.97976     -1577.7179     -2231.2415     -253.04054      50011.575      36.843158      36.843158      36.843158      1.2457696      299.95991     -1782.9754      1582.6538    
     13000   13000          557.57679      743.63125      5959.1684      5411.6323      6014.8884     -603.25609      2249.3382      3358.0359     -1928.1911      19.849954     -475.33502     -1589.4824     -2237.4716     -250.6579       50486.962      36.959528      36.959528      36.959528      1.2340394      702.54094     -424.05891      1952.4117    
     13500   13500          531.40586     -99.474671      5151.1293      5223.6347      5732.5681     -508.93346      2390.8636      3284.7088     -1919.9771      19.607263     -480.44371     -1573.0994     -2230.593      -253.20889      49978.322      36.83499       36.83499       36.83499       1.2465984      1681.6043      762.57361     -2742.6019    
     14000   14000          539.97561     -695.67916      4662.2265      5174.0969      5825.0147     -650.91776      2321.6678      3244.6353     -1915.0852      20.068899     -524.83522     -1567.711      -2229.6583     -250.83345      50451.627      36.950903      36.950903      36.950903      1.2349036     -1493.7326      309.28233     -902.58716    
     14500   14500          544.6185      -101.29784      5300.5151      5375.7063      5875.1001     -499.39384      2366.1476      3256.8392     -1909.3617      19.407654     -443.60777     -1567.4438     -2221.375      -248.63938      50896.827      37.059274      37.059274      37.059274      1.2241018      169.32029     -1742.1452      1268.9314    
     15000   15000          551.26932      1139.5807      6259.0886      5420.5389      5946.8462     -526.30733      2341.6039      3276.2706     -1932.8684      20.570524     -433.26522     -1571.8261     -2226.7926     -250.81462      50455.416      36.951828      36.951828      36.951828      1.2348109      1338.6801      1518.6686      561.39346    
     15500   15500          565.36758      709.57469      5970.3484      5449.0451      6098.9319     -649.88676      2320.3631      3151.5489     -1905.5051      18.507385     -431.18346     -1570.0544     -2233.5633     -251.21417      50375.166      36.932227      36.932227      36.932227      1.236778       1138.0976      107.5202       883.10626    
     16000   16000          540.62022     -1296.9353      4234.8532      5208.7945      5831.9685     -623.17395      2312.2087      3283.1668     -1936.3681      20.852905     -497.12584     -1569.5613     -2236.3472     -245.76615      51491.859      37.203134      37.203134      37.203134      1.2099563     -1128.1896     -4116.8448      1354.2284    
     16500   16500          543.75483     -249.82409      5187.3681      5371.2394      5865.7833     -494.54391      2373.3767      3246.5831     -1936.5428      21.457074     -383.45508     -1584.0196     -2231.9432     -250.75921      50466.565      36.95455       36.95455       36.95455       1.2345381     -525.59072     -1320.1358      1096.2542    
     17000   17000          559.081       -1149.1483      4683.7148      5523.443       6031.1151     -507.67217      2400.3239      3293.1435     -1934.1012      22.342866     -488.08118     -1568.2039     -2233.0962     -252.56541      50105.656      36.866246      36.866246      36.866246      1.2434304     -703.35793     -2178.2863     -565.80068    
     17500   17500          554.79319      738.97253      5988.0677      5443.7233      5984.8601     -541.13681      2311.8264      3290.9142     -1898.1535      20.996862     -463.04472     -1571.4054     -2232.2706     -250.54805      50509.096      36.964928      36.964928      36.964928      1.2334986      650.49064      1418.2489      148.17801    
     18000   18000          545.61774     -297.15684      5088.5539      5309.5589      5885.8795     -576.3206       2247.1311      3262.3327     -1916.4543      20.121347     -412.13333     -1556.9961     -2220.322      -248.15337      50996.51       37.083452      37.083452      37.083452      1.221709       1571.8663     -952.36309     -1510.9737    
     18500   18500          548.2544       875.18012      5869.7917      5219.3752      5914.3227     -694.9475       2304.5299      3131.3456     -1915.622       18.889603     -461.29776     -1558.1857     -2214.6072     -248.33757      50958.685      37.074281      37.074281      37.074281      1.2226159      232.71585      2775.3708     -382.54631    
     19000   19000          560.86967      1083.1089      6296.3254      5502.113       6050.4105     -548.29747      2224.5833      3341.1946     -1925.3143      22.140178     -432.50687     -1563.3044     -2215.09       -251.69351      50279.229      36.908767      36.908767      36.908767      1.2391379      1550.2887     -1468.4695      3167.5077    
     19500   19500          563.42064      114.28517      5550.9981      5467.119       6077.9292     -610.81016      2304.581       3272.8502     -1966.2681      21.458913     -469.76012     -1558.1351     -2215.537      -251.4621       50325.5        36.920086      36.920086      36.920086      1.2379986      1395.0414     -8.0736631     -1044.1122    
     20000   20000          555.9698      -280.39608      5384.4003      5590.6926      5997.5529     -406.86031      2397.5086      3340.0864     -1969.0547      21.926018     -419.67066     -1559.82       -2217.836      -250.85665      50446.962      36.949764      36.949764      36.949764      1.2350178      1872.2751     -1986.0708     -727.39256    
     20500   20500          558.14511     -971.6639       4809.1342      5528.837       6021.0191     -492.18211      2304.6957      3321.0543     -1902.686       22.090682     -465.3976      -1554.2885     -2217.6507     -249.17209      50788.014      37.032845      37.032845      37.032845      1.2267244     -1575.5868     -791.49814     -547.90679    
     21000   21000          555.11231      973.44121      6211.3063      5484.694       5988.3026     -503.60864      2280.3347      3295.7819     -1927.9328      22.050791     -390.03407     -1561.9501     -2221.8591     -247.25411      51181.984      37.128355      37.128355      37.128355      1.2172818      192.38423      728.6464       1999.293     
     21500   21500          558.32902      130.66653      5439.7499      5341.4036      6023.0031     -681.59948      2237.9737      3194.9502     -1927.4272      21.020081     -419.62505     -1565.147      -2223.3442     -245.21271      51608.073      37.231101      37.231101      37.231101      1.2072316      46.353925      423.70076     -78.055095    
     22000   22000          554.71262      59.048461      5452.7693      5409.2682      5983.9909     -574.72279      2318.4181      3224.9328     -1907.1042      19.821365     -433.28221     -1567.1814     -2230.3272     -250.52112      50514.527      36.966253      36.966253      36.966253      1.233366       766.2771       152.85948     -741.99119    
     22500   22500          551.70012     -1273.62        4559.4288      5510.3856      5951.4935     -441.10795      2380.5113      3245.5927     -1913.6811      21.686368     -384.46493     -1563.9757     -2226.7766     -247.18128      51197.064      37.132001      37.132001      37.132001      1.2169233     -967.60889     -671.47186     -2181.7791    
     23000   23000          551.27025     -868.7554       4896.2344      5547.6336      5946.8562     -399.22259      2355.7043      3313.7074     -1903.7215      21.794865     -416.6795      -1551.4732     -2218.555      -246.14261      51413.105      37.184157      37.184157      37.184157      1.2118097     -1155.1118     -1852.7539      401.59945    
     23500   23500          536.60598      446.28204      5684.9708      5350.1433      5788.6647     -438.52137      2233.2562      3336.1801     -1889.758       21.950841     -347.9621      -1566.4613     -2225.7271     -245.99422      51444.119      37.191633      37.191633      37.191633      1.2110791      280.78081      281.34994      776.71538    
     24000   24000          539.85081     -494.00067      5027.5063      5398.3103      5823.6684     -425.35816      2401.0223      3195.2102     -1900.1421      20.983634     -370.54276     -1552.0733     -2219.8161     -245.87802      51468.43       37.19749       37.19749       37.19749       1.2105071     -952.35084      240.59263     -770.24382    
     24500   24500          548.01356     -1690.5266      4218.2018      5477.7625      5911.7246     -433.96203      2401.7325      3277.2998     -1920.9685      22.021153     -449.13759     -1545.5583     -2219.3511     -247.70765      51088.273      37.105681      37.105681      37.105681      1.2195147     -1272.092      -1903.9275     -1895.5601    
     25000   25000          557.26583      236.64237      5640.5507      5462.6147      6011.5339     -548.9192       2354.9812      3140.7821     -1925.0328      20.953458     -355.37492     -1559.9154     -2225.3128     -245.45111      51557.948      37.219043      37.219043      37.219043      1.2084053      206.40707     -255.74482      759.26486    
     25500   25500          542.79745     -1131.7056      4507.3703      5347.3632      5855.4555     -508.09225      2336.5266      3263.9584     -1913.991       21.387992     -428.92729     -1559.4006     -2227.6463     -248.65339      50893.96       37.058578      37.058578      37.058578      1.2241708     -2064.9646     -127.03247     -1203.1198    
     26000   26000          549.68118     -2687.7047      3576.3854      5544.0834      5929.7141     -385.63075      2440.6719      3280.0031     -1911.9974      20.384423     -429.15931     -1556.5412     -2228.9923     -252.09233      50199.685      36.889293      36.889293      36.889293      1.2411014     -2251.6505     -2134.0248     -3677.4388    
     26500   26500          549.79712      933.99032      6169.6974      5480.7746      5930.9647     -450.19017      2332.2885      3320.1864     -1923.5678      21.224003     -401.1214      -1566.7849     -2232.415      -250.2121       50576.913      36.981464      36.981464      36.981464      1.2318446      2678.942       1073.173      -950.14403    
     27000   27000          544.60533      1062.1956      6205.8921      5404.649       5874.958      -470.30908      2314.5718      3271.1994     -1882.8204      20.92227      -427.99235     -1543.3968     -2222.7929     -244.66775      51723.023      37.258723      37.258723      37.258723      1.2045487      1593.0408      1195.0472      398.49897    
     27500   27500          537.51462      74.603252      5397.8723      5341.5488      5798.4667     -456.91788      2345.1873      3249.7807     -1907.5857      21.774831     -380.46914     -1559.0622     -2226.5436     -244.45813      51767.376      37.26937       37.26937       37.26937       1.2035166     -418.63679      163.65653      478.79001    
     28000   28000          550.92225      1754.7888      6901.8278      5558.3235      5943.1022     -384.77877      2276.1132      3329.9109     -1891.3847      20.578826     -329.35119     -1562.0266     -2228.6192     -241.05842      52497.465      37.443759      37.443759      37.443759      1.1867792      418.49135      3327.4938      1518.3811    
     28500   28500          545.58926     -178.79468      5387.3395      5524.6069      5885.5723     -360.96537      2327.4673      3305.3975     -1869.5353      20.839088     -368.10301     -1550.994      -2226.0369     -240.39398      52642.565      37.478225      37.478225      37.478225      1.183508      -726.5797      -113.66312      303.85879    
     29000   29000          545.62142     -1502.5986      4267.4785      5406.1519      5885.9192     -479.76735      2274.8379      3255.7468     -1897.2223      20.636117     -386.94476     -1540.0848     -2206.7363     -243.54562      51961.335      37.315858      37.315858      37.315858      1.1990242     -2603.8829     -2319.6812      415.76823    
     29500   29500          550.29169     -15.29193       5400.783       5412.2847      5936.3        -524.01533      2282.7227      3201.1213     -1889.7781      21.063459     -382.87179     -1538.7263     -2217.5465     -245.37967      51572.96       37.222655      37.222655      37.222655      1.2080536     -623.5947      -484.03614      1061.7551    
     30000   30000          552.86795      337.29595      5850.4546      5593.8021      5964.0916     -370.28946      2280.6691      3314.7335     -1887.5106      22.326822     -329.79479     -1551.8394     -2218.874      -242.55044      52174.533      37.366824      37.366824      37.366824      1.1941247      750.18644      219.29628      42.40512     
     30500   30500          550.9472      -26.210778      5539.4988      5559.5929      5943.3714     -383.77849      2310.218       3254.216      -1866.5038      19.863289     -333.19701     -1549.3532     -2219.0216     -240.7404       52566.814      37.46024       37.46024       37.46024       1.1852135      284.72294     -1045.6238      682.26856    
     31000   31000          543.63296      57.705811      5502.7982      5458.8591      5864.4686     -405.60955      2305.5854      3239.7471     -1861.6797      19.914654     -329.02979     -1556.9196     -2223.2277     -242.38455      52210.24       37.375347      37.375347      37.375347      1.193308       192.77216      1535.4355     -1555.0902    
     31500   31500          544.98393     -802.20037      4907.0312      5514.0511      5879.0423     -364.99114      2318.7454      3308.2766     -1888.4466      20.670601     -335.1165      -1557.9241     -2231.1965     -243.90262      51885.28       37.297643      37.297643      37.297643      1.2007818     -1380.2693      337.16145     -1363.4932    
     32000   32000          552.21026      40.186928      5661.378       5630.8008      5956.9967     -326.1959       2322.1444      3344.3212     -1856.1816      22.345936     -388.121       -1543.5168     -2227.188      -242.56234      52171.972      37.366213      37.366213      37.366213      1.1941833     -1428.1291      1639.2135     -90.523567    
     32500   32500          559.14943     -890.55782      5064.1573      5745.2677      6031.8533     -286.58562      2320.1137      3343.5555     -1858.3765      21.231514     -353.47538     -1542.8165     -2216.818      -241.31324      52442.028      37.430575      37.430575      37.430575      1.1880337      545.72653     -632.01853     -2585.3815    
     33000   33000          564.17467      524.49218      6088.2007      5681.752       6086.0634     -404.31135      2261.3002      3264.5611     -1891.8438      22.238177     -277.73308     -1560.8205     -2222.0135     -238.16056      53136.237      37.595015      37.595015      37.595015      1.1725124     -1197.1409      171.71088      2598.9066    
     33500   33500          539.81303     -547.83859      5118.3395      5545.1665      5823.2609     -278.09441      2314.541       3296.1861     -1898.0972      20.206178     -248.16773     -1549.0203     -2213.7424     -236.8848       53422.405      37.662384      37.662384      37.662384      1.1662316     -1676.2184     -1426.907       1459.6096    
     34000   34000          540.83485      646.94368      5927.6269      5431.4037      5834.2838     -402.88006      2247.5152      3241.1757     -1864.3843      20.473753     -279.63776     -1548.638      -2219.3847     -240.61682      52593.812      37.466652      37.466652      37.466652      1.1846051      98.060993      1165.5631      677.2069     
     34500   34500          545.01118     -392.54399      5211.532       5513.8969      5879.3362     -365.43931      2326.2591      3250.7191     -1865.7271      21.579954     -326.03708     -1552.2021     -2220.0312     -239.60369      52816.196      37.519385      37.519385      37.519385      1.1796173      81.795619      326.70854     -1586.1361    
     35000   35000          543.29054      430.48179      5897.966       5568.2603      5860.7747     -292.51436      2363.428       3294.0853     -1880.6807      21.269068     -333.00692     -1541.3799     -2216.2292     -240.97109      52516.489      37.448282      37.448282      37.448282      1.1863493      496.61314      241.13774      553.69448    
     35500   35500          553.31585     -1043.1898      4932.1939      5742.5705      5968.9233     -226.35279      2381.3702      3372.7916     -1918.8513      22.149334     -315.11895     -1551.009      -2217.6846     -237.58169      53265.702      37.625524      37.625524      37.625524      1.1696626     -2442.1283     -1268.4138      580.97284    
     36000   36000          556.13209     -187.39869      5580.9825      5722.7139      5999.3036     -276.58973      2346.6931      3276.3921     -1857.8071      20.255369     -286.28796     -1555.28       -2220.5553     -244.02641      51858.959      37.291335      37.291335      37.291335      1.2013912     -489.90791      1629.4857     -1701.7739    
     36500   36500          555.00708     -873.44765      5014.9282      5674.561       5987.1675     -312.60647      2350.0732      3338.5959     -1884.5753      21.119081     -383.18119     -1543.4995     -2211.1387     -244.38309      51783.271      37.273184      37.273184      37.273184      1.2031472      889.0855      -1320.8179     -2188.6106    
     37000   37000          559.14829      1615.6991      6824.715       5603.7352      6031.841      -428.10588      2275.313       3194.3403     -1853.421       19.609274     -298.27433     -1547.5654     -2218.1078     -244.22409      51816.985      37.281271      37.281271      37.281271      1.2023644      1388.1449      2874.881       584.07133    
     37500   37500          550.64486      267.98189      5714.994       5511.9533      5940.1098     -428.15653      2319.1763      3249.1122     -1901.9291      21.530818     -337.99144     -1559.3411     -2218.7142     -243.5896       51951.955      37.313613      37.313613      37.313613      1.1992407     -19.998731      1248.6732     -424.72882    
     38000   38000          531.55148     -2345.5686      3556.6984      5345.327       5734.139      -388.81199      2289.2843      3321.3608     -1876.6528      21.447376     -362.51675     -1558.494      -2223.241      -242.02738      52287.289      37.393723      37.393723      37.393723      1.1915496     -1661.6245     -1524.6583     -3850.423     
     38500   38500          557.5191       390.66277      6020.5365      5721.0061      6014.2661     -293.25994      2376.3344      3294.8779     -1901.1559      21.00721      -306.22086     -1556.4104     -2221.6923     -240.71193      52573.03       37.461716      37.461716      37.461716      1.1850734      1872.8394      1201.1118     -1901.9629    
     39000   39000          547.33397      739.39926      6109.5226      5546.9144      5904.3934     -357.47897      2295.6375      3344.1125     -1900.1646      22.480388     -335.45124     -1564.1747     -2219.9188     -242.55458      52173.642      37.366612      37.366612      37.366612      1.1941451      210.94923      1502.1495      505.09902    
     39500   39500          543.48777     -468.03569      5159.3014      5517.8307      5862.9023     -345.07158      2331.5378      3285.3306     -1908.6975      19.439217     -305.0423      -1548.5383     -2219.1012     -240.92993      52525.461      37.450414      37.450414      37.450414      1.1861466     -508.53075     -898.47868      2.9023629    
     40000   40000          539.63841     -460.9196       5151.8602      5504.979       5821.3771     -316.39809      2296.1016      3348.8366     -1873.5081      20.642339     -332.46806     -1559.8112     -2216.1912     -240.90221      52531.506      37.451851      37.451851      37.451851      1.1860101     -967.33609     -1594.4927      1179.07      
     40500   40500          560.81985      1719.0385      6806.5817      5500.9019      6049.8731     -548.97113      2145.8887      3238.013      -1894.1154      21.694504     -282.28213     -1557.0092     -2221.1605     -242.98834      52080.506      37.344364      37.344364      37.344364      1.1962806      1166.5276      2485.3366      1505.2512    
     41000   41000          544.66838      461.37242      5797.7201      5447.0721      5875.6382     -428.56613      2298.4423      3326.6521     -1913.8563      23.729738     -393.41472     -1545.9266     -2224.1927     -242.83802      52112.744      37.352068      37.352068      37.352068      1.1955405      925.1887       436.2262       22.702353    
     41500   41500          547.52109      61.865331      5598.1468      5550.5755      5906.412      -355.83648      2312.9313      3328.1277     -1911.5387      20.807077     -330.33901     -1555.6761     -2220.1488     -240.01536      52725.608      37.497922      37.497922      37.497922      1.181644      -592.1953       345.52364      432.26765    
     42000   42000          554.89965     -1115.4994      4834.6186      5690.4584      5986.0086     -295.55021      2360.5277      3341.6498     -1868.0636      20.990006     -377.53887     -1553.5177     -2219.5975     -240.55447      52607.444      37.469888      37.469888      37.469888      1.1842981      466.84201     -1121.8662     -2691.4741    
     42500   42500          547.71114      2106.3441      7210.7437      5611.8835      5908.4621     -296.57859      2344.5468      3320.7366     -1906.6347      21.711225     -306.76168     -1552.9145     -2217.2624     -243.13941      52048.147      37.336628      37.336628      37.336628      1.1970243      854.1285       960.84314      4504.0606    
     43000   43000          569.20526      581.52953      6230.9698      5788.1974      6140.3311     -352.13378      2323.3246      3299.4063     -1887.7385      21.691841     -342.88938     -1553.1401     -2212.7886     -242.39727      52207.501      37.374693      37.374693      37.374693      1.1933706      557.18166      1040.9018      146.5051     
     43500   43500          549.60723     -1379.2342      4592.3115      5644.4627      5928.9164     -284.45367      2453.2179      3253.8262     -1927.7542      21.576787     -322.16775     -1544.4926     -2218.6599     -241.93371      52307.534      37.398549      37.398549      37.398549      1.1910884     -2455.9725     -1410.3751     -271.35494    
     44000   44000          548.92758     -776.88749      4995.6763      5591.9898      5921.5845     -329.59472      2331.8303      3254.399      -1868.3336      21.426643     -308.0478      -1543.9241     -2216.9451     -240.44735      52630.88       37.475452      37.475452      37.475452      1.1837708      462.66602     -2194.6235     -598.705      
     44500   44500          550.74011      412.6255       5892.0002      5572.6545      5941.1373     -368.48281      2283.3347      3283.8836     -1901.6868      21.028523     -290.36324     -1546.8894     -2217.7901     -238.46877      53067.56       37.578811      37.578811      37.578811      1.1740298      927.98081     -732.68755      1042.5832    
     45000   45000          540.71285     -2040.3535      3926.7498      5528.5892      5832.9677     -304.37853      2345.3521      3325.2516     -1917.6045      21.292213     -322.59243     -1541.5395     -2214.538      -235.08394      53831.647      37.758311      37.758311      37.758311      1.1573656     -2877.5204     -1929.1977     -1314.3424    
     45500   45500          544.6496      -400.35981      5302.1652      5614.0503      5875.4356     -261.3853       2378.5801      3272.9124     -1870.4887      21.337262     -296.71629     -1547.9513     -2219.0588     -236.91487      53415.624      37.660791      37.660791      37.660791      1.1663797     -704.34758     -706.76171      210.02985    
     46000   46000          542.60287      796.49296      6135.8165      5522.2449      5853.3565     -331.11158      2356.7711      3256.6509     -1882.9474      22.585547     -315.42435     -1546.8343     -2221.913      -239.58145      52821.1        37.520546      37.520546      37.520546      1.1795078      1828.0234     -23.077054      584.5325     
     46500   46500          540.65021      1583.4719      6897.5857      5684.6419      5832.292      -147.65011      2347.3761      3376.9571     -1884.1602      22.385263     -245.34195     -1543.9935     -2220.8729     -240.93851      52523.592      37.44997       37.44997       37.44997       1.1861888     -69.449142      1698.8394      3121.0255    
     47000   47000          553.36701      562.12368      6148.6168      5704.8476      5969.4752     -264.62762      2294.0734      3341.1801     -1904.7557      22.345761     -238.88675     -1557.0479     -2221.5365     -233.78205      54131.426      37.828271      37.828271      37.828271      1.1509562      1415.6513      2013.6065     -1742.8868    
     47500   47500          548.63717      820.57969      6275.9797      5626.1553      5918.4518     -292.29651      2349.8174      3293.2501     -1894.9702      22.912538     -297.30783     -1541.8871     -2224.1113     -233.05654      54299.939      37.867484      37.867484      37.867484      1.1473843      640.10344      32.673665      1788.962     
     48000   48000          538.1815       214.13445      5735.1093      5567.9355      5805.6607     -237.72515      2368.691       3298.9885     -1874.3647      22.166342     -302.33631     -1537.441      -2213.429      -236.40401      53531.054      37.687899      37.687899      37.687899      1.1638646     -60.081126      851.45952     -148.97506    
     48500   48500          546.48929      456.31025      5931.7522      5576.5133      5895.2814     -318.76805      2355.4718      3309.4496     -1908.9749      23.386446     -341.86602     -1539.3394     -2216.8954     -237.06984      53380.707      37.652583      37.652583      37.652583      1.1671426      1100.9604     -1302.1796      1570.15      
     49000   49000          558.75984     -769.58483      5248.4524      5848.8965      6027.6505     -178.75404      2387.6865      3353.5487     -1934.1434      22.781134     -261.62074     -1536.8773     -2210.129      -236.54864      53498.324      37.680217      37.680217      37.680217      1.1645766      679.7151      -1789.4693     -1199.0003    
     49500   49500          562.17118      1439.6734      7052.9508      5925.4981      6064.4506     -138.95245      2324.7759      3417.5958     -1872.9048      21.12469      -274.9633      -1544.0554     -2210.5254     -235.66885      53698.041      37.727047      37.727047      37.727047      1.1602453      1018.0582      1459.1186      1841.8435    
     50000   50000          557.19432      1774.7332      7211.2871      5839.1689      6010.7625     -171.59355      2354.2909      3316.5047     -1859.4207      21.292947     -239.3387      -1548.2466     -2216.6761     -238.7141       53013.021      37.565933      37.565933      37.565933      1.1752376      980.48227      3962.0365      381.68087    
     50500   50500          555.54087      251.09953      5982.1698      5787.8156      5992.9257     -205.1101       2328.3932      3398.4485     -1863.5703      22.817298     -327.76717     -1545.925      -2217.5066     -238.44522      53072.801      37.580049      37.580049      37.580049      1.1739139      1153.0456      840.93941     -1240.6865    
     51000   51000          533.20528     -761.94085      5048.2375      5638.2808      5751.9795     -113.69863      2397.9856      3383.9913     -1859.5563      24.24528      -290.60356     -1549.7976     -2219.9633     -238.32735      53099.049      37.586243      37.586243      37.586243      1.1733336     -2069.9214      253.30896     -469.21016    
     51500   51500          545.4614       1724.9816      6948.377       5597.3956      5884.1929     -286.79734      2243.1687      3331.4264     -1882.9985      22.266559     -247.30988     -1542.4268     -2210.9238     -235.65226      53701.823      37.727933      37.727933      37.727933      1.1601636      676.33748      1359.1215      3139.4857    
     52000   52000          550.88138     -351.40446      5658.4994      5934.7046      5942.6613     -7.9567167      2452.9906      3370.0769     -1871.6476      21.080087     -231.14739     -1536.7961     -2212.5131     -234.8075       53895.024      37.773123      37.773123      37.773123      1.1560046     -642.5577      -1207.068       795.41233    
     52500   52500          555.52614      547.03327      6145.2507      5724.9675      5992.7669     -267.79941      2344.06        3284.5072     -1860.7481      21.773299     -295.56093     -1545.6101     -2216.2208     -240.21947      52680.807      37.487298      37.487298      37.487298      1.1826489      1610.0202      311.64051     -280.5609     
     53000   53000          543.07889      1365.062       6671.8468      5627.3702      5858.4916     -231.1214       2304.5131      3398.5839     -1866.2745      22.069991     -331.36181     -1541.5195     -2217.1325     -241.20714      52465.095      37.436062      37.436062      37.436062      1.1875114      2103.9056      1147.3906      843.88987    
     53500   53500          551.95086      1256.9212      6584.8427      5623.7591      5954.1984     -330.43935      2242.7363      3386.231      -1874.1878      22.334554     -334.75307     -1547.8953     -2224.905      -241.37007      52429.682      37.427637      37.427637      37.427637      1.1883135      419.05236      571.5381       2780.1733    
     54000   54000          545.5734       1320.257       6458.7388      5456.1045      5885.4012     -429.29676      2225.8562      3298.6194     -1861.2594      21.146079     -351.29773     -1543.6916     -2218.6697     -243.02584      52072.47       37.342443      37.342443      37.342443      1.1964652      1999.4712      2499.5437     -538.2439     
     54500   54500          545.69484      88.949184      5624.2942      5556.7639      5886.7112     -329.94738      2324.5661      3354.2995     -1891.99        22.272132     -374.90277     -1547.3899     -2216.8024     -243.09682      52057.265      37.338808      37.338808      37.338808      1.1968146     -125.36467     -494.66497      886.87719    
     55000   55000          556.24138     -728.05866      5061.434       5613.0493      6000.4826     -387.43337      2351.2448      3281.2785     -1872.9032      21.40808      -388.64312     -1556.5817     -2223.2366     -243.59403      51951.009      37.313386      37.313386      37.313386      1.1992625     -566.71913     -1200.2976     -417.15921    
     55500   55500          545.32668     -88.424737      5470.6877      5538.7625      5882.7397     -343.97716      2316.8752      3284.1161     -1863.6946      21.5589       -339.72978     -1543.1685     -2219.9345     -239.73079      52788.194      37.512753      37.512753      37.512753      1.180243      -61.281856     -1006.3945      802.40217    
     56000   56000          555.35151     -1189.9572      4841.0786      5752.4828      5990.883      -238.40023      2293.8229      3350.8063     -1863.1016      23.210597     -270.01686     -1552.2261     -2220.8954     -240.96661      52517.467      37.448514      37.448514      37.448514      1.1863272     -1157.817      -1283.2943     -1128.7605    
     56500   56500          563.23446      85.193058      5811.2106      5745.9293      6075.9208     -329.9915       2282.2584      3346.9957     -1887.4868      22.111752     -320.2415      -1548.8302     -2224.7989     -240.85286      52542.269      37.454408      37.454408      37.454408      1.1857672      1799.3227     -683.85899     -859.88452    
     57000   57000          560.31322      502.73472      6151.8027      5767.9483      6044.4078     -276.45948      2392.2516      3325.65       -1913.2888      20.654793     -347.12099     -1546.3477     -2208.2584     -241.71794      52354.225      37.409673      37.409673      37.409673      1.1900262      2578.7726     -1443.6493      373.08087    
     57500   57500          551.56477     -2048.3243      4068.1786      5625.1548      5950.0334     -324.87852      2351.2768      3327.7183     -1894.101       21.825591     -376.44086     -1541.1675     -2213.9898     -242.80255      52120.357      37.353886      37.353886      37.353886      1.1953659     -1089.5717     -3449.3828     -1606.0184    
     58000   58000          542.41133     -1167.7691      4581.5167      5462.5036      5851.2902     -388.7866       2341.0204      3265.0095     -1867.4227      22.581507     -415.18281     -1525.5668     -2209.2257     -244.63805      51729.303      37.260231      37.260231      37.260231      1.2044024     -992.15797     -427.45476     -2083.6944    
     58500   58500          547.09143      966.51862      6267.4085      5539.7146      5901.777      -362.06243      2351.7584      3243.2646     -1864.1484      21.338139     -348.91209     -1544.0461     -2221.3169     -245.13086      51625.306      37.235245      37.235245      37.235245      1.2068286      3841.8043     -1636.951       694.70254    
     59000   59000          549.35167      491.32907      5929.9293      5551.2187      5926.1595     -374.94079      2275.0076      3307.792      -1901.6923      22.166691     -320.34216     -1537.9488     -2219.9238     -239.44265      52851.72       37.527795      37.527795      37.527795      1.1788244      2180.0142     -1247.6062      541.57927    
     59500   59500          548.68358      1220.0444      6584.6437      5631.3921      5918.9525     -287.5604       2329.1482      3313.7308     -1885.5674      22.794382     -315.13538     -1537.8149     -2214.7161     -236.21344      53574.241      37.698032      37.698032      37.698032      1.1629264      3137.0928     -1954.6143      2477.6547    
     60000   60000          543.97806     -1181.4029      4780.4335      5691.3166      5868.1913     -176.87471      2454.0929      3318.6583     -1918.4492      20.535303     -319.89496     -1529.3067     -2202.5103     -239.3712       52867.495      37.531528      37.531528      37.531528      1.1784727     -266.39192     -2549.2047     -728.61224    
     60500   60500          555.97885     -554.68379      5284.6808      5712.6539      5997.6505     -284.99654      2372.7581      3320.6794     -1913.8739      23.04321      -350.55822     -1531.3621     -2205.683      -239.20235      52904.814      37.540357      37.540357      37.540357      1.1776414     -375.54027      335.06478     -1623.5759    
     61000   61000          547.05818      216.75733      5739.025       5571.7172      5901.4183     -329.70113      2321.7327      3267.9007     -1893.0213      21.009963     -313.24326     -1531.0109     -2203.069      -239.1079       52925.711      37.545299      37.545299      37.545299      1.1771764      1371.4245      434.34725     -1155.4997    
     61500   61500          554.25961      1593.0577      6910.4834      5677.9307      5979.1041     -301.17346      2321.5743      3271.0105     -1903.4139      21.065249     -265.69968     -1535.2798     -2210.43       -238.54071      53051.556      37.575033      37.575033      37.575033      1.174384      -494.28074      4696.9789      576.47481    
     62000   62000          556.45138     -1568.9447      4665.1052      5872.6232      6002.748      -130.12478      2429.4022      3376.352      -1852.9313      21.075403     -363.80461     -1528.8748     -2211.3436     -239.80075      52772.794      37.509104      37.509104      37.509104      1.1805874     -892.75766     -2906.0823     -907.99414    
     62500   62500          545.57588     -1859.3674      4230.2713      5648.837       5885.428      -236.59098      2405.1018      3322.2743     -1850.6203      23.111834     -369.30458     -1544.9279     -2222.2261     -241.90915      52312.845      37.399814      37.399814      37.399814      1.1909675     -1770.1898     -2029.3073     -1778.6051    
     63000   63000          553.2122      -1509.098       4500.5431      5646.0588      5967.8051     -321.74634      2312.9008      3355.4727     -1872.4492      21.283167     -388.22129     -1533.8489     -2216.8836     -243.13805      52048.439      37.336698      37.336698      37.336698      1.1970176     -1882.3975     -1473.1307     -1171.7659    
     63500   63500          552.11342     -989.45168      4885.1286      5631.4819      5955.952      -324.47014      2381.1937      3235.7083     -1864.8108      21.978539     -350.52182     -1533.5        -2214.518      -244.67334      51721.841      37.258439      37.258439      37.258439      1.2045762     -1377.7501     -875.48265     -715.1223     
     64000   64000          562.28994      40.680305      5868.0982      5837.2776      6065.7317     -228.45412      2300.8471      3410.2894     -1881.2383      21.366964     -326.07629     -1541.116      -2212.527      -243.60136      51949.446      37.313012      37.313012      37.313012      1.1992986     -1824.9757      342.14961      1604.867     
     64500   64500          550.98058      358.6783       5875.449       5599.6573      5943.7314     -344.07417      2281.6097      3314.4241     -1881.9783      22.173049     -298.61788     -1567.6434     -2214.0414     -240.02719      52723.009      37.497306      37.497306      37.497306      1.1817022      1643.053       108.30632     -675.32448    
     65000   65000          550.71179      1206.2792      6446.4665      5532.5144      5940.8318     -408.31739      2342.2856      3221.1493     -1911.534       21.317093     -309.09366     -1550.2354     -2222.2063     -243.59082      51951.695      37.31355       37.31355       37.31355       1.1992467      1970.5289      339.61579      1308.6928    
     65500   65500          549.68317     -1516.471       4504.3596      5675.5423      5929.7355     -254.19319      2358.4936      3361.2864     -1908.2628      22.704165     -310.71104     -1557.3497     -2220.3539     -238.97142      52955.938      37.552445      37.552445      37.552445      1.1765045     -2940.296      -1855.8244      246.7075     
     66000   66000          554.63121     -915.67107      5053.9147      5767.4817      5983.1127     -215.63105      2336.8994      3366.8743     -1865.2623      23.004555     -319.34696     -1541.8651     -2215.935      -236.83248      53434.206      37.665158      37.665158      37.665158      1.165974      -1605.1228     -1550.1935      408.30302    
     66500   66500          555.21249      1491.6571      6761.9747      5626.3062      5989.3834     -363.07725      2319.3795      3269.6294     -1906.9843      21.17919      -296.33047     -1548.9445     -2221.0061     -242.4119       52204.351      37.373941      37.373941      37.373941      1.1934426      1383.7102      2384.3613      706.89969    
     67000   67000          541.83452      379.73356      5715.7535      5426.1985      5845.0679     -418.86933      2322.2667      3250.3071     -1917.6903      23.082625     -329.61177     -1547.9113     -2219.3124     -242.0385       52284.887      37.39315       37.39315       37.39315       1.1916043      1780.5741     -601.07397     -40.299486    
     67500   67500          546.51117     -1628.205       4183.8256      5437.7641      5895.5175     -457.75338      2345.8429      3229.9121     -1905.3941      20.989116     -392.8916      -1541.1277     -2215.0841     -239.64556      52806.969      37.5172        37.5172        37.5172        1.1798234      249.1857      -2386.9632     -2746.8376    
     68000   68000          554.90762     -451.89653      5270.9115      5613.917       5986.0945     -372.17754      2370.5734      3271.096      -1875.0877      23.212729     -375.65564     -1563.6194     -2222.6969     -243.15014      52045.851      37.336079      37.336079      37.336079      1.1970771      588.33727      328.1376      -2272.1644    
     68500   68500          549.01567      280.09409      5885.1583      5674.059       5922.5348     -248.47581      2394.3084      3298.1583     -1843.9248      19.63276      -367.88257     -1538.7342     -2210.0336     -244.88028      51678.133      37.247941      37.247941      37.247941      1.205595      -616.09378      712.69101      743.68502    
     69000   69000          559.3812      -1760.9312      4465.7647      5803.3391      6034.3536     -231.0145       2437.081       3352.5041     -1923.8031      22.153282     -365.80555     -1542.295      -2210.8492     -242.97465      52083.441      37.345065      37.345065      37.345065      1.1962132     -1302.6722     -2185.8958     -1794.2256    
     69500   69500          548.51672     -160.27108      5652.1464      5774.8353      5917.1524     -142.31711      2382.0112      3337.0585     -1872.2355      21.315367     -272.06947     -1528.8626     -2209.5346     -241.094        52489.716      37.441917      37.441917      37.441917      1.1869544      258.57337     -662.57339     -76.813211    
     70000   70000          541.60162     -412.23218      5171.1007      5484.4016      5842.5554     -358.15383      2382.5315      3282.2038     -1892.8467      21.79004      -388.66279     -1546.7629     -2216.4067     -242.83804      52112.74       37.352067      37.352067      37.352067      1.1955406     -1729.0275     -219.18332      711.51426    
     70500   70500          541.69111      452.77349      5810.3175      5468.8073      5843.5208     -374.71355      2358.4773      3365.5598     -1919.4841      22.133385     -420.61307     -1556.0214     -2224.7655     -244.68863      51718.61       37.257663      37.257663      37.257663      1.2046514     -467.8439       96.366918      1729.7974    
     71000   71000          560.92196      704.67467      6492.5369      5956.286       6050.9746     -94.688595      2500.0365      3433.9977     -1939.251       24.51715      -334.93057     -1558.3184     -2220.74       -242.52535      52179.93       37.368113      37.368113      37.368113      1.1940012      185.62739      2803.711      -875.31437    
     71500   71500          547.73876     -1015.3231      4760.4985      5533.9025      5908.7601     -374.85757      2357.3501      3267.5466     -1897.3643      22.457114     -347.33679     -1553.2974     -2224.2129     -242.28937      52230.752      37.380241      37.380241      37.380241      1.1928394     -1268.5991     -1155.8188     -621.55136    
     72000   72000          543.96083     -755.34635      4894.7748      5468.5619      5868.0055     -399.44358      2358.6362      3273.8522     -1911.678       22.972069     -370.76631     -1549.7529     -2222.7068     -242.95835      52086.935      37.3459        37.3459        37.3459        1.1961329     -2665.7001     -1081.6553      1481.3164    
     72500   72500          555.03698     -214.39013      5399.4762      5562.8023      5987.49       -424.6877       2300.4372      3327.833      -1936.2729      22.044054     -364.54628     -1551.3205     -2222.8622     -242.26225      52236.598      37.381635      37.381635      37.381635      1.1927059      378.06139     -53.78931      -967.44246    
     73000   73000          554.27133      1640.8733      7003.5417      5743.7458      5979.2306     -235.48478      2356.003       3323.3919     -1902.1235      23.62272      -277.82358     -1544.2764     -2214.279      -240.38722      52644.045      37.478576      37.478576      37.478576      1.1834748     -1466.8458      4244.0138      2145.4518    
     73500   73500          552.33718      844.21992      6257.9601      5610.5092      5958.3658     -347.85668      2361.8287      3234.5568     -1881.9269      22.120522     -323.11833     -1546.2163     -2215.1012     -240.64964      52586.638      37.464948      37.464948      37.464948      1.1847667     -1336.3433      2592.1732      1276.8299    
     74000   74000          536.11312     -951.0749       4864.0942      5578.4484      5783.3479     -204.89959      2405.0039      3345.6085     -1901.0828      21.938189     -325.79971     -1541.5137     -2209.0541     -245.71838      51501.868      37.205544      37.205544      37.205544      1.2097211      577.6043      -2107.1302     -1323.6988    
     74500   74500          558.15896     -814.75791      4993.9691      5619.1071      6021.1685     -402.06144      2333.1901      3246.3252     -1878.0542      22.695575     -357.60873     -1549.5403     -2219.0691     -240.54105      52610.378      37.470585      37.470585      37.470585      1.1842321     -555.4817      -483.63728     -1405.1548    
     75000   75000          561.80687     -1552.3119      4608.3125      5815.4842      6060.5206     -245.03637      2356.4685      3387.9699     -1916.7015      23.800887     -342.72456     -1540.3079     -2213.5417     -237.3266       53322.955      37.638999      37.638999      37.638999      1.1684067     -2441.2252     -1908.3473     -307.36315    
     75500   75500          552.44338      38.404782      5677.5595      5648.0822      5959.5114     -311.4292       2276.0196      3364.0882     -1880.448       21.966334     -317.83295     -1552.9029     -2222.3195     -240.4549       52629.228      37.47506       37.47506       37.47506       1.1838079     -294.45226     -546.00453      955.67114    
     76000   76000          559.48539      62.542698      5739.8182      5691.7388      6035.4774     -343.73863      2382.5129      3250.3245     -1884.6952      20.806602     -345.43086     -1548.8947     -2218.3618     -240.079        52711.631      37.494608      37.494608      37.494608      1.1819573      1092.0734      538.63313     -1443.0785    
     76500   76500          536.61261     -175.87687      5308.182       5443.4745      5788.7362     -345.2617       2269.956       3303.9738     -1871.2925      20.290178     -312.08114     -1541.1674     -2214.9405     -239.92275      52745.961      37.502746      37.502746      37.502746      1.181188      -16.521454     -1265.0616      753.9525     
     77000   77000          555.17272     -35.302272      5912.7041      5939.8848      5988.9544     -49.069552      2455.7382      3388.6401     -1898.4529      22.951265     -265.51658     -1543.5977     -2208.8318     -239.7056       52793.742      37.514067      37.514067      37.514067      1.180119      -1662.4883     -651.37617      2207.9577    
     77500   77500          547.35287      158.96059      5863.6873      5741.9832      5904.5973     -162.61411      2398.5984      3316.8845     -1837.122       21.051297     -304.53364     -1544.3746     -2213.1181     -241.05752      52497.661      37.443806      37.443806      37.443806      1.1867747      2079.6432     -1094.8029     -507.95855    
     78000   78000          548.16378      409.69129      5915.6971      5599.9074      5913.345      -313.43766      2322.2514      3265.066      -1868.8575      21.914855     -289.96519     -1548.608      -2215.2392     -239.43918      52852.484      37.527975      37.527975      37.527975      1.1788074      1323.8396      1334.5976     -1429.3633    
     78500   78500          535.65587      272.82364      5785.7545      5575.2436      5778.4154     -203.17172      2254.865       3449.5229     -1883.5605      22.684705     -280.33878     -1548.7958     -2217.5491     -239.1905       52907.434      37.540977      37.540977      37.540977      1.1775831      164.97189      1006.5445     -353.04542    
     79000   79000          550.65847     -581.16827      5273.5445      5716.7076      5940.2566     -223.549        2371.8329      3396.8643     -1863.3665      22.972615     -391.88345     -1540.2254     -2219.7434     -242.03313      52286.047      37.393427      37.393427      37.393427      1.1915779     -2589.1579     -227.85012      1073.5032    
     79500   79500          553.76316      496.06361      6050.4987      5678.0174      5973.7487     -295.7313       2384.2369      3291.9035     -1861.8127      20.552308     -375.27088     -1537.2671     -2218.0734     -245.79295      51486.245      37.201782      37.201782      37.201782      1.2100882      710.38742     -1967.5204      2745.3238    
     80000   80000          557.20326      176.5965       5871.7337      5737.775       6010.8589     -273.08388      2331.3361      3359.0134     -1855.0603      22.796293     -369.67504     -1540.5818     -2220.9126     -243.30318      52013.113      37.328249      37.328249      37.328249      1.1978306     -825.53894     -450.87376      1806.2022    
     80500   80500          562.97485     -27.126785      5686.2587      5707.2998      6073.1202     -365.8204       2267.4388      3263.4855     -1848.4262      21.937655     -313.43244     -1538.0842     -2218.7396     -237.93922      53185.666      37.606669      37.606669      37.606669      1.1714227     -842.56761     -936.34796      1697.5352    
     81000   81000          541.04424      1832.2963      6923.8029      5537.2193      5836.5426     -299.32337      2232.4026      3392.829      -1893.4123      21.348283     -274.69444     -1556.2656     -2221.5308     -243.88559      51888.903      37.298511      37.298511      37.298511      1.2006979      266.60972      2896.5037      2333.7756    
     81500   81500          544.62271      523.04017      5919.2018      5520.9445      5875.1456     -354.20103      2230.1983      3331.3047     -1843.6707      21.254072     -346.54638     -1532.1825     -2214.5586     -242.38622      52209.882      37.375261      37.375261      37.375261      1.1933162      1802.9289     -949.84418      716.03585    
     82000   82000          556.5556       430.84917      6165.0624      5833.9427      6003.8723     -169.9296       2373.6402      3356.56       -1854.3139      22.358919     -299.06194     -1549.4736     -2219.6393     -240.14676      52696.759      37.491082      37.491082      37.491082      1.1822909      787.99997      598.96695     -94.419404    
     82500   82500          565.8704       753.08526      6399.0151      5815.5035      6104.3561     -288.85263      2329.2756      3256.1754     -1839.0241      18.743414     -290.51223     -1545.9201     -2217.5905     -238.19419      53128.735      37.593246      37.593246      37.593246      1.172678       872.55773      1681.6088     -294.91075    
     83000   83000          549.55607      2053.2208      7184.2481      5593.5723      5928.3645     -334.79213      2264.0178      3348.2506     -1908.7513      22.310238     -284.47919     -1555.6124     -2220.5278     -238.22673      53121.477      37.591534      37.591534      37.591534      1.1728382      2256.8354      2037.9371      1864.8898    
     83500   83500          567.99751     -114.53862      5577.3057      5665.6736      6127.3024     -461.62877      2267.9089      3238.1013     -1896.2891      20.635065     -317.23948     -1554.874      -2219.8715     -239.2179       52901.375      37.539543      37.539543      37.539543      1.1777179     -1699.7803      910.09386      446.07057    
     84000   84000          551.99719      55.442025      5745.4774      5702.0475      5954.6982     -252.6507       2345.2576      3300.7362     -1857.8783      22.770216     -309.47263     -1539.3749     -2214.6888     -235.60614      53712.335      37.730394      37.730394      37.730394      1.1599365      1190.3661      341.40006     -1365.44      
     84500   84500          547.83731      211.94277      5869.096       5702.9574      5909.8233     -206.86588      2348.1537      3345.4442     -1906.7015      20.433659     -250.84788     -1548.4633     -2214.8849     -235.44231      53749.71       37.739144      37.739144      37.739144      1.1591299      597.26223      86.047108     -47.481033    
     85000   85000          545.08725     -2097.4083      4050.9512      5685.874       5880.1569     -194.28284      2486.7183      3297.5341     -1879.7763      22.19927      -367.29034     -1535.9457     -2217.7222     -236.76758      53448.853      37.668599      37.668599      37.668599      1.1656545     -1608.9678     -1539.4018     -3143.8554    
     85500   85500          543.80316      817.82703      6282.1988      5652.0185      5866.3046     -214.28608      2399.9377      3286.8407     -1882.14        22.478311     -278.6686      -1546.4238     -2216.3105     -239.51528      52835.694      37.524001      37.524001      37.524001      1.179182      -203.5721       2142.3597      514.6935     
     86000   86000          535.52164      267.68471      5788.5306      5580.448       5776.9673     -196.5193       2361.3897      3324.2377     -1893.1347      21.555102     -254.21501     -1545.0391     -2211.313      -237.42385      53301.113      37.63386       37.63386       37.63386       1.1688855     -1722.3521      2048.7867      476.61948    
[...]
   4179500   4179500        153.85582      520.03415     -3413.5173     -3751.2321      1659.7276     -5410.9597      660.29315      1176.688      -2133.2907      12.5789       -1241.7304     -1620.8545     -2264.6442     -284.1962       44528.94       35.444386      35.444386      35.444386      1.3991552      407.55247      882.69837      269.85162    
   4180000   4180000        151.56686     -154.39935     -3872.9194     -3773.0663      1635.0353     -5408.1016      667.32203      1211.9421     -2140.0626      13.603918     -1277.5247     -1619.8962     -2263.4861     -285.37811      44344.521      35.395386      35.395386      35.395386      1.404974      -375.30391     -194.17107      106.27695    
   4180500   4180500        149.31114      50.958891     -3750.732      -3783.8408      1610.7016     -5394.5425      668.40226      1184.5317     -2124.2764      12.843622     -1253.4216     -1618.1529     -2264.4692     -284.06139      44550.074      35.449992      35.449992      35.449992      1.3984915      1094.3292     -1094.891       153.43847    
   4181000   4181000        153.51196      226.50298     -3595.5032     -3742.2108      1656.0182     -5398.2289      668.84739      1173.063      -2120.592       12.454134     -1251.9366     -1617.4859     -2262.579      -284.943        44412.236      35.413394      35.413394      35.413394      1.4028318      839.3361       597.88949     -757.71666    
   4181500   4181500        149.34674     -66.595543     -3807.2911     -3764.0461      1611.0857     -5375.1317      675.95491      1223.9346     -2126.2596      13.010731     -1274.496      -1620.6393     -2266.637      -284.21391      44526.166      35.44365       35.44365       35.44365       1.3992424     -302.93361     -400.80046      503.94744    
   4182000   4182000        150.14258      675.41424     -3324.0316     -3761.0423      1619.6708     -5380.7131      656.05973      1192.4042     -2113.0089      12.587353     -1248.5423     -1617.2126     -2263.0007     -285.24281      44365.555      35.400982      35.400982      35.400982      1.4043079      719.57506      908.37053      398.29712    
   4182500   4182500        151.08095      935.19613     -3142.6802     -3751.9893      1629.7935     -5381.7829      669.21623      1196.5729     -2125.3821      13.248959     -1254.3645     -1617.8023     -2263.2721     -283.27059      44674.443      35.48295       35.48295       35.48295       1.3945982      1355.9923     -22.3134        1471.9095    
   4183000   4183000        155.50411      1236.5536     -3010.1664     -3806.7605      1677.5087     -5484.2691      627.0756       1163.7316     -2121.727       12.959208     -1271.4484     -1627.15       -2267.7102     -286.49192      44172.12       35.349457      35.349457      35.349457      1.4104575      1247.7717      1307.8932      1153.996     
   4183500   4183500        147.30233     -2034.2026     -5122.1487     -3797.2077      1589.0315     -5386.2391      671.49765      1217.1385     -2121.574       12.821786     -1288.5437     -1614.3918     -2263.1876     -283.35715      44660.795      35.479336      35.479336      35.479336      1.3950244     -2325.3978     -1572.0883     -2205.1218    
   4184000   4184000        149.63828      1143.7069     -3070.9367     -3809.8812      1614.2307     -5424.1119      645.94752      1193.425      -2133.9884      12.739209     -1243.2857     -1632.1581     -2266.7915     -285.6534       44301.786      35.384012      35.384012      35.384012      1.4063293      1356.2998      2179.409      -104.58814    
   4184500   4184500        149.09763     -132.8489      -3889.2206     -3802.6578      1608.3983     -5411.0562      650.84237      1179.6018     -2119.1606      12.844216     -1250.4067     -1619.7885     -2264.9888     -283.24554      44678.394      35.483996      35.483996      35.483996      1.3944749      14.152037     -561.50927      148.81054    
   4185000   4185000        150.1129       466.58412     -3486.0285     -3789.3749      1619.3506     -5408.7255      644.70438      1214.9431     -2140.1261      13.587903     -1255.116      -1621.5178     -2265.201      -283.87532      44579.274      35.457736      35.457736      35.457736      1.3975754      958.97355     -389.43381      830.21262    
   4185500   4185500        149.48491     -14.129655     -3820.2092     -3811.0289      1612.5762     -5423.6051      639.44707      1225.76       -2123.0602      13.223775     -1293.4762     -1620.7214     -2264.7782     -284.06101      44550.133      35.450008      35.450008      35.450008      1.3984896      663.91067     -172.62722     -533.67242    
   4186000   4186000        155.00572      341.89801     -3421.7643     -3644.6647      1672.1322     -5316.7969      691.12841      1232.5603     -2108.299       12.565408     -1262.1807     -1620.5401     -2262.0313     -283.08849      44703.18       35.490556      35.490556      35.490556      1.3937017      1246.1554     -1088.9734      868.51202    
   4186500   4186500        145.73074      954.62779     -3175.0573     -3793.74        1572.0779     -5365.8179      677.14159      1197.5297     -2123.147       12.593192     -1241.0693     -1623.8133     -2265.0527     -284.77549      44438.359      35.420336      35.420336      35.420336      1.4020072      1242.6695     -425.86965      2047.0835    
   4187000   4187000        148.05163      598.88705     -3388.9787     -3775.9164      1597.1146     -5373.031       699.83928      1192.9181     -2127.3943      12.683267     -1266.9583     -1621.8036     -2262.3156     -285.65408      44301.68       35.383984      35.383984      35.383984      1.4063326      218.64104      1140.4679      437.55226    
   4187500   4187500        148.03708     -235.28428     -3967.4468     -3814.73        1596.9576     -5411.6876      653.25379      1200.0245     -2128.5593      12.7342       -1259.4859     -1624.3996     -2265.2553     -284.34304      44505.945      35.438283      35.438283      35.438283      1.3998781     -303.5647      -294.54393     -107.74421    
   4188000   4188000        146.63211     -97.601285     -3922.9406     -3859.4047      1581.8015     -5441.2061      651.75644      1174.7849     -2121.07        12.837791     -1273.1303     -1620.718      -2265.6669     -283.51292      44636.258      35.472837      35.472837      35.472837      1.3957912     -124.62136      36.821161     -205.00366    
   4188500   4188500        152.94153      57.147441     -3714.208      -3751.2783      1649.8647     -5401.1429      671.19817      1206.1111     -2131.8915      13.01635      -1281.1562     -1618.737      -2259.6839     -284.51679      44478.767      35.431068      35.431068      35.431068      1.4007335     -669.29822      764.91507      75.825474    
   4189000   4189000        151.76513      39.747388     -3724.8833     -3750.6223      1637.1741     -5387.7964      666.45256      1183.6242     -2125.1095      12.524591     -1244.5073     -1620.1731     -2260.6079     -285.00554      44402.491      35.410803      35.410803      35.410803      1.4031397     -49.924518      1136.578      -967.41136    
   4189500   4189500        146.76051     -717.6441      -4245.6443     -3782.4669      1583.1866     -5365.6534      667.63089      1244.3652     -2125.844       13.447898     -1290.5098     -1613.3237     -2261.42       -285.95534      44255.008      35.371554      35.371554      35.371554      1.4078158     -1240.9231      392.76541     -1304.7746    
   4190000   4190000        149.12842     -1383.0153     -4664.5741     -3762.731       1608.7305     -5371.4615      695.48175      1205.6529     -2123.3126      12.828012     -1280.081      -1619.161      -2262.8696     -283.03004      44712.413      35.492999      35.492999      35.492999      1.3934139     -2311.5869     -1065.5174     -771.94147    
   4190500   4190500        147.89302     -493.42134     -4138.9444     -3818.5383      1595.4035     -5413.9419      659.10227      1202.8424     -2120.3523      13.498525     -1288.3405     -1619.5647     -2261.1276     -284.2194       44525.306      35.443421      35.443421      35.443421      1.3992694     -196.89387     -354.57639     -928.79375    
   4191000   4191000        145.67384     -359.18088     -4066.0011     -3832.0287      1571.4641     -5403.4928      679.81406      1195.2579     -2137.3167      12.915619     -1276.0437     -1617.4965     -2260.6235     -283.32517      44665.836      35.480671      35.480671      35.480671      1.3948669     -917.15102     -861.13975      700.74813    
   4191500   4191500        149.20792     -249.04348     -3923.5725     -3761.4226      1609.5881     -5371.0107      656.05911      1218.2043     -2119.2435      12.501706     -1258.4797     -1619.7653     -2260.2873     -283.46201      44644.275      35.474961      35.474961      35.474961      1.3955406     -1167.9264     -991.53206      1412.328     
   4192000   4192000        152.64434     -677.9023      -4210.3125     -3769.7099      1646.6587     -5416.3686      685.702        1187.9508     -2125.119       13.115298     -1300.0897     -1614.1499     -2263.7781     -283.95961      44566.041      35.454227      35.454227      35.454227      1.3979904     -590.5331      -508.84569     -934.32809    
   4192500   4192500        153.31875     -511.45276     -4065.462      -3733.3943      1653.9339     -5387.3282      675.86922      1208.2512     -2120.0433      12.83017      -1282.0235     -1618.4902     -2263.7218     -284.25976      44518.984      35.441744      35.441744      35.441744      1.3994681     -1083.9626     -810.2406       359.84492    
   4193000   4193000        148.4756      -989.57865     -4418.8408     -3777.6121      1601.6882     -5379.3004      704.7306       1197.8062     -2120.6734      12.134954     -1290.9011     -1618.5178     -2263.8799     -284.82224      44431.066      35.418398      35.418398      35.418398      1.4022373      94.385976     -833.05993     -2230.062     
   4193500   4193500        150.20156     -136.0484      -3868.5288     -3780.639       1620.3071     -5400.9461      678.46957      1201.1952     -2119.1416      12.867073     -1294.6867     -1618.0121     -2261.6376     -285.68772      44296.464      35.382596      35.382596      35.382596      1.4064982     -161.00516      368.44479     -615.58483    
   4194000   4194000        151.09118     -907.78249     -4350.4431     -3762.2614      1629.9039     -5392.1653      696.37015      1168.3203     -2118.7879      12.491876     -1275.6269     -1615.0299     -2259.9029     -284.84383      44427.699      35.417503      35.417503      35.417503      1.4023436     -695.90761     -1178.9215     -848.51841    
   4194500   4194500        150.00461      998.59938     -3158.8186     -3802.7453      1618.1824     -5420.9277      654.44871      1196.5372     -2134.0812      12.786031     -1265.6822     -1622.2585     -2262.6777     -286.21434      44214.961      35.360881      35.360881      35.360881      1.4090909      1108.3377      1588.2213      299.23917    
   4195000   4195000        147.23807     -201.88088     -3993.4636     -3861.9521      1588.3382     -5450.2904      647.21965      1166.4462     -2127.1967      13.150584     -1263.9007     -1622.8114     -2263.1981     -283.31405      44667.589      35.481135      35.481135      35.481135      1.3948122     -523.78028      575.26459     -657.12694    
   4195500   4195500        151.47666     -228.37769     -3897.9969     -3749.861       1634.0622     -5383.9233      693.2526       1197.2288     -2122.9367      12.965982     -1282.8815     -1619.0105     -2262.5419     -284.53128      44476.501      35.430467      35.430467      35.430467      1.4008048      146.0319      -324.42054     -506.74443    
   4196000   4196000        150.29008     -483.87899     -4057.6373     -3743.8121      1621.262      -5365.0741      683.2023       1221.3515     -2124.3716      12.827439     -1279.2461     -1619.0981     -2259.7397     -284.5676       44470.824      35.428959      35.428959      35.428959      1.4009837     -489.45766     -461.17549     -501.00381    
   4196500   4196500        146.9141       930.56016     -3240.345      -3843.0471      1584.8435     -5427.8906      653.75469      1211.0556     -2142.913       12.850749     -1275.5106     -1622.956      -2264.1721     -284.95632      44410.159      35.412842      35.412842      35.412842      1.4028974      1287.6533      1312.8651      191.16205    
   4197000   4197000        149.33693     -306.95076     -3990.718      -3791.2945      1610.9799     -5402.2744      676.48238      1182.6365     -2113.8535      12.624694     -1279.0951     -1617.3414     -2263.7279     -284.07235      44548.354      35.449536      35.449536      35.449536      1.3985454     -295.31105     -841.80286      216.26162    
   4197500   4197500        151.0403      -921.51013     -4366.2963     -3772.0313      1629.355      -5401.3863      669.12478      1210.0534     -2125.0676      12.706354     -1289.4811     -1618.1156     -2260.6065     -286.19135      44218.512      35.361828      35.361828      35.361828      1.4089777     -1511.953       122.32174     -1374.8992    
   4198000   4198000        148.61012     -1392.9314     -4685.3368     -3775.8036      1603.1393     -5378.943       680.72869      1210.2609     -2132.4986      13.036757     -1269.6241     -1619.2291     -2261.6175     -282.64917      44772.661      35.508934      35.508934      35.508934      1.3915389     -1571.849      -1078.4958     -1528.4493    
   4198500   4198500        151.93356      372.1496      -3501.0668     -3743.4051      1638.9911     -5382.3962      651.25784      1215.4769     -2119.4337      13.125012     -1261.0529     -1619.805      -2261.9643     -283.42097      44650.738      35.476673      35.476673      35.476673      1.3953386      392.49549      345.72227      378.23103    
   4199000   4199000        150.06089      438.97384     -3483.6505     -3767.7341      1618.7896     -5386.5237      689.71654      1197.0936     -2138.8753      13.106335     -1268.9611     -1617.2349     -2261.3688     -285.18654      44374.309      35.40331       35.40331       35.40331       1.4040308      63.184628      285.17404      968.56284    
   4199500   4199500        150.1793       245.60245     -3654.0648     -3813.223       1620.0669     -5433.2899      654.95017      1180.6518     -2119.656       12.215104     -1280.7037     -1620.3304     -2260.4169     -284.80018      44434.507      35.419312      35.419312      35.419312      1.4021287      516.72724      145.86669      74.213418    
   4200000   4200000        150.0174      -827.96818     -4318.8846     -3782.885       1618.3204     -5401.2054      680.83701      1210.1738     -2125.5284      12.677446     -1303.6785     -1614.6734     -2261.0134     -285.09244      44388.955      35.407205      35.407205      35.407205      1.4035676     -1279.3109     -417.87243     -786.72122    
Loop time of 322.112 on 1 procs for 200000 steps with 3620 atoms

Performance: 53.646 ns/day, 0.447 hours/ns, 620.903 timesteps/s, 2.248 Matom-step/s
100.0% CPU use with 1 MPI tasks x 1 OpenMP threads

MPI task timing breakdown:
Section |  min time  |  avg time  |  max time  |%varavg| %total
---------------------------------------------------------------
Pair    | 25.03      | 25.03      | 25.03      |   0.0 |  7.77
Bond    | 41.664     | 41.664     | 41.664     |   0.0 | 12.93
Kspace  | 177.44     | 177.44     | 177.44     |   0.0 | 55.09
Neigh   | 7.98       | 7.98       | 7.98       |   0.0 |  2.48
Comm    | 2.2968     | 2.2968     | 2.2968     |   0.0 |  0.71
Output  | 0.03581    | 0.03581    | 0.03581    |   0.0 |  0.01
Modify  | 59.698     | 59.698     | 59.698     |   0.0 | 18.53
Other   |            | 7.965      |            |       |  2.47

Nlocal:           3620 ave        3620 max        3620 min
Histogram: 1 0 0 0 0 0 0 0 0 0
Nghost:          12512 ave       12512 max       12512 min
Histogram: 1 0 0 0 0 0 0 0 0 0
Neighs:              0 ave           0 max           0 min
Histogram: 1 0 0 0 0 0 0 0 0 0
FullNghs:  1.87187e+06 ave 1.87187e+06 max 1.87187e+06 min
Histogram: 1 0 0 0 0 0 0 0 0 0

Total # of neighbors = 1871866
Ave neighs/atom = 517.09006
Ave special neighs/atom = 5.9723757
Neighbor list builds = 2305
Dangerous builds = 0
  unfix npt_tg
  shell echo '{"stage":"T${temps}","status":"done"}' >> /home/alexzhao/PolyJarvis/data/PVC3/lammps/thermal/tg_sweep_r100/tg_progress.jsonl
  dump per_t_snap all atom 1 per_t_structs.dump
  dump_modify per_t_snap append yes
  run 0
WARNING: No fixes with time integration, atoms won't move
For more information see https://docs.lammps.org/err0028 (src/verlet.cpp:60)
PPPM Kokkos initialization ...
  using 12-bit tables for long-range coulomb
  G vector (1/distance) = 0.29641144
  grid = 24 24 24
  stencil order = 5
  estimated absolute RMS force accuracy = 0.0003626737
  estimated relative force accuracy = 1.0921811e-06
  using double precision cuFFT
  3d grid and FFT values/proc = 29791 13824
Generated 6 of 6 mixed pair_coeff terms from sixthpower/sixthpower mixing rule
Per MPI rank memory allocation (min/avg/max) = 24.13 | 24.13 | 24.13 Mbytes
   Step          Time           Temp          Press         Enthalpy        TotEng         KinEng         PotEng         E_bond        E_angle        E_dihed        E_impro         E_vdwl         E_coul         E_long         E_tail         Volume           Lx             Ly             Lz          Density          Pxx            Pyy            Pzz      
   4200000   4200000        150.0174      -827.96864     -4318.8849     -3782.885       1618.3204     -5401.2054      680.83701      1210.1738     -2125.5284      12.677446     -1303.6785     -1614.2309     -2261.4559     -285.09244      44388.955      35.407205      35.407205      35.407205      1.4035676     -1279.3113     -417.873       -786.72162    
Loop time of 4.0626e-05 on 1 procs for 0 steps with 3620 atoms

100.9% CPU use with 1 MPI tasks x 1 OpenMP threads

MPI task timing breakdown:
Section |  min time  |  avg time  |  max time  |%varavg| %total
---------------------------------------------------------------
Pair    | 0          | 0          | 0          |   0.0 |  0.00
Bond    | 0          | 0          | 0          |   0.0 |  0.00
Kspace  | 0          | 0          | 0          |   0.0 |  0.00
Neigh   | 0          | 0          | 0          |   0.0 |  0.00
Comm    | 0          | 0          | 0          |   0.0 |  0.00
Output  | 0          | 0          | 0          |   0.0 |  0.00
Modify  | 0          | 0          | 0          |   0.0 |  0.00
Other   |            | 4.063e-05  |            |       |100.00

Nlocal:           3620 ave        3620 max        3620 min
Histogram: 1 0 0 0 0 0 0 0 0 0
Nghost:          12525 ave       12525 max       12525 min
Histogram: 1 0 0 0 0 0 0 0 0 0
Neighs:              0 ave           0 max           0 min
Histogram: 1 0 0 0 0 0 0 0 0 0
FullNghs:  1.87178e+06 ave 1.87178e+06 max 1.87178e+06 min
Histogram: 1 0 0 0 0 0 0 0 0 0

Total # of neighbors = 1871784
Ave neighs/atom = 517.0674
Ave special neighs/atom = 5.9723757
Neighbor list builds = 0
Dangerous builds = 0
  undump per_t_snap
  print "STAGE COMPLETE: Tg step T=${temps}K P=1.0atm steps=200000"
STAGE COMPLETE: Tg step T=150K P=1.0atm steps=200000
  next temps
  jump SELF TEMP_LOOP

write_data tg_step_out.data
System init for write_data ...
PPPM Kokkos initialization ...
  using 12-bit tables for long-range coulomb
  G vector (1/distance) = 0.29641144
  grid = 24 24 24
  stencil order = 5
  estimated absolute RMS force accuracy = 0.0003626737
  estimated relative force accuracy = 1.0921811e-06
  using double precision cuFFT
  3d grid and FFT values/proc = 29791 13824
Generated 6 of 6 mixed pair_coeff terms from sixthpower/sixthpower mixing rule
Total wall time: 1:56:42
