units real
atom_style full
boundary p p p

# --- Force Field Styles ---
pair_style lj/class2/coul/long 9.5 9.5
kspace_style pppm 1e-6
dielectric 1.000000
bond_style class2
angle_style class2
dihedral_style class2
improper_style class2
special_bonds lj/coul 0 0 1
pair_modify mix sixthpower tail yes
neighbor 2.0 bin
neigh_modify delay 0 every 1 check yes
neigh_modify one 4000
package gpu 1 neigh no

read_data /home/arz2/PolyJarvis/data/PLA1/lammps/equil/npt_cool300/npt_cool300_out.data
Reading data file ...
  orthogonal box = (4.5531111 4.5531111 4.5531111) to (41.080012 41.080012 41.080012)
  1 by 2 by 2 MPI processor grid
  reading atoms ...
  4520 atoms
  reading velocities ...
  4520 velocities
  scanning bonds ...
  4 = max bonds/atom
  scanning angles ...
  6 = max angles/atom
  scanning dihedrals ...
  12 = max dihedrals/atom
  scanning impropers ...
  4 = max impropers/atom
  orthogonal box = (4.5531111 4.5531111 4.5531111) to (41.080012 41.080012 41.080012)
  1 by 2 by 2 MPI processor grid
  reading bonds ...
  4510 bonds
  reading angles ...
  8000 angles
  reading dihedrals ...
  9970 dihedrals
  reading impropers ...
  4500 impropers
Finding 1-2 1-3 1-4 neighbors ...
  special bond factors lj:    0        0        1       
  special bond factors coul:  0        0        1       
     4 = max # of 1-2 neighbors
     6 = max # of 1-3 neighbors
    10 = max # of special neighbors
  special bonds CPU = 0.000 seconds
  read_data CPU = 0.096 seconds
include /home/arz2/PolyJarvis/data/PLA1/lammps/equil/emc_build.params
# LAMMPS parameters created by EMC v9.4.4, build Jul 31 2025 20:33:44

# Variables

variable	seed		index	-1
variable	ntotal		index	4520
variable	fshape		index	1
variable	output		index	emc_build
variable	field		index	pcff/pcff
variable	location1	index	/home/arz2/emc/field/
variable	nav		index	0.6022141179
variable	temperature	index	300
variable	radius		index	5
variable	nrelax		index	100
variable	weight_nonbond	index	0.0001
variable	weight_bond	index	0.0001
variable	weight_focus	index	1
variable	cutoff		index	9.5
variable	charge_cutoff	index	9.5
variable	kappa		index	4
variable	density1	index	0.63
variable	lprevious	index	0
variable	lphase		index	45.6331234262
variable	f_poly		index	10
variable	chem_repeat	index	*C(C)C(=O)O*
variable	chem_cap	index	*[H]
variable	lg_repeat	index	9
variable	lg_cap		index	1
variable	norm_poly	index	100
variable	l_poly		index	452
variable	mg_repeat	index	44.05358
variable	mg_cap		index	0
variable	m_poly		index	2202.679
variable	n_poly		index	10
variable	mtotal		index	36052.2247
variable	nphase1		index	4520
variable	mphase1		index	36052.2247
variable	vphase1		index	95025.5927105
variable	lbox		index	45.6331234262
variable	lphase1		index	45.6331234262
variable	lxx		index	45.6331234262
variable	lyy		index	45.6331234262
variable	lzz		index	45.6331234262
variable	lzy		index	0
variable	lzx		index	0
variable	lyx		index	0
variable	vtotal		index	95025.5927105
variable	nl_poly		index	10

# Types

variable	type_c		index	1
variable	type_c1		index	2
variable	type_c_1	index	3
variable	type_hc		index	4
variable	type_ho2	index	5
variable	type_o_1	index	6
variable	type_o_2	index	7

variable	type_bond_c_c	index	1
variable	type_bond_c_c1	index	2
variable	type_bond_c_c_1	index	3
variable	type_bond_c_hc	index	4
variable	type_bond_c1_c_1 index	5
variable	type_bond_c1_hc	index	6
variable	type_bond_c1_o_2 index	7
variable	type_bond_c_1_o_1 index	8
variable	type_bond_c_1_o_2 index	9
variable	type_bond_ho2_o_2 index	10

variable	type_angle_c_c_c_1 index	1
variable	type_angle_c_c_hc index	2
variable	type_angle_c_c1_c_1 index	3
variable	type_angle_c_c1_hc index	4
variable	type_angle_c_c1_o_2 index	5
variable	type_angle_c_c_1_o_1 index	6
variable	type_angle_c_c_1_o_2 index	7
variable	type_angle_c1_c_hc index	8
variable	type_angle_c1_c_1_o_1 index	9
variable	type_angle_c1_c_1_o_2 index	10
variable	type_angle_c1_o_2_c_1 index	11
variable	type_angle_c_1_c_hc index	12
variable	type_angle_c_1_c1_hc index	13
variable	type_angle_c_1_c1_o_2 index	14
variable	type_angle_c_1_o_2_ho2 index	15
variable	type_angle_hc_c_hc index	16
variable	type_angle_hc_c1_o_2 index	17
variable	type_angle_o_1_c_1_o_2 index	18

# Clusters

variable	n0_poly		index	1
variable	n1_poly		index	10
variable	nl_poly		index	10

# Flags

variable	flag_charged	index	1

# Masses

mass		1    12.01115  # c
mass		2    12.01115  # c1
mass		3    12.01115  # c_1
mass		4     1.00797  # hc
mass		5     1.00800  # ho2
mass		6    15.99940  # o_1
mass		7    15.99940  # o_2

# Potentials

pair_modify	mix sixthpower tail yes
special_bonds	lj/coul 0 0 1

# Pair Coeffs

pair_coeff	 1  1    0.05400    4.01000  # c,c
pair_coeff	 2  2    0.05400    4.01000  # c1,c1
pair_coeff	 3  3    0.12000    3.81000  # c_1,c_1
pair_coeff	 4  4    0.02000    2.99500  # hc,hc
pair_coeff	 5  5    0.01300    1.11000  # ho2,ho2
pair_coeff	 6  6    0.26700    3.30000  # o_1,o_1
pair_coeff	 7  7    0.24000    3.42000  # o_2,o_2

# Bond Coeffs

bond_coeff	 1    1.53000  299.67000 -501.77000  679.81000  # c,c
bond_coeff	 2    1.53000  299.67000 -501.77000  679.81000  # c,c1
bond_coeff	 3    1.52020  253.70670 -423.03700  396.90000  # c,c_1
bond_coeff	 4    1.10100  345.00000 -691.89000  844.60000  # c,hc
bond_coeff	 5    1.52020  253.70670 -423.03700  396.90000  # c1,c_1
bond_coeff	 6    1.10100  345.00000 -691.89000  844.60000  # c1,hc
bond_coeff	 7    1.43000  326.72730 -608.53060  689.03330  # c1,o_2
bond_coeff	 8    1.20200  851.14030 -1918.48820 2160.76590  # c_1,o_1
bond_coeff	 9    1.36830  367.14810 -794.79080 1055.23190  # c_1,o_2
bond_coeff	10    0.95200  534.29940 -1287.19370 1889.13960  # ho2,o_2

# Angle Coeffs

angle_coeff	 1  108.52950   51.97470   -9.48510  -10.99850  # c,c,c_1
angle_coeff	 2  110.77000   41.45300  -10.60400    5.12900  # c,c,hc
angle_coeff	 3  108.52950   51.97470   -9.48510  -10.99850  # c,c1,c_1
angle_coeff	 4  110.77000   41.45300  -10.60400    5.12900  # c,c1,hc
angle_coeff	 5  107.41000   63.39070  -13.45130    1.66500  # c,c1,o_2
angle_coeff	 6  123.14510   55.54310  -17.21230    0.13480  # c,c_1,o_1
angle_coeff	 7  100.31820   38.86310   -3.83230   -7.98020  # c,c_1,o_2
angle_coeff	 8  110.77000   41.45300  -10.60400    5.12900  # c1,c,hc
angle_coeff	 9  123.14510   55.54310  -17.21230    0.13480  # c1,c_1,o_1
angle_coeff	10  100.31820   38.86310   -3.83230   -7.98020  # c1,c_1,o_2
angle_coeff	11  113.28800   61.28680  -28.97860    7.99290  # c1,o_2,c_1
angle_coeff	12  107.73360   40.60990  -28.81210    0.00000  # c_1,c,hc
angle_coeff	13  107.73360   40.60990  -28.81210    0.00000  # c_1,c1,hc
angle_coeff	14  109.50000   60.00000    0.00000    0.00000  # c_1,c1,o_2
angle_coeff	15  112.87400   53.25120  -14.99790    2.46400  # c_1,o_2,ho2
angle_coeff	16  107.66000   39.64100  -12.92100   -2.43180  # hc,c,hc
angle_coeff	17  107.68800   65.48010  -10.34980    5.88660  # hc,c1,o_2
angle_coeff	18  120.79700   95.34460  -32.28690    6.37780  # o_1,c_1,o_2

# BondBond Coeffs

angle_coeff	 1 bb    5.41990    1.53000    1.52020  # c,c,c_1
angle_coeff	 2 bb    3.38720    1.53000    1.10100  # c,c,hc
angle_coeff	 3 bb    5.41990    1.53000    1.52020  # c,c1,c_1
angle_coeff	 4 bb    3.38720    1.53000    1.10100  # c,c1,hc
angle_coeff	 5 bb   23.26470    1.53000    1.43000  # c,c1,o_2
angle_coeff	 6 bb   46.06850    1.52020    1.20200  # c,c_1,o_1
angle_coeff	 7 bb   19.10690    1.52020    1.36830  # c,c_1,o_2
angle_coeff	 8 bb    3.38720    1.53000    1.10100  # c1,c,hc
angle_coeff	 9 bb   46.06850    1.52020    1.20200  # c1,c_1,o_1
angle_coeff	10 bb   19.10690    1.52020    1.36830  # c1,c_1,o_2
angle_coeff	11 bb   45.45030    1.43000    1.36830  # c1,o_2,c_1
angle_coeff	12 bb    0.71150    1.52020    1.10100  # c_1,c,hc
angle_coeff	13 bb    0.71150    1.52020    1.10100  # c_1,c1,hc
angle_coeff	14 bb    0.00000    1.52020    1.43000  # c_1,c1,o_2
angle_coeff	15 bb    9.56710    1.36830    0.95200  # c_1,o_2,ho2
angle_coeff	16 bb    5.33160    1.10100    1.10100  # hc,c,hc
angle_coeff	17 bb    5.64540    1.10100    1.43000  # hc,c1,o_2
angle_coeff	18 bb  121.48800    1.20200    1.36830  # o_1,c_1,o_2

# BondAngle Coeffs

angle_coeff	 1 ba   18.16780   15.87580    1.53000    1.52020  # c,c,c_1
angle_coeff	 2 ba   20.75400   11.42100    1.53000    1.10100  # c,c,hc
angle_coeff	 3 ba   18.16780   15.87580    1.53000    1.52020  # c,c1,c_1
angle_coeff	 4 ba   20.75400   11.42100    1.53000    1.10100  # c,c1,hc
angle_coeff	 5 ba   23.39200   47.94870    1.53000    1.43000  # c,c1,o_2
angle_coeff	 6 ba   34.99820   37.12980    1.52020    1.20200  # c,c_1,o_1
angle_coeff	 7 ba    1.34350    4.69780    1.52020    1.36830  # c,c_1,o_2
angle_coeff	 8 ba   20.75400   11.42100    1.53000    1.10100  # c1,c,hc
angle_coeff	 9 ba   34.99820   37.12980    1.52020    1.20200  # c1,c_1,o_1
angle_coeff	10 ba    1.34350    4.69780    1.52020    1.36830  # c1,c_1,o_2
angle_coeff	11 ba   41.91160   46.46080    1.43000    1.36830  # c1,o_2,c_1
angle_coeff	12 ba   12.46320    9.17650    1.52020    1.10100  # c_1,c,hc
angle_coeff	13 ba   12.46320    9.17650    1.52020    1.10100  # c_1,c1,hc
angle_coeff	14 ba    0.00000    0.00000    1.52020    1.43000  # c_1,c1,o_2
angle_coeff	15 ba   37.91630   21.43640    1.36830    0.95200  # c_1,o_2,ho2
angle_coeff	16 ba   18.10300   18.10300    1.10100    1.10100  # hc,c,hc
angle_coeff	17 ba    8.68640   57.49750    1.10100    1.43000  # hc,c1,o_2
angle_coeff	18 ba   76.26140   71.87610    1.20200    1.36830  # o_1,c_1,o_2

# Dihedral Coeffs

dihedral_coeff	 1    0.04420    0.00000    0.02920    0.00000    0.05620    0.00000  # c,c,c_1,o_1
dihedral_coeff	 2    1.83410    0.00000    2.06030    0.00000   -0.01950    0.00000  # c,c,c_1,o_2
dihedral_coeff	 3    0.04420    0.00000    0.02920    0.00000    0.05620    0.00000  # c,c1,c_1,o_1
dihedral_coeff	 4    1.83410    0.00000    2.06030    0.00000   -0.01950    0.00000  # c,c1,c_1,o_2
dihedral_coeff	 5    0.00000    0.00000    0.00000    0.00000   -0.19320    0.00000  # c,c1,o_2,c_1
dihedral_coeff	 6   -2.55940    0.00000    2.20130    0.00000    0.03250    0.00000  # c,c_1,o_2,c1
dihedral_coeff	 7   -2.55940    0.00000    2.20130    0.00000    0.03250    0.00000  # c1,c_1,o_2,c1
dihedral_coeff	 8   -2.91260    0.00000    1.01990    0.00000   -0.20770    0.00000  # c1,c_1,o_2,ho2
dihedral_coeff	 9    0.00000    0.00000    2.20890    0.00000    0.00000    0.00000  # c1,o_2,c_1,o_1
dihedral_coeff	10   -0.02280    0.00000    0.02800    0.00000   -0.18630    0.00000  # c_1,c,c,hc
dihedral_coeff	11   -0.02280    0.00000    0.02800    0.00000   -0.18630    0.00000  # c_1,c1,c,hc
dihedral_coeff	12    0.00000    0.00000    0.00000    0.00000   -0.19320    0.00000  # c_1,c1,o_2,c_1
dihedral_coeff	13    0.00000    0.00000    0.00000    0.00000   -0.19320    0.00000  # c_1,o_2,c1,hc
dihedral_coeff	14   -0.14320    0.00000    0.06170    0.00000   -0.10830    0.00000  # hc,c,c,hc
dihedral_coeff	15   -0.14320    0.00000    0.06170    0.00000   -0.10830    0.00000  # hc,c,c1,hc
dihedral_coeff	16    0.00000    0.00000    0.00000    0.00000   -0.25000    0.00000  # hc,c,c1,o_2
dihedral_coeff	17   -0.18040    0.00000    0.00120    0.00000    0.03710    0.00000  # hc,c,c_1,o_1
dihedral_coeff	18   -0.63590    0.00000    1.48070    0.00000   -0.04380    0.00000  # hc,c,c_1,o_2
dihedral_coeff	19   -0.18040    0.00000    0.00120    0.00000    0.03710    0.00000  # hc,c1,c_1,o_1
dihedral_coeff	20   -0.63590    0.00000    1.48070    0.00000   -0.04380    0.00000  # hc,c1,c_1,o_2
dihedral_coeff	21    0.00000    0.00000    2.20890    0.00000    0.00000    0.00000  # ho2,o_2,c_1,o_1
dihedral_coeff	22    0.00000  180.00000    0.00000    0.00000    0.00000    0.00000  # o_1,c_1,c1,o_2
dihedral_coeff	23    0.00000  180.00000    0.00000    0.00000    0.00000    0.00000  # o_2,c1,c_1,o_2

# MiddleBondTorsion Coeffs

dihedral_coeff	 1 mbt    0.33880   -0.10960    0.12190    1.52020  # c,c,c_1,o_1
dihedral_coeff	 2 mbt  -17.32800   -5.79000   -3.21140    1.52020  # c,c,c_1,o_2
dihedral_coeff	 3 mbt    0.33880   -0.10960    0.12190    1.52020  # c,c1,c_1,o_1
dihedral_coeff	 4 mbt  -17.32800   -5.79000   -3.21140    1.52020  # c,c1,c_1,o_2
dihedral_coeff	 5 mbt   -5.43500    0.00000    0.00000    1.43000  # c,c1,o_2,c_1
dihedral_coeff	 6 mbt    1.34450    3.55150   -4.92020    1.36830  # c,c_1,o_2,c1
dihedral_coeff	 7 mbt    1.34450    3.55150   -4.92020    1.36830  # c1,c_1,o_2,c1
dihedral_coeff	 8 mbt    2.14520    0.54820   -2.36930    1.36830  # c1,c_1,o_2,ho2
dihedral_coeff	 9 mbt    4.26000    0.00000    0.00000    1.36830  # c1,o_2,c_1,o_1
dihedral_coeff	10 mbt   -3.50390    1.24580   -0.76100    1.53000  # c_1,c,c,hc
dihedral_coeff	11 mbt   -3.50390    1.24580   -0.76100    1.53000  # c_1,c1,c,hc
dihedral_coeff	12 mbt    0.00000    0.00000    0.00000    1.43000  # c_1,c1,o_2,c_1
dihedral_coeff	13 mbt    0.00000    0.00000    0.00000    1.43000  # c_1,o_2,c1,hc
dihedral_coeff	14 mbt  -14.26100   -0.53220   -0.48640    1.53000  # hc,c,c,hc
dihedral_coeff	15 mbt  -14.26100   -0.53220   -0.48640    1.53000  # hc,c,c1,hc
dihedral_coeff	16 mbt    0.00000    0.00000    0.00000    1.53000  # hc,c,c1,o_2
dihedral_coeff	17 mbt    0.23590    0.91390    0.95940    1.52020  # hc,c,c_1,o_1
dihedral_coeff	18 mbt  -13.76860   -2.59590    1.19340    1.52020  # hc,c,c_1,o_2
dihedral_coeff	19 mbt    0.23590    0.91390    0.95940    1.52020  # hc,c1,c_1,o_1
dihedral_coeff	20 mbt  -13.76860   -2.59590    1.19340    1.52020  # hc,c1,c_1,o_2
dihedral_coeff	21 mbt    4.26000    0.00000    0.00000    1.36830  # ho2,o_2,c_1,o_1
dihedral_coeff	22 mbt    0.00000    0.00000    0.00000    1.52020  # o_1,c_1,c1,o_2
dihedral_coeff	23 mbt    0.00000    0.00000    0.00000    1.52020  # o_2,c1,c_1,o_2

# EndBondTorsion Coeffs

dihedral_coeff	 1 ebt    0.26540    0.05030    0.10460   -0.28100    0.08160   -0.15220    1.53000    1.20200  # c,c,c_1,o_1
dihedral_coeff	 2 ebt    0.00000    0.00000    0.00000    0.00000    0.00000    0.00000    1.53000    1.36830  # c,c,c_1,o_2
dihedral_coeff	 3 ebt    0.26540    0.05030    0.10460   -0.28100    0.08160   -0.15220    1.53000    1.20200  # c,c1,c_1,o_1
dihedral_coeff	 4 ebt    0.00000    0.00000    0.00000    0.00000    0.00000    0.00000    1.53000    1.36830  # c,c1,c_1,o_2
dihedral_coeff	 5 ebt    0.00000    0.00000    0.00000    0.00000    0.00000    0.00000    1.53000    1.36830  # c,c1,o_2,c_1
dihedral_coeff	 6 ebt    0.00000    0.00000    0.00000    0.00000    0.00000    0.00000    1.52020    1.43000  # c,c_1,o_2,c1
dihedral_coeff	 7 ebt    0.00000    0.00000    0.00000    0.00000    0.00000    0.00000    1.52020    1.43000  # c1,c_1,o_2,c1
dihedral_coeff	 8 ebt    0.00000    0.00000    0.00000    0.00000    0.00000    0.00000    1.52020    0.95200  # c1,c_1,o_2,ho2
dihedral_coeff	 9 ebt    0.00000    0.00000    0.00000    0.00000    0.00000    0.00000    1.43000    1.20200  # c1,o_2,c_1,o_1
dihedral_coeff	10 ebt   -0.02040    0.36280   -0.44260   -0.00970   -0.03150   -0.07550    1.52020    1.10100  # c_1,c,c,hc
dihedral_coeff	11 ebt   -0.02040    0.36280   -0.44260   -0.00970   -0.03150   -0.07550    1.52020    1.10100  # c_1,c1,c,hc
dihedral_coeff	12 ebt    0.00000    0.00000    0.00000    0.00000    0.00000    0.00000    1.52020    1.36830  # c_1,c1,o_2,c_1
dihedral_coeff	13 ebt    0.00000    0.00000    0.00000    0.00000    0.00000    0.00000    1.36830    1.10100  # c_1,o_2,c1,hc
dihedral_coeff	14 ebt    0.21300    0.31200    0.07770    0.21300    0.31200    0.07770    1.10100    1.10100  # hc,c,c,hc
dihedral_coeff	15 ebt    0.21300    0.31200    0.07770    0.21300    0.31200    0.07770    1.10100    1.10100  # hc,c,c1,hc
dihedral_coeff	16 ebt    0.00000    0.00000    0.00000    0.00000    0.00000    0.00000    1.10100    1.43000  # hc,c,c1,o_2
dihedral_coeff	17 ebt    1.21430    0.28310    0.39160   -0.22980    0.03540    0.38530    1.10100    1.20200  # hc,c,c_1,o_1
dihedral_coeff	18 ebt    0.00000    0.00000    0.00000    0.00000    0.00000    0.00000    1.10100    1.36830  # hc,c,c_1,o_2
dihedral_coeff	19 ebt    1.21430    0.28310    0.39160   -0.22980    0.03540    0.38530    1.10100    1.20200  # hc,c1,c_1,o_1
dihedral_coeff	20 ebt    0.00000    0.00000    0.00000    0.00000    0.00000    0.00000    1.10100    1.36830  # hc,c1,c_1,o_2
dihedral_coeff	21 ebt    0.00000    0.00000    0.00000    0.00000    0.00000    0.00000    0.95200    1.20200  # ho2,o_2,c_1,o_1
dihedral_coeff	22 ebt    0.00000    0.00000    0.00000    0.00000    0.00000    0.00000    1.20200    1.43000  # o_1,c_1,c1,o_2
dihedral_coeff	23 ebt    0.00000    0.00000    0.00000    0.00000    0.00000    0.00000    1.43000    1.36830  # o_2,c1,c_1,o_2

# AngleTorsion Coeffs

dihedral_coeff	 1 at    0.08850   -1.37030   -0.54520    0.67500    0.59650    0.67250  108.52950  123.14510  # c,c,c_1,o_1
dihedral_coeff	 2 at    0.00000    0.00000    0.00000    0.00000    0.00000    0.00000  108.52950  100.31820  # c,c,c_1,o_2
dihedral_coeff	 3 at    0.08850   -1.37030   -0.54520    0.67500    0.59650    0.67250  108.52950  123.14510  # c,c1,c_1,o_1
dihedral_coeff	 4 at    0.00000    0.00000    0.00000    0.00000    0.00000    0.00000  108.52950  100.31820  # c,c1,c_1,o_2
dihedral_coeff	 5 at    0.00000    0.00000    0.00000    0.00000    0.00000    0.00000  107.41000  113.28800  # c,c1,o_2,c_1
dihedral_coeff	 6 at    0.00000    0.00000    0.00000    0.00000    0.00000    0.00000  100.31820  113.28800  # c,c_1,o_2,c1
dihedral_coeff	 7 at    0.00000    0.00000    0.00000    0.00000    0.00000    0.00000  100.31820  113.28800  # c1,c_1,o_2,c1
dihedral_coeff	 8 at    0.00000    0.00000    0.00000    0.00000    0.00000    0.00000  100.31820  112.87400  # c1,c_1,o_2,ho2
dihedral_coeff	 9 at    0.00000    0.00000    0.00000    0.00000    0.00000    0.00000  113.28800  120.79700  # c1,o_2,c_1,o_1
dihedral_coeff	10 at   -0.74660   -0.94480   -0.63210    0.01620    1.42110   -1.40920  108.52950  110.77000  # c_1,c,c,hc
dihedral_coeff	11 at   -0.74660   -0.94480   -0.63210    0.01620    1.42110   -1.40920  108.52950  110.77000  # c_1,c1,c,hc
dihedral_coeff	12 at    0.00000    0.00000    0.00000    0.00000    0.00000    0.00000  109.50000  113.28800  # c_1,c1,o_2,c_1
dihedral_coeff	13 at    0.00000    0.00000    0.00000    0.00000    0.00000    0.00000  113.28800  107.68800  # c_1,o_2,c1,hc
dihedral_coeff	14 at   -0.80850    0.55690   -0.24660   -0.80850    0.55690   -0.24660  110.77000  110.77000  # hc,c,c,hc
dihedral_coeff	15 at   -0.80850    0.55690   -0.24660   -0.80850    0.55690   -0.24660  110.77000  110.77000  # hc,c,c1,hc
dihedral_coeff	16 at    0.00000    0.00000    0.00000    0.00000    0.00000    0.00000  110.77000  107.41000  # hc,c,c1,o_2
dihedral_coeff	17 at    9.12990   -0.48470    0.35820   -1.49460    0.73080   -0.20830  107.73360  123.14510  # hc,c,c_1,o_1
dihedral_coeff	18 at    0.00000    0.00000    0.00000    0.00000    0.00000    0.00000  107.73360  100.31820  # hc,c,c_1,o_2
dihedral_coeff	19 at    9.12990   -0.48470    0.35820   -1.49460    0.73080   -0.20830  107.73360  123.14510  # hc,c1,c_1,o_1
dihedral_coeff	20 at    0.00000    0.00000    0.00000    0.00000    0.00000    0.00000  107.73360  100.31820  # hc,c1,c_1,o_2
dihedral_coeff	21 at    0.00000    0.00000    0.00000    0.00000    0.00000    0.00000  112.87400  120.79700  # ho2,o_2,c_1,o_1
dihedral_coeff	22 at    0.00000    0.00000    0.00000    0.00000    0.00000    0.00000  123.14510  109.50000  # o_1,c_1,c1,o_2
dihedral_coeff	23 at    0.00000    0.00000    0.00000    0.00000    0.00000    0.00000  109.50000  100.31820  # o_2,c1,c_1,o_2

# AngleAngleTorsion Coeffs

dihedral_coeff	 1 aat   -8.01900  108.52950  123.14510  # c,c,c_1,o_1
dihedral_coeff	 2 aat    0.00000  108.52950  100.31820  # c,c,c_1,o_2
dihedral_coeff	 3 aat   -8.01900  108.52950  123.14510  # c,c1,c_1,o_1
dihedral_coeff	 4 aat    0.00000  108.52950  100.31820  # c,c1,c_1,o_2
dihedral_coeff	 5 aat    0.00000  107.41000  113.28800  # c,c1,o_2,c_1
dihedral_coeff	 6 aat    0.00000  100.31820  113.28800  # c,c_1,o_2,c1
dihedral_coeff	 7 aat    0.00000  100.31820  113.28800  # c1,c_1,o_2,c1
dihedral_coeff	 8 aat    0.00000  100.31820  112.87400  # c1,c_1,o_2,ho2
dihedral_coeff	 9 aat    0.00000  113.28800  120.79700  # c1,o_2,c_1,o_1
dihedral_coeff	10 aat   -5.36240  108.52950  110.77000  # c_1,c,c,hc
dihedral_coeff	11 aat   -5.36240  108.52950  110.77000  # c_1,c1,c,hc
dihedral_coeff	12 aat    0.00000  109.50000  113.28800  # c_1,c1,o_2,c_1
dihedral_coeff	13 aat    0.00000  113.28800  107.68800  # c_1,o_2,c1,hc
dihedral_coeff	14 aat  -12.56400  110.77000  110.77000  # hc,c,c,hc
dihedral_coeff	15 aat  -12.56400  110.77000  110.77000  # hc,c,c1,hc
dihedral_coeff	16 aat    0.00000  110.77000  107.41000  # hc,c,c1,o_2
dihedral_coeff	17 aat  -15.34960  107.73360  123.14510  # hc,c,c_1,o_1
dihedral_coeff	18 aat    0.00000  107.73360  100.31820  # hc,c,c_1,o_2
dihedral_coeff	19 aat  -15.34960  107.73360  123.14510  # hc,c1,c_1,o_1
dihedral_coeff	20 aat    0.00000  107.73360  100.31820  # hc,c1,c_1,o_2
dihedral_coeff	21 aat    0.00000  112.87400  120.79700  # ho2,o_2,c_1,o_1
dihedral_coeff	22 aat    0.00000  123.14510  109.50000  # o_1,c_1,c1,o_2
dihedral_coeff	23 aat    0.00000  109.50000  100.31820  # o_2,c1,c_1,o_2

# BondBond13 Coeffs

dihedral_coeff	 1 bb13    0.00000    1.53000    1.20200  # c,c,c_1,o_1
dihedral_coeff	 2 bb13    0.00000    1.53000    1.36830  # c,c,c_1,o_2
dihedral_coeff	 3 bb13    0.00000    1.53000    1.20200  # c,c1,c_1,o_1
dihedral_coeff	 4 bb13    0.00000    1.53000    1.36830  # c,c1,c_1,o_2
dihedral_coeff	 5 bb13    0.00000    1.53000    1.36830  # c,c1,o_2,c_1
dihedral_coeff	 6 bb13    0.00000    1.52020    1.43000  # c,c_1,o_2,c1
dihedral_coeff	 7 bb13    0.00000    1.52020    1.43000  # c1,c_1,o_2,c1
dihedral_coeff	 8 bb13    0.00000    1.52020    0.95200  # c1,c_1,o_2,ho2
dihedral_coeff	 9 bb13    0.00000    1.43000    1.20200  # c1,o_2,c_1,o_1
dihedral_coeff	10 bb13    0.00000    1.52020    1.10100  # c_1,c,c,hc
dihedral_coeff	11 bb13    0.00000    1.52020    1.10100  # c_1,c1,c,hc
dihedral_coeff	12 bb13    0.00000    1.52020    1.36830  # c_1,c1,o_2,c_1
dihedral_coeff	13 bb13    0.00000    1.36830    1.10100  # c_1,o_2,c1,hc
dihedral_coeff	14 bb13    0.00000    1.10100    1.10100  # hc,c,c,hc
dihedral_coeff	15 bb13    0.00000    1.10100    1.10100  # hc,c,c1,hc
dihedral_coeff	16 bb13    0.00000    1.10100    1.43000  # hc,c,c1,o_2
dihedral_coeff	17 bb13    0.00000    1.10100    1.20200  # hc,c,c_1,o_1
dihedral_coeff	18 bb13    0.00000    1.10100    1.36830  # hc,c,c_1,o_2
dihedral_coeff	19 bb13    0.00000    1.10100    1.20200  # hc,c1,c_1,o_1
dihedral_coeff	20 bb13    0.00000    1.10100    1.36830  # hc,c1,c_1,o_2
dihedral_coeff	21 bb13    0.00000    0.95200    1.20200  # ho2,o_2,c_1,o_1
dihedral_coeff	22 bb13    0.00000    1.20200    1.43000  # o_1,c_1,c1,o_2
dihedral_coeff	23 bb13    0.00000    1.43000    1.36830  # o_2,c1,c_1,o_2

# Improper Coeffs

improper_coeff	 1    0.00000    0.00000  # c,c,hc,c_1
improper_coeff	 2    0.00000    0.00000  # c,c,hc,hc
improper_coeff	 3    0.00000    0.00000  # c,c1,hc,hc
improper_coeff	 4    0.00000    0.00000  # c,c_1,hc,hc
improper_coeff	 5    0.00000    0.00000  # c,hc,hc,hc
improper_coeff	 6    0.00000    0.00000  # c1,c,hc,c_1
improper_coeff	 7    0.00000    0.00000  # c1,c,hc,o_2
improper_coeff	 8    0.00000    0.00000  # c1,c,o_2,c_1
improper_coeff	 9    0.00000    0.00000  # c1,c_1,hc,o_2
improper_coeff	10   46.92640    0.00000  # c_1,c,o_2,o_1
improper_coeff	11   46.92640    0.00000  # c_1,c1,o_2,o_1

# AngleAngle Coeffs

improper_coeff	 1 aa    1.08270   -1.82020    2.04030  110.77000  108.52950  107.73360  # c,c,hc,c_1
improper_coeff	 2 aa    0.27380   -0.48250    0.27380  110.77000  110.77000  107.66000  # c,c,hc,hc
improper_coeff	 3 aa    0.27380   -0.48250    0.27380  110.77000  110.77000  107.66000  # c,c1,hc,hc
improper_coeff	 4 aa   -3.38670   -3.49760   -3.38670  107.73360  107.73360  107.66000  # c,c_1,hc,hc
improper_coeff	 5 aa   -0.31570   -0.31570   -0.31570  107.66000  107.66000  107.66000  # c,hc,hc,hc
improper_coeff	 6 aa    1.08270   -1.82020    2.04030  110.77000  108.52950  107.73360  # c1,c,hc,c_1
improper_coeff	 7 aa    0.00000    0.00000    0.00000  110.77000  107.41000  107.68800  # c1,c,hc,o_2
improper_coeff	 8 aa    0.00000    0.00000    0.00000  107.41000  108.52950  109.50000  # c1,c,o_2,c_1
improper_coeff	 9 aa    0.00000    0.00000    0.00000  107.73360  109.50000  107.68800  # c1,c_1,hc,o_2
improper_coeff	10 aa    0.00000    0.00000    0.00000  100.31820  123.14510  120.79700  # c_1,c,o_2,o_1
improper_coeff	11 aa    0.00000    0.00000    0.00000  100.31820  123.14510  120.79700  # c_1,c1,o_2,o_1


# --- Thermo Output ---
thermo_style custom step time temp press enthalpy etotal ke pe ebond eangle edihed eimp evdwl ecoul elong etail vol lx ly lz density pxx pyy pzz
thermo_modify flush yes
thermo 1000

# --- Trajectory ---
dump dump_npt all custom 1000 npt_prod300.dump id type mol x y z ix iy iz vx vy vz

# --- Restart Checkpointing ---
# No restart checkpointing

# --- Initial Velocities (optional) ---
# Velocities read from data file

# --- SHAKE Constraints ---
# SHAKE disabled

# --- NPT Thermostat + Barostat (Nose-Hoover) ---
# T_damp = 100.0 fs  (heat bath coupling)
# P_damp = 1000.0 fs  (pressure bath coupling, ~10x T_damp typical)
# Ramp: T=300.0->300.0K  P=1.0->1.0atm
timestep 1.0
fix npt_fix all npt temp 300.0 300.0 100.0 iso 1.0 1.0 1000.0

run 2000000

CITE-CITE-CITE-CITE-CITE-CITE-CITE-CITE-CITE-CITE-CITE-CITE-CITE

Your simulation uses code contributions which should be cited:

- GPU package (short-range, long-range and three-body potentials): doi:10.1016/j.cpc.2010.12.021, doi:10.1016/j.cpc.2011.10.012, doi:10.1016/j.cpc.2013.08.002, doi:10.1016/j.commatsci.2014.10.068, doi:10.1016/j.cpc.2016.10.020, doi:10.3233/APC200086

@Article{Brown11,
 author = {W. M. Brown and P. Wang and S. J. Plimpton and A. N. Tharrington},
 title = {Implementing Molecular Dynamics on Hybrid High Performance Computers---Short Range Forces},
 journal = {Comput.\ Phys.\ Commun.},
 year =    2011,
 volume =  182,
 pages =   {898--911},
 doi =     {10.1016/j.cpc.2010.12.021}
}

@Article{Brown12,
 author = {W. M. Brown and A. Kohlmeyer and S. J. Plimpton and A. N. Tharrington},
 title = {Implementing Molecular Dynamics on Hybrid High Performance Computers - Particle-Particle Particle-Mesh},
 journal = {Comput.\ Phys.\ Commun.},
 year =    2012,
 volume =  183,
 doi =     {10.1016/j.cpc.2011.10.012},
 pages =   {449--459}
}

@Article{Brown13,
 author = {W. M. Brown and Y. Masako},
 title = {Implementing Molecular Dynamics on Hybrid High Performance Computers---Three-Body Potentials},
 journal = {Comput.\ Phys.\ Commun.},
 year =    2013,
 volume =  184,
 pages =   {2785--2793},
 doi =     {10.1016/j.cpc.2013.08.002},
}

@Article{Trung15,
 author = {T. D. Nguyen and S. J. Plimpton},
 title = {Accelerating Dissipative Particle Dynamics Simulations for Soft Matter Systems},
 journal = {Comput.\ Mater.\ Sci.},
 year =    2015,
 doi =     {10.1016/j.commatsci.2014.10.068},
 volume =  100,
 pages =   {173--180}
}

@Article{Trung17,
 author = {T. D. Nguyen},
 title = {{GPU}-Accelerated {T}ersoff Potentials for Massively Parallel
    Molecular Dynamics Simulations},
 journal = {Comput.\ Phys.\ Commun.},
 year =    2017,
 doi =     {10.1016/j.cpc.2016.10.020},
 volume =  212,
 pages =   {113--122}
}

@inproceedings{Nikolskiy19,
 author = {V. Nikolskiy and V. Stegailov},
 title = {{GPU} Acceleration of Four-Site Water Models in {LAMMPS}},
 booktitle = {Proceedings of the International Conference on Parallel
    Computing (ParCo 2019), Prague, Czech Republic},
 doi =     {10.3233/APC200086},
 year =    2019
}

CITE-CITE-CITE-CITE-CITE-CITE-CITE-CITE-CITE-CITE-CITE-CITE-CITE

PPPM initialization ...
  using 12-bit tables for long-range coulomb
  G vector (1/distance) = 0.34311664
  grid = 45 45 45
  stencil order = 5
  estimated absolute RMS force accuracy = 0.0002497796
  estimated relative force accuracy = 7.5220385e-07
  using double precision KISS FFT
  3d grid and FFT values/proc = 46800 23805
Generated 21 of 21 mixed pair_coeff terms from sixthpower/sixthpower mixing rule
Neighbor list info ...
  update: every = 1 steps, delay = 0 steps, check = yes
  max neighbors/atom: 4000, page size: 100000
  master list distance cutoff = 11.5
  ghost atom cutoff = 11.5
  binsize = 5.75, bins = 7 7 7
  1 neighbor lists, perpetual/occasional/extra = 1 0 0
  (1) pair lj/class2/coul/long/gpu, perpetual
      attributes: full, newton on
      pair build: full/bin
      stencil: full/bin/3d
      bin: standard
Per MPI rank memory allocation (min/avg/max) = 21.97 | 22.16 | 22.35 Mbytes
   Step          Time           Temp          Press         Enthalpy        TotEng         KinEng         PotEng         E_bond        E_angle        E_dihed        E_impro         E_vdwl         E_coul         E_long         E_tail         Volume           Lx             Ly             Lz          Density          Pxx            Pyy            Pzz      
         0   0              295.183        848.508        16912.045      16308.971      3976.1978      12332.774      2009.5262      3746.4923     -3957.606       156.28554     -2486.7122      44889.57      -32024.782     -388.06712      48734.722      36.526901      36.526901      36.526901      1.228408       1812.4836     -239.07315      972.11359    
      1000   1000           305.96013     -1072.0768      15722.464      16491.118      4121.3688      12369.749      2146.9111      3738.456      -4021.9178      147.29906     -2500.0776      44877.828     -32018.75      -384.69461      49161.966      36.633331      36.633331      36.633331      1.2177325      169.52424     -678.95923     -2706.7954    
      2000   2000           298.62643     -513.44377      15964.02       16331.811      4022.5818      12309.229      2063.6067      3687.7279     -3950.8222      129.0512      -2487.4233      44886.025     -32018.936     -385.04576      49117.132      36.622192      36.622192      36.622192      1.218844       1121.3022     -1525.8409     -1135.7925    
      3000   3000           298.83216     -331.05568      16144.925      16380.925      4025.3531      12355.572      2127.6229      3707.9441     -4003.656       150.87378     -2497.8681      44897.346     -32026.69      -386.90916      48880.578      36.563305      36.563305      36.563305      1.2247425     -206.65476     -493.42645     -293.08584    
      4000   4000           299.5862       471.89538      16745.754      16408.739      4035.5102      12373.229      2094.7386      3762.861      -3984.0358      130.85245     -2466.8585      44867.563     -32031.892     -386.20485      48969.721      36.585518      36.585518      36.585518      1.222513      -767.69852      1028.1354      1155.2493    
      5000   5000           299.6387      -145.27643      16243.997      16347.183      4036.2173      12310.966      2121.4577      3707.683      -3984.9097      147.54348     -2518.3998      44865.749     -32028.158     -388.32322      48702.583      36.51887       36.51887       36.51887       1.2292186     -918.67286      386.8798       95.963761    
      6000   6000           301.19439     -72.145026      16289.22       16340.56       4057.1729      12283.387      2073.1369      3724.4981     -4008.5014      142.25338     -2523.1155      44906.57      -32031.454     -387.58348      48795.535      36.542088      36.542088      36.542088      1.2268771     -491.98112      685.74207     -410.19602    
      7000   7000           299.91963      948.64138      17057.59       16384.633      4040.0016      12344.631      2072.0348      3750.531      -3994.4502      132.48522     -2481.3229      44891.907     -32026.554     -388.80879      48641.759      36.503661      36.503661      36.503661      1.2307557      1548.5078      2513.6108     -1216.1945    
      8000   8000           303.56233     -953.50022      15841.966      16521.404      4089.0698      12432.334      2086.7121      3721.8429     -3941.5988      162.19542     -2477.4422      44904.508     -32023.883     -387.07217      48859.993      36.558171      36.558171      36.558171      1.2252585     -731.53629     -595.79096     -1533.1734    
      9000   9000           302.33888      1385.7463      17319.008      16335.69       4072.5896      12263.1        2069.91        3691.0721     -4045.1678      145.95915     -2446.6174      44871.735     -32023.791     -388.69668      48655.789      36.50717       36.50717       36.50717       1.2304008      3646.9718     -319.28697      829.55411    
     10000   10000          299.15219      61.374036      16367.563      16324.146      4029.6639      12294.482      2110.2755      3676.5871     -3955.8918      145.48986     -2512.5997      44861.961     -32031.34      -389.8986       48505.799      36.469619      36.469619      36.469619      1.2342055      338.86866     -635.32104      480.5745     
     11000   11000          303.06466      367.06218      16607.739      16346.238      4082.366       12263.872      2100.8359      3713.6157     -4001.3711      167.25049     -2544.0988      44850.652     -32023.012     -387.15732      48849.247      36.555491      36.555491      36.555491      1.225528      -427.89155      1343.657       185.42108    
     12000   12000          292.99437     -416.90051      15984.882      16281.389      3946.7163      12334.673      2142.7833      3669.1736     -3981.7903      162.93538     -2501.8104      44869.668     -32026.287     -387.80914      48767.142      36.534999      36.534999      36.534999      1.2275914      267.78083      355.03684     -1873.5192    
     13000   13000          297.20399      104.36283      16300.542      16226.392      4003.4212      12222.971      2027.6446      3666.1723     -4002.5041      159.60745     -2484.3233      44887.542     -32031.168     -388.19895      48718.172      36.522766      36.522766      36.522766      1.2288253      2212.4723     -1232.0259     -667.35794    
     14000   14000          305.69542      975.54367      17126.075      16431.954      4117.803       12314.151      2205.1761      3679.9179     -4031.2136      139.47791     -2520.5094      44867.235     -32025.933     -387.64361      48787.966      36.540199      36.540199      36.540199      1.2270674      1924.6899     -182.16203      1184.1032    
     15000   15000          301.58602     -765.96069      15812.769      16353.788      4062.4484      12291.339      2095.417       3749.6768     -4031.5517      139.31453     -2548.9165      44912.034     -32024.634     -390.49486      48431.735      36.451047      36.451047      36.451047      1.2360929     -954.35509     -255.71429     -1087.8127    
     16000   16000          297.54764      490.12522      16658.037      16308.213      4008.0502      12300.163      2077.341       3652.1247     -3998.9973      139.87203     -2445.0106      44899.253     -32024.42      -386.43771      48940.213      36.578168      36.578168      36.578168      1.2232502      925.33678      1932.9809     -1387.9421    
     17000   17000          302.65862     -948.55999      15753.801      16428.232      4076.8965      12351.336      2059.4968      3792.5438     -3971.6684      146.60354     -2538.7054      44888.535     -32025.47      -387.92548      48752.516      36.531346      36.531346      36.531346      1.2279596     -898.67109      1123.2494     -3070.2583    
     18000   18000          300.1145      -569.81497      15935.731      16342.24       4042.6265      12299.613      2061.2318      3688.8174     -3985.251       143.48133     -2487.8551      44904.01      -32024.821     -386.62084      48917.031      36.572392      36.572392      36.572392      1.2238298     -987.68101      1786.1956     -2507.9595    
     19000   19000          306.19102      2299.7686      18065.62       16435.943      4124.479       12311.464      2011.3756      3698.5642     -3987.3959      150.98199     -2449.6449      44911.397     -32023.814     -389.22776      48589.401      36.490559      36.490559      36.490559      1.2320819      2754.2841      348.39003      3796.6317    
     20000   20000          299.24638      202.51865      16350.491      16206.392      4030.9327      12175.46       2020.3452      3637.1132     -3965.2463      130.98602     -2517.6054      44896.322     -32026.455     -387.63739      48788.749      36.540394      36.540394      36.540394      1.2270477      367.06862      908.57718     -668.08986    
     21000   21000          302.54365     -754.36435      15895.09       16436.993      4075.3479      12361.645      2113.1498      3743.2604     -3966.7011      144.11955     -2536.2914      44887.818     -32023.71      -383.95568      49256.58       36.656817      36.656817      36.656817      1.2153934     -2862.4491      695.74354     -96.387529    
     22000   22000          298.287       -98.818666      16300.955      16371.063      4018.0097      12353.053      2156.0574      3659.0308     -4027.0053      146.70006     -2484.1753      44928.33      -32025.885     -388.76803      48646.859      36.504937      36.504937      36.504937      1.2306267      160.69224     -1919.7248      1462.5765    
     23000   23000          298.66751      366.77459      16605.868      16345.423      4023.1352      12322.288      2088.9355      3690.4435     -4002.6566      140.20182     -2487.0639      44917.264     -32024.837     -388.42335      48690.027      36.515731      36.515731      36.515731      1.2295356     -1423.1551      1169.3455      1354.1334    
     24000   24000          301.01374      678.91864      16946.741      16461.662      4054.7396      12406.922      2157.5725      3698.6054     -3990.2447      160.76546     -2509.8737      44911.198     -32021.101     -386.03485      48991.285      36.590887      36.590887      36.590887      1.2219749      77.256127      1102.6416      856.85814    
     25000   25000          304.88826      958.90528      17139.382      16455.784      4106.9304      12348.853      2062.5467      3757.4254     -3991.0042      133.88759     -2529.3061      44934.462     -32019.158     -386.89751      48882.05       36.563672      36.563672      36.563672      1.2247056     -511.06348      1096.6172      2291.1622    
     26000   26000          300.13357     -121.25638      16214.126      16300.605      4042.8834      12257.722      2101.7225      3706.4866     -4011.27        141.40192     -2530.8926      44874.259     -32023.986     -386.73454      48902.649      36.568807      36.568807      36.568807      1.2241898      984.9969       25.565865     -1374.3319    
     27000   27000          298.78614      525.5391       16693.582      16319.415      4024.7332      12294.682      2028.1873      3756.0377     -3995.3559      147.911       -2516.4723      44902.939     -32028.565     -387.40092      48818.53       36.547828      36.547828      36.547828      1.2262991      685.67976      1569.6095     -678.67195    
     28000   28000          301.80265     -339.72829      16170.262      16412.132      4065.3663      12346.766      2129.7943      3726.271      -4000.1369      152.46795     -2531.3041      44887.167     -32017.493     -387.40906      48817.504      36.547571      36.547571      36.547571      1.2263249     -214.20569      1131.7853     -1936.7645    
     29000   29000          299.51495     -267.18632      16090.061      16280.513      4034.5504      12245.963      2059.0413      3667.1255     -4037.501       174.94588     -2491.5637      44893.023     -32019.108     -386.94499      48876.052      36.562176      36.562176      36.562176      1.2248559     -289.96579     -126.6884      -384.90478    
     30000   30000          299.3822      -378.50985      16065.523      16333.878      4032.7623      12301.116      2132.6701      3672.6591     -4029.2256      151.93773     -2475.791       44876.704     -32027.839     -389.03465      48613.52       36.496596      36.496596      36.496596      1.2314706     -150.87114     -78.063998     -906.59441    
     31000   31000          301.01238     -716.08953      15818.843      16330.016      4054.7212      12275.295      2124.2431      3649.5847     -4001.4564      132.71894     -2496.4428      44893.414     -32026.766     -386.38554      48946.82       36.579814      36.579814      36.579814      1.223085       1627.3533     -1824.262      -1951.36      
     32000   32000          308.88501      1.7406965      16432.305      16431.066      4160.7678      12270.299      2079.1234      3694.8527     -3981.9317      150.60946     -2522.1141      44875.882     -32026.123     -387.59276      48794.367      36.541797      36.541797      36.541797      1.2269064     -492.34802      734.40955     -236.83944    
     33000   33000          300.6783      -342.42061      16111.947      16356.848      4050.2211      12306.627      2085.0282      3689.9279     -3997.6752      140.14301     -2492.4958      44899.533     -32017.834     -385.64767      49040.472      36.603129      36.603129      36.603129      1.2207493     -410.20846      261.31244     -878.36582    
     34000   34000          302.43826      1097.4763      17115.056      16332.681      4073.9282      12258.753      2037.1494      3662.7591     -4005.9798      149.50719     -2483.1081      44923.792     -32025.367     -386.90228      48881.448      36.563522      36.563522      36.563522      1.2247207      1377.7247      577.98922      1336.7152    
     35000   35000          301.24198      747.67888      16936.533      16403.493      4057.8139      12345.679      2132.7083      3721.4322     -3996.9926      137.11958     -2519.6863      44884.218     -32013.12      -386.88013      48884.246      36.56422       36.56422       36.56422       1.2246506     -1138.0359      1704.9867      1676.0859    
     36000   36000          304.69905      12.713889      16421.337      16412.276      4104.3816      12307.894      2112.0933      3714.3325     -4030.5219      142.78016     -2504.8305      44891.378     -32017.337     -387.00767      48868.136      36.560202      36.560202      36.560202      1.2250543      1439.1699     -1529.7204      128.69217    
     37000   37000          296.64452     -309.70507      16095.866      16316.397      3995.885       12320.512      2062.5837      3712.7081     -3997.3868      145.78864     -2522.1638      44939.552     -32020.57      -387.34671      48825.362      36.549532      36.549532      36.549532      1.2261276     -1199.6897      508.46669     -237.89218    
     38000   38000          298.67038     -1429.7784      15363.726      16383.332      4023.1738      12360.158      2146.1385      3780.2248     -4038.361       152.56859     -2509.8245      44850.043     -32020.632     -386.77427      48897.626      36.567555      36.567555      36.567555      1.2243155     -1321.3518     -638.46465     -2329.5188    
     39000   39000          299.20577     -534.87789      15888.287      16267.403      4030.3856      12237.017      2090.3941      3704.0737     -3978.8786      134.16583     -2571.4778      44890.232     -32031.492     -389.13803      48600.604      36.493363      36.493363      36.493363      1.2317979     -198.91358     -1529.994       124.27386    
     40000   40000          303.93392      25.27027       16483.079      16465.189      4094.0752      12371.114      2160.3829      3702.2306     -3989.2059      148.12587     -2506.8413      44884.482     -32028.06      -389.60982      48541.752      36.478627      36.478627      36.478627      1.2332913     -513.19172      92.33584       496.66669    
     41000   41000          299.85044      2272.5146      17916.074      16307.843      4039.0695      12268.774      2120.0812      3686.9974     -4033.2509      142.8367      -2503.1004      44880.867     -32025.658     -389.74412      48525.026      36.474437      36.474437      36.474437      1.2337164      2097.1303      612.6215       4107.7919    
     42000   42000          300.9363      -215.19633      16293.012      16446.396      4053.6964      12392.7        2145.4668      3735.3502     -4016.9361      152.06435     -2486.6987      44882.943     -32019.489     -386.96831      48873.107      36.561442      36.561442      36.561442      1.2249298      1075.9453     -1656.5655     -64.968827    
     43000   43000          297.43805      39.560723      16424.529      16396.519      4006.574       12389.945      2138.7627      3815.5031     -4026.1063      150.6368      -2549.4484      44878.283     -32017.686     -389.55309      48548.821      36.480398      36.480398      36.480398      1.2331118      520.14181      454.00753     -855.46716    
     44000   44000          293.84511     -646.21353      15832.763      16292.284      3958.1762      12334.108      2180.5583      3731.1916     -4044.6864      144.96477     -2560.2404      44908.853     -32026.532     -387.87488      48758.877      36.532935      36.532935      36.532935      1.2277995      566.08401     -1735.0106     -769.714      
     45000   45000          303.9071      -839.74957      15758.604      16356.619      4093.7139      12262.905      2134.3612      3763.3598     -4051.9401      136.08304     -2527.3107      44834         -32025.648     -387.30989      48830.004      36.550691      36.550691      36.550691      1.226011      -1209.1521     -764.87043     -545.22614    
     46000   46000          298.96638     -867.91772      15708.556      16325.874      4027.161       12298.712      2138.9304      3691.5316     -3995.8573      121.48401     -2542.544       44905.244     -32020.076     -387.78495      48770.184      36.535759      36.535759      36.535759      1.2275148     -1198.964       590.41185     -1995.201     
     47000   47000          297.26256     -427.33139      16014.748      16319.286      4004.2101      12315.076      2128.1179      3726.29       -4050.3755      147.45709     -2477.4535      44865.381     -32024.341     -387.03027      48865.283      36.559491      36.559491      36.559491      1.2251259     -997.01415     -1125.7159      840.73592    
     48000   48000          302.18826     -1245.6473      15536.906      16423.094      4070.5607      12352.534      2143.2247      3751.7863     -4008.414       144.70858     -2548.4075      44888.125     -32018.49      -387.69486      48781.517      36.538588      36.538588      36.538588      1.2272296      490.48817     -2472.9982     -1754.4318    
     49000   49000          298.92787     -1103.6886      15524.23       16302.858      4026.6423      12276.216      2121.0292      3689.6637     -3985.2246      152.8091      -2536.8554      44863.438     -32028.644     -390.96469      48373.533      36.43644       36.43644       36.43644       1.2375801     -1060.378      -1408.0911     -842.5968     
     50000   50000          289.67927     -1210.8683      15393.944      16248.136      3902.061       12346.075      2201.2094      3709.2984     -3983.1438      152.32023     -2573.9249      44860.975     -32020.66      -390.98721      48370.747      36.43574       36.43574       36.43574       1.2376514     -1635.6623     -1436.9537     -559.98886    
     51000   51000          301.34619     -1180.5789      15533.978      16374.098      4059.2178      12314.88       2074.4658      3776.0109     -4001.5296      164.38183     -2553.2112      44885.298     -32030.536     -387.59215      48794.444      36.541816      36.541816      36.541816      1.2269045     -676.56744     -1591.0335     -1274.1359    
     52000   52000          297.29222     -104.54522      16254.274      16328.897      4004.6096      12324.288      2063.128       3716.1196     -4039.3412      134.10992     -2429.7602      44904.932     -32024.9       -386.41327      48943.308      36.578939      36.578939      36.578939      1.2231728     -8.8363704     -833.6219       528.82262    
     53000   53000          304.77768     -427.02092      16148.69       16451.965      4105.4408      12346.524      2085.4719      3793.751      -3993.957       134.839       -2504.1611      44857.688     -32027.108     -388.35957      48698.023      36.51773       36.51773       36.51773       1.2293337     -931.92197     -2272.2829      1923.1422    
     54000   54000          296.06326      728.59175      16883.454      16364.081      3988.0553      12376.025      2114.0405      3756.0728     -3984.9306      157.52506     -2518.9594      44877.547     -32025.271     -386.92384      48878.724      36.562843      36.562843      36.562843      1.224789       100.36387      1774.5686      310.84274    
     55000   55000          293.61952      76.017717      16313.145      16259.069      3955.1374      12303.931      2108.5304      3744.8705     -4025.6788      145.88183     -2555.3817      44912.761     -32027.052     -387.72625      48777.567      36.537602      36.537602      36.537602      1.227329      -583.61351      2193.2112     -1381.5445    
     56000   56000          303.76194     -191.33243      16360.968      16497.699      4091.7586      12405.94       2156.1926      3777.2233     -4031.4257      143.3442      -2485.9808      44878.293     -32031.707     -385.96285      49000.424      36.593163      36.593163      36.593163      1.221747      -410.07767     -1466.7251      1302.8055    
     57000   57000          303.74484      1309.3598      17265.608      16342.037      4091.5283      12250.508      2021.7815      3692.4673     -3926.5146      141.73628     -2557.7096      44903.504     -32024.757     -391.02975      48365.484      36.434419      36.434419      36.434419      1.2377861      671.12376      1588.0607      1668.895     
     58000   58000          297.28153      680.47284      16735.322      16253.477      4004.4657      12249.012      2093.5113      3637.7134     -3993.1952      128.47713     -2483.3114      44900.322     -32034.505     -389.51592      48553.454      36.481558      36.481558      36.481558      1.2329941      2689.2375      591.27254     -1239.0915    
     59000   59000          299.6373       472.73453      16765.451      16429.566      4036.1985      12393.367      2065.4181      3792.8996     -3992.8672      150.82987     -2485.4317      44889.344     -32026.825     -388.19245      48718.989      36.52297       36.52297       36.52297       1.2288047      520.14941      480.74317      417.31099    
     60000   60000          297.98802      113.26668      16379.626      16299.04       4013.9822      12285.057      2054.9746      3763.1446     -4021.1326      146.9283      -2546.7977      44908.506     -32020.566     -387.66831      48784.858      36.539423      36.539423      36.539423      1.2271456      982.31088     -934.33572      291.82487    
     61000   61000          301.01387      2289.732       17982.615      16360.158      4054.7413      12305.417      2034.414       3792.3255     -4015.9692      149.75096     -2541.2002      44910.417     -32024.321     -389.25376      48586.155      36.489746      36.489746      36.489746      1.2321642      1651.1005      2184.9665      3033.1291    
     62000   62000          294.88774     -383.03603      15949.808      16222.831      3972.2206      12250.611      2114.9673      3708.2011     -4015.0984      163.4349      -2564.1574      44878.041     -32034.778     -386.95486      48874.805      36.561866      36.561866      36.561866      1.2248872      402.40373     -514.11796     -1037.3939    
     63000   63000          300.37125     -344.21741      16167.577      16413.414      4046.085       12367.329      2174.9553      3687.2624     -4004.9235      157.70371     -2513.4452      44891.735     -32025.959     -386.19513      48970.953      36.585825      36.585825      36.585825      1.2224823     -551.84617      70.095164     -550.90123    
     64000   64000          307.11395      197.37048      16619.194      16479.109      4136.9111      12342.198      2089.7663      3758.5554     -4024.0424      143.94874     -2440.3735      44841.514     -32027.171     -388.60807      48666.883      36.509945      36.509945      36.509945      1.2301203      1207.805      -307.96538     -307.72815    
     65000   65000          297.01981      1039.4222      17116.225      16377.088      4000.9402      12376.148      2101.0786      3780.7405     -4026.8513      142.91231     -2494.7625      44890.588     -32017.557     -387.87182      48759.261      36.533031      36.533031      36.533031      1.2277898      478.84916      1095.5562      1543.8612    
     66000   66000          297.81684      1354.8408      17331.772      16363.836      4011.6764      12352.159      2065.9844      3790.7278     -3974.0655      155.00368     -2536.8994      44876.3       -32024.892     -386.06699      48987.207      36.589872      36.589872      36.589872      1.2220767      677.50556      929.81006      2457.2068    
     67000   67000          302.16503     -1072.5645      15715.236      16483.175      4070.2478      12412.928      2156.0657      3767.45       -4028.9555      158.98275     -2513.3509      44889.3       -32016.565     -385.22787      49093.913      36.61642       36.61642       36.61642       1.2194205     -2450.7117     -6.1163581     -760.86537    
     68000   68000          302.07048      669.98529      16891.75       16412.308      4068.9742      12343.333      2061.4758      3725.8554     -3984.534       156.04116     -2518.4156      44926.158     -32023.247     -385.43392      49067.667      36.609894      36.609894      36.609894      1.2200727      2473.8755     -580.08153      116.16187    
     69000   69000          295.98375     -691.84661      15814.768      16306.771      3986.9842      12319.787      2103.7212      3712.424      -3985.9091      146.3795      -2522.2569      44889.502     -32024.074     -387.8495       48762.067      36.533732      36.533732      36.533732      1.2277191     -852.11667     -2212.334       988.91084    
     70000   70000          304.60563     -976.45798      15833.676      16527.209      4103.1234      12424.086      2180.1661      3787.9185     -3973.1979      138.63996     -2545.1636      44860.926     -32025.204     -388.33612      48700.965      36.518466      36.518466      36.518466      1.2292595      259.67099     -626.81257     -2562.2324    
     71000   71000          297.11606     -11.837534      16344.459      16352.879      4002.2367      12350.642      2131.9789      3739.3753     -4018.9828      156.93981     -2519.3088      44877.057     -32016.418     -387.79243      48769.243      36.535524      36.535524      36.535524      1.2275385     -63.545072     -582.3216       610.35407    
     72000   72000          302.8999       120.95807      16478.368      16391.841      4080.1466      12311.694      2092.0713      3726.3667     -4026.4945      150.90461     -2528.9733      44919.662     -32021.842     -385.56993      49050.359      36.605589      36.605589      36.605589      1.2205032      388.53532     -739.87478      714.21367    
     73000   73000          303.43878      2062.0991      17977.223      16514.173      4087.4055      12426.767      2115.7949      3749.7431     -4017.9709      158.39691     -2476.1383      44921.17      -32024.229     -388.75116      48648.97       36.505465      36.505465      36.505465      1.2305733      2237.2417      2856.1071      1092.9483    
     74000   74000          305.14755     -819.74405      15753.918      16339.811      4110.4231      12229.388      2065.9509      3649.3073     -3992.7081      131.97588     -2495.2287      44893.232     -32023.142     -385.90579      49007.669      36.594966      36.594966      36.594966      1.2215664     -1544.1428     -918.42035      3.3309736    
     75000   75000          301.03954     -2092.4373      14779.966      16275.305      4055.0871      12220.217      2068.8319      3705.776      -4013.7327      151.38253     -2511.0146      44845.013     -32026.039     -385.95275      49001.707      36.593482      36.593482      36.593482      1.221715      -3147.4633     -1955.2493     -1174.5992    
     76000   76000          308.50358      1054.5818      17138.506      16393.298      4155.6298      12237.668      2059.4019      3678.4552     -3999.2891      162.1564      -2508.0322      44875.831     -32030.855     -390.32276      48453.088      36.456403      36.456403      36.456403      1.2355481      1165.9513      1463.6501      534.14407    
     77000   77000          297.83441      309.82614      16522.376      16302.16       4011.9131      12290.246      2076.1646      3733.6403     -4026.8861      130.78243     -2465.4197      44866.227     -32024.262     -388.0516       48736.671      36.527388      36.527388      36.527388      1.2283589      966.59739      201.52461     -238.64356    
     78000   78000          302.71691      313.58471      16581.988      16359.328      4077.6818      12281.646      2085.6971      3775.8372     -4026.1782      143.18449     -2510.1013      44837.875     -32024.668     -388.44943      48686.758      36.514914      36.514914      36.514914      1.2296182     -987.34921      1411.5389      516.56448    
     79000   79000          295.00259     -841.17872      15742.772      16339.849      3973.7676      12366.081      2170.4443      3762.4006     -4003.2709      129.99917     -2501.8221      44836.08      -32027.75      -388.57931      48670.485      36.510846      36.510846      36.510846      1.2300293     -838.85461     -1424.5659     -260.11569    
     80000   80000          294.24136      376.76459      16526.477      16259.996      3963.5137      12296.483      2097.8925      3701.4948     -3954.0639      149.62341     -2551.3875      44878.594     -32025.671     -389.96545      48497.484      36.467535      36.467535      36.467535      1.2344171      669.90773     -67.921887      528.30795    
     81000   81000          304.20932      36.751856      16460.164      16434.079      4097.7849      12336.294      2131.5096      3659.4515     -4009.7897      148.41383     -2489.6072      44916.678     -32020.363     -388.6073       48666.979      36.509969      36.509969      36.509969      1.2301179      152.13679     -35.925267     -5.9559499    
     82000   82000          297.0672       833.95786      16898.67       16305.12       4001.5785      12303.541      2059.3132      3749.7203     -3997.3209      134.67014     -2492.4811      44878.069     -32028.43      -387.53203      48802.014      36.543705      36.543705      36.543705      1.2267142      1047.2013      562.25721      892.41507    
     83000   83000          304.93571      364.70805      16611.83       16352.13       4107.5696      12244.56       2067.8978      3665.7335     -3975.225       133.52973     -2524.6102      44899.838     -32022.603     -387.34173      48825.99       36.549689      36.549689      36.549689      1.2261118     -513.08985      530.67947      1076.5345    
     84000   84000          292.6258      -1482.2378      15186.717      16242.082      3941.7516      12300.331      2119.4507      3717.3473     -3963.2884      146.38359     -2551.5949      44848.382     -32016.349     -387.37905      48821.287      36.548515      36.548515      36.548515      1.2262299     -477.76429     -2662.9973     -1305.9519    
     85000   85000          300.52071     -302.98419      16172.331      16386.054      4048.0983      12337.956      2076.4261      3779.7422     -3992.0003      152.60071     -2541.9972      44892.448     -32029.263     -391.01119      48367.781      36.434996      36.434996      36.434996      1.2377273     -712.67175      1070.2729     -1266.5537    
     86000   86000          300.67946      945.33379      16993.667      16327.057      4050.2367      12276.82       2039.053       3728.3464     -3966.0379      151.10953     -2572.4433      44924.324     -32027.531     -391.14225      48351.574      36.430926      36.430926      36.430926      1.2381422      1869.0284      1501.7901     -534.81708    
     87000   87000          296.65421      1025.2582      17000.689      16273.14       3996.0155      12277.124      2081.6327      3702.3937     -4001.6038      148.14934     -2523.0001      44891.947     -32022.394     -388.68001      48657.875      36.507692      36.507692      36.507692      1.2303481      272.14739      2180.7208      622.90632    
     88000   88000          296.93023     -351.4392       16130.001      16379.551      3999.7335      12379.818      2156.5617      3759.3365     -3985.4195      121.84514     -2528.3033      44878.597     -32022.8       -388.43144      48689.013      36.515478      36.515478      36.515478      1.2295612     -208.00877      422.3195      -1268.6283    
     89000   89000          301.01659     -61.625788      16401.398      16445.19       4054.778       12390.412      2117.4036      3790.4651     -3972.6863      151.99878     -2543.3898      44873.384     -32026.763     -388.13521      48726.173      36.524765      36.524765      36.524765      1.2286235      1477.7597     -1693.8692      31.232133    
     90000   90000          296.6412       672.07626      16797.439      16319.428      3995.8401      12323.588      2113.3287      3723.9424     -4033.2153      140.17667     -2465.3829      44876.186     -32031.448     -387.79477      48768.949      36.535451      36.535451      36.535451      1.2275459      1274.3339     -442.08712      1183.982     
     91000   91000          299.94557     -711.29755      15863.982      16369.878      4040.351       12329.527      2057.555       3803.5423     -3963.7251      140.43675     -2534.2533      44850.76      -32024.788     -387.8031       48767.902      36.535189      36.535189      36.535189      1.2275722     -585.24991     -515.21477     -1033.428     
     92000   92000          298.78324     -797.91681      15851.88       16418.771      4024.6941      12394.077      2097.562       3792.433      -3994.4191      150.09183     -2488.8112      44862.639     -32025.419     -388.22102      48715.404      36.522074      36.522074      36.522074      1.2288951     -767.71425     -1322.4189     -303.61732    
     93000   93000          297.58905      807.81061      16902.735      16326.996      4008.608       12318.388      2074.1703      3658.402      -3959.7423      164.09796     -2515.4925      44915.507     -32018.555     -386.99487      48869.753      36.560606      36.560606      36.560606      1.2250138      790.21763      150.54878      1482.6654    
     94000   94000          302.74061     -797.44452      15860.088      16429.051      4078.001       12351.05       2113.8752      3767.358      -4023.2435      150.71315     -2544.7124      44909.579     -32022.519     -386.57853      48922.384      36.573726      36.573726      36.573726      1.2236959     -2056.7607     -339.15143      3.5785706    
     95000   95000          295.3584      -538.8012       15920.754      16305.09       3978.5605      12326.529      2180.8456      3757.6233     -4047.3793      151.56366     -2555.5612      44862.522     -32023.085     -386.66888      48910.953      36.570877      36.570877      36.570877      1.2239819     -589.04498     -938.4727      -88.885903    
     96000   96000          301.48247      767.96827      16898.432      16352.395      4061.0535      12291.342      2133.5498      3684.4354     -4030.5805      152.00784     -2506.534       44878.924     -32020.46      -387.92069      48753.119      36.531497      36.531497      36.531497      1.2279445      2021.2539      214.19564      68.455288    
     97000   97000          297.34643     -164.04474      16117.514      16234.252      4005.3398      12228.912      2112.461       3622.741      -4023.3068      137.59032     -2474.5358      44878.042     -32024.08      -387.58759      48795.018      36.541959      36.541959      36.541959      1.22689        468.15742     -1275.9118      315.62015    
     98000   98000          301.23386     -1363.0856      15472.113      16442.808      4057.7046      12385.103      2126.8089      3807.8284     -3988.4252      130.74913     -2550.6731      44878.412     -32019.596     -387.31244      48829.682      36.55061       36.55061       36.55061       1.2260191     -1184.7145      161.61395     -3066.1562    
     99000   99000          297.02593      340.57477      16591.011      16347.389      4001.0226      12346.366      2083.9873      3710.1951     -3964.8099      138.32298     -2540.5335      44940.79      -32021.586     -385.5814       49048.9        36.605226      36.605226      36.605226      1.2205396      465.76255     -337.02275      892.98452    
    100000   100000         305.96643     -1137.1006      15665.917      16474.363      4121.4536      12352.91       2169.8578      3728.2398     -4019.941       138.18996     -2550.2918      44905.592     -32018.738     -387.94415      48750.171      36.530761      36.530761      36.530761      1.2280187     -1626.9578     -1387.2835     -397.0606     
    101000   101000         292.34863      1147.9128      17052.532      16233.7        3938.0181      12295.682      2064.8575      3698.2065     -4007.1747      145.34378     -2465.9542      44881.658     -32021.255     -386.66533      48911.402      36.570989      36.570989      36.570989      1.2239707      1685.7315      621.1931       1136.8138    
    102000   102000         305.04206     -943.24082      15741.954      16411.957      4109.0022      12302.955      2071.3489      3778.0707     -4019.9552      135.23692     -2537.1605      44895.123     -32019.708     -388.29969      48705.533      36.519607      36.519607      36.519607      1.2291442     -1839.2119     -1274.458       283.94745    
    103000   103000         293.0615       780.71455      16823.601      16269.406      3947.6207      12321.785      2094.436       3695.4977     -4016.9088      141.003       -2530.2716      44957.332     -32019.303     -388.55344      48673.725      36.511656      36.511656      36.511656      1.2299474      1808.6203      486.95076      46.572586    
    104000   104000         302.77121      735.77227      16948.07       16423.709      4078.4131      12345.296      2142.8114      3672.6484     -4045.5826      154.16111     -2469.8532      44914.113     -32023.002     -387.02115      48866.434      36.559778      36.559778      36.559778      1.225097       968.78927      306.77365      931.75389    
    105000   105000         295.18403     -995.72632      15637.738      16350.012      3976.2118      12373.8        2115.7181      3731.842      -4015.1385      141.51561     -2471.8038      44887.791     -32016.125     -385.57977      49049.108      36.605278      36.605278      36.605278      1.2205344     -2409.1512     -60.290658     -517.7371     
    106000   106000         294.71087     -652.59175      15891.213      16355.925      3969.8381      12386.087      2161.1309      3726.4844     -3983.6322      170.88617     -2548.4052      44885.004     -32025.381     -387.32817      48827.699      36.550115      36.550115      36.550115      1.2260689     -541.71313     -883.62963     -532.4325     
    107000   107000         302.59606      298.97868      16609.725      16397.194      4076.0539      12321.14       2090.5042      3694.5923     -3986.5907      125.63028     -2457.5245      44879.277     -32024.749     -388.00744      48742.218      36.528774      36.528774      36.528774      1.2282191      535.85364     -156.06506      517.14747    
    108000   108000         299.30071     -622.85843      16009.842      16453.131      4031.6646      12421.466      2074.0169      3817.7624     -3982.0444      168.7837      -2513.3703      44880.67      -32024.352     -387.54615      48800.236      36.543262      36.543262      36.543262      1.2267589     -317.55045     -1599.8083      48.783455    
    109000   109000         298.8541       484.76179      16657.261      16313.28       4025.6486      12287.631      2052.6827      3708.1488     -3971.7935      153.02227     -2517.6939      44894.39      -32031.125     -388.70096      48655.253      36.507036      36.507036      36.507036      1.2304144      2591.748      -644.25399     -493.20863    
    110000   110000         296.31927     -188.2461       16165.872      16300.275      3991.5037      12308.771      2132.5027      3746.3916     -4043.7703      146.66063     -2528.3587      44876.844     -32021.499     -386.314        48955.884      36.582072      36.582072      36.582072      1.2228586     -1281.0922     -645.43865      1361.7926    
    111000   111000         302.43358      55.965886      16350.246      16310.507      4073.8652      12236.642      2048.9696      3660.1045     -3979.1584      157.24496     -2523.9168      44901.19      -32027.791     -388.4473       48687.025      36.514981      36.514981      36.514981      1.2296114      275.44953      994.76975     -1102.3216    
    112000   112000         296.72522     -2841.3029      14268.361      16305.077      3996.972       12308.105      2119.2676      3773.9814     -4021.7809      151.17045     -2571.6761      44878.964     -32021.821     -384.77615      49151.548      36.630743      36.630743      36.630743      1.2179906     -3437.1426     -2480.987      -2605.7792    
    113000   113000         301.73158     -169.14328      16309.138      16430.751      4064.409       12366.342      2085.7264      3698.3289     -3957.5253      156.49969     -2491.3164      44900.095     -32025.466     -383.61524      49300.293      36.667658      36.667658      36.667658      1.2143158      2164.8996     -329.58051     -2342.7489    
    114000   114000         300.52729      992.63938      17174.773      16469.276      4048.187       12421.089      2133.0983      3768.0881     -4002.0374      157.85334     -2511.0907      44894.339     -32019.162     -388.07668      48733.522      36.526601      36.526601      36.526601      1.2284383      1908.569      -196.67837      1266.0275    
    115000   115000         293.78501     -213.27654      16096.55       16246.313      3957.3665      12288.946      2135.6349      3658.5507     -4016.3459      160.8755      -2535.2941      44904.467     -32018.942     -392.78941      48148.812      36.37993       36.37993       36.37993       1.2433562      359.64019     -1459.9824      460.51255    
    116000   116000         299.15453      869.90082      16955.757      16343.168      4029.6955      12313.472      2081.6261      3757.0455     -4012.1349      134.85962     -2476.9892      44860.772     -32031.707     -391.67095      48286.307      36.414526      36.414526      36.414526      1.2398157      1036.8376      208.1036       1364.7612    
    117000   117000         301.91452     -687.91956      15820.293      16308.462      4066.8733      12241.588      2070.462       3655.7313     -4007.8903      143.69715     -2470.6849      44877.302     -32027.029     -388.67678      48658.279      36.507793      36.507793      36.507793      1.2303378     -1509.6512     -95.260422     -458.84708    
    118000   118000         298.23302      584.8445       16805.107      16389.338      4017.2825      12372.056      2114.0844      3704.1448     -3978.5616      147.79883     -2492.1699      44906.278     -32029.519     -387.98069      48745.579      36.529613      36.529613      36.529613      1.2281344     -55.206192      1461.5845      348.15521    
    119000   119000         301.38893     -744.0961       15825.125      16354.695      4059.7935      12294.901      2026.3749      3729.0814     -3951.0868      148.39369     -2508.6513      44875.022     -32024.233     -387.5491       48799.865      36.543169      36.543169      36.543169      1.2267682     -437.96666     -1704.9098     -89.411825    
    120000   120000         293.01162     -1.7901132      16220.858      16222.132      3946.9488      12275.183      2066.1509      3684.0242     -3972.3469      136.00462     -2507.8067      44888.21      -32019.052     -387.51575      48804.065      36.544217      36.544217      36.544217      1.2266626      281.56177      40.339923     -327.27204    
    121000   121000         307.34311      1373.1117      17375.687      16405.067      4139.998       12265.069      2049.7459      3694.2962     -3966.6531      134.5929      -2540.3494      44917.086     -32023.65      -390.19134      48469.409      36.460496      36.460496      36.460496      1.2351321      2770.3368      1516.6558     -167.65751    
    122000   122000         299.40903      2025.6577      17868.576      16438.24       4033.1236      12405.117      2154.3495      3670.9953     -3992.0932      143.69113     -2435.19        44893.949     -32030.585     -390.61527      48416.805      36.447301      36.447301      36.447301      1.236474       2004.1377      2798.1902      1274.6452    
    123000   123000         299.5823       522.55413      16724.417      16353.173      4035.4577      12317.715      2105.7291      3739.2274     -4017.7248      153.40976     -2544.8658      44895.733     -32013.794     -388.23348      48713.84       36.521683      36.521683      36.521683      1.2289346     -230.05496      1562.5035      235.21384    
    124000   124000         296.87381     -525.00124      15945.158      16319.442      3998.9735      12320.468      2180.4008      3753.0365     -4065.0294      139.20451     -2528.5361      44858.466     -32017.074     -386.88386      48883.774      36.564102      36.564102      36.564102      1.2246624     -132.24382      714.30973     -2157.0696    
    125000   125000         304.6586       313.69345      16596.924      16373.259      4103.8369      12269.423      2140.8801      3627.9639     -3987.9097      139.54545     -2519.574       44890.383     -32021.866     -386.83771      48889.607      36.565556      36.565556      36.565556      1.2245163      121.81459      1232.9793     -413.71349    
    126000   126000         302.52004      2942.1868      18457.348      16374.548      4075.0299      12299.519      2063.6668      3661.1391     -3969.7367      138.59188     -2472.847       44899.112     -32020.407     -389.62249      48540.174      36.478232      36.478232      36.478232      1.2333314      3574.579       2067.2485      3184.7329    
    127000   127000         308.34311     -627.68659      16134.788      16583.817      4153.4682      12430.349      2127.2317      3759.7073     -3970.6702      149.78636     -2512.1945      44893.144     -32016.656     -385.55816      49051.857      36.605961      36.605961      36.605961      1.220466      -371.7532      -537.45051     -973.85606    
    128000   128000         301.54329     -2732.7437      14396.267      16336.179      4061.8728      12274.306      2098.165       3680.4138     -3986.406       120.11457     -2501.0151      44885.196     -32022.162     -388.54208      48675.149      36.512012      36.512012      36.512012      1.2299114     -4354.5746     -1920.7955     -1922.861     
    129000   129000         303.70872      1873.8379      17765.745      16433.686      4091.0417      12342.645      2078.5636      3701.1947     -3986.3075      156.28974     -2496.6206      44909.585     -32020.061     -387.99829      48743.368      36.529061      36.529061      36.529061      1.2281901      3299.6359      1001.1741      1320.7037    
    130000   130000         300.99315     -509.71518      16041.108      16404.527      4054.4622      12350.065      2063.9982      3745.6176     -3960.4139      137.45244     -2537.4532      44916.303     -32015.439     -386.84838      48888.258      36.56522       36.56522       36.56522       1.2245501     -980.70048      257.74946     -806.19453    
    131000   131000         298.40201     -107.94718      16289.231      16366.755      4019.5588      12347.196      2132.1344      3750.8724     -4040.6506      149.30055     -2471.5791      44857.365     -32030.247     -384.05671      49243.622      36.653602      36.653602      36.653602      1.2157132      406.95202     -794.10658      63.313012    
    132000   132000         304.0527      -221.18583      16361.07       16518.38       4095.6752      12422.705      2132.1256      3783.7044     -4000.164       146.23105     -2524.3393      44910.9       -32025.753     -387.81153      48766.841      36.534924      36.534924      36.534924      1.2275989     -1397.8673      807.51361     -73.203817    
    133000   133000         300.22621     -224.92404      16240.019      16401.857      4044.1313      12357.726      2087.0515      3721.3982     -3973.7897      133.39779     -2495.8285      44904.57      -32019.073     -383.33356      49336.519      36.676637      36.676637      36.676637      1.2134241      231.08373     -344.69714     -561.1587     
    134000   134000         296.8421      -1165.8377      15558.225      16396.515      3998.5463      12397.969      2092.1523      3750.845      -3971.4128      140.92156     -2505.5035      44915.997     -32025.031     -383.58802      49303.79       36.668525      36.668525      36.668525      1.2142296     -484.96118     -1626.9952     -1385.5568    
    135000   135000         300.19928     -473.15266      16115.15       16452.048      4043.7686      12408.28       2150.69        3645.5685     -3940.0671      157.45705     -2417.7981      44834.243     -32021.814     -387.3683       48822.641      36.548853      36.548853      36.548853      1.2261959      80.722512     -1659.4674      159.2869     
    136000   136000         296.84201     -866.37264      15841.806      16466.433      3998.5452      12467.887      2147.3817      3786.048      -4009.4239      153.60828     -2480.4978      44894.789     -32024.017     -382.56524      49435.604      36.701173      36.701173      36.701173      1.210992      -1362.133      -629.01685     -607.96811    
    137000   137000         299.35078      1323.3654      17319.172      16371.743      4032.339       12339.404      2110.639       3728.0318     -3969.4749      134.977       -2501.8884      44861.764     -32024.644     -385.26046      49089.76       36.615388      36.615388      36.615388      1.2195236      1532.1342      1966.6159      471.34605    
    138000   138000         296.7423      -549.99546      15880.346      16272.512      3997.202       12275.31       2084.3677      3742.5823     -3987.0201      154.35394     -2545.3564      44849.337     -32022.954     -386.82116      48891.698      36.566077      36.566077      36.566077      1.224464       197.24114     -1643.3318     -203.89573    
    139000   139000         302.65835      580.5786       16847.277      16434.512      4076.8928      12357.619      2054.4638      3780.3918     -4033.8055      143.01735     -2445.0565      44879.981     -32021.373     -387.95287      48749.075      36.530487      36.530487      36.530487      1.2280463     -370.0224       1126.006       985.75216    
    140000   140000         292.60808     -157.61122      16210.387      16323.562      3941.513       12382.049      2085.7892      3733.6871     -4006.0148      156.69762     -2441.4103      44878.877     -32025.578     -384.1143       49236.239      36.65177       36.65177       36.65177       1.2158955      588.57112     -1135.0355      73.630675    
    141000   141000         294.69607     -1001.132       15692.593      16409.793      3969.6387      12440.154      2234.5493      3749.5905     -4037.3334      141.29223     -2514.6618      44883.601     -32016.884     -385.01044      49121.638      36.623312      36.623312      36.623312      1.2187322     -935.93494     -1644.0348     -423.42633    
[...]
   1958000   1958000        305.2226       59.275841      16460.423      16418.395      4111.434       12306.961      2131.5474      3736.2616     -4005.3425      146.98573     -2537.1062      44862.628     -32028.013     -389.00638      48617.052      36.49748       36.49748       36.49748       1.2313812     -466.853       -530.52213      1175.2026    
   1959000   1959000        299.58353     -554.37292      15829.399      16219.878      4035.4742      12184.404      2047.9618      3704.4798     -3974.8409      145.03666     -2587.4487      44863.598     -32014.383     -391.58481      48296.928      36.417196      36.417196      36.417196      1.2395431      681.20195     -1532.9674     -811.35334    
   1960000   1960000        295.95         253.49612      16544.508      16364.049      3986.5295      12377.519      2068.2822      3771.2126     -3982.6332      160.48409     -2495.4854      44871.832     -32016.173     -387.44797      48812.602      36.546348      36.546348      36.546348      1.2264481      8.2722213      1119.3999     -367.1837     
   1961000   1961000        309.24933     -3.4878708      16474.416      16476.892      4165.6753      12311.216      2098.7762      3717.5525     -3971.3538      152.32277     -2540.9995      44873.448     -32018.53      -388.51143      48678.988      36.512972      36.512972      36.512972      1.2298144     -3515.5601      2884.793       620.30354    
   1962000   1962000        305.97626     -319.84122      16174.751      16402.7        4121.586       12281.114      2157.6468      3692.5416     -3996.6906      131.36443     -2506.5711      44825.298     -32022.476     -387.00722      48868.193      36.560217      36.560217      36.560217      1.2250529     -1266.9356      819.97174     -512.55984    
   1963000   1963000        299.05814      237.1911       16428.277      16260.542      4028.3971      12232.145      2076.1424      3699.2021     -4000.9605      134.49414     -2552.7753      44897.663     -32021.621     -390.02951      48489.52       36.465538      36.465538      36.465538      1.2346198      2135.2248     -110.99362     -1312.6579    
   1964000   1964000        301.97815      1347.6383      17298.055      16347.788      4067.7305      12280.058      2113.8628      3707.5986     -3981.5506      140.74799     -2543.6808      44863.529     -32020.449     -391.15511      48349.985      36.430526      36.430526      36.430526      1.2381829      2158.2437      735.52165      1149.1496    
   1965000   1965000        306.49343     -271.46483      16308.534      16500.956      4128.5524      12372.403      2136.092       3696.7775     -3963.3425      141.36333     -2495.1978      44874.56      -32017.849     -389.11751      48603.168      36.494005      36.494005      36.494005      1.2317329      33.276162      221.57103     -1069.2417    
   1966000   1966000        299.98104      324.25679      16561.303      16330.447      4040.8288      12289.618      2056.6505      3744.3871     -4020.9809      130.04804     -2499.6926      44903.448     -32024.241     -387.40943      48817.458      36.54756       36.54756       36.54756       1.2263261      215.64496      936.08461     -178.95918    
   1967000   1967000        300.79749      1650.5991      17646.488      16476.608      4051.8266      12424.782      2062.5004      3759.2812     -3972.2678      153.49775     -2440.2225      44890.01      -32028.018     -389.15405      48598.604      36.492862      36.492862      36.492862      1.2318486      1564.8617      2671.2011      715.73463    
   1968000   1968000        298.17372      1.0178615      16338.622      16337.902      4016.4837      12321.419      2116.9485      3771.9135     -4040.8475      137.6411      -2518.1083      44881.534     -32027.662     -390.30856      48454.851      36.456846      36.456846      36.456846      1.2355032      1140.3311     -980.32091     -156.95662    
   1969000   1969000        305.14415      412.24357      16787.779      16495.637      4110.3774      12385.259      2173.9097      3718.2204     -4008.0516      143.69848     -2506.5335      44886.759     -32022.743     -389.2071       48591.98       36.491204      36.491204      36.491204      1.2320165     -312.68111     -415.64542      1965.0572    
   1970000   1970000        305.86608      1187.2992      17199.037      16357.456      4120.1019      12237.354      2092.1379      3707.6146     -4005.1802      135.53462     -2518.1069      44848.374     -32023.02      -389.1218       48602.632      36.493871      36.493871      36.493871      1.2317465      1.7355299      2130.9489      1429.2133    
   1971000   1971000        296.72184     -786.88319      15748.675      16306.926      3996.9264      12309.999      2118.7993      3658.2842     -4004.1033      147.80255     -2503.9445      44911.565     -32018.404     -388.77871      48645.522      36.504602      36.504602      36.504602      1.2306605     -1361.4647     -2429.9773      1430.7924    
   1972000   1972000        306.39773     -291.63247      16197.679      16404.239      4127.2634      12276.975      2064.1966      3771.2658     -3989.7734      130.74589     -2541.8837      44868.71      -32026.286     -389.41325      48566.256      36.484764      36.484764      36.484764      1.2326691      406.03918     -1674.6165      393.67992    
   1973000   1973000        296.63952      8.9841501      16346.438      16340.074      3995.8176      12344.256      2156.4155      3721.2291     -4005.8056      152.48047     -2520.7058      44864.397     -32023.755     -389.38811      48569.392      36.485549      36.485549      36.485549      1.2325895      1057.2093     -472.17605     -558.0808     
   1974000   1974000        297.14598     -867.7821       15671.614      16285.552      4002.6397      12282.913      2123.6586      3731.5736     -3973.3076      129.95455     -2562.3628      44857.56      -32024.164     -389.85875      48510.758      36.470861      36.470861      36.470861      1.2340793     -1623.8862     -556.28847     -423.17165    
   1975000   1975000        294.32118     -91.08157       16234.275      16298.949      3964.5889      12334.36       2085.8953      3765.0368     -4040.972       149.3814      -2515.1503      44910.863     -32020.694     -388.43865      48688.11       36.515252      36.515252      36.515252      1.229584      -1025.3447      90.932272      661.16771    
   1976000   1976000        300.81053      1232.6079      17295.225      16420.032      4052.0022      12368.03       2116.8035      3706.2966     -3978.3919      141.6447      -2485.7075      44889.678     -32022.294     -388.45644      48685.88       36.514695      36.514695      36.514695      1.2296403      1355.5607      2248.8488      93.414243    
   1977000   1977000        292.91393      20.631907      16191.001      16176.25       3945.6328      12230.617      2082.7422      3687.677      -4000.1162      138.96637     -2545.6283      44889.886     -32022.91      -385.79705      49021.482      36.598404      36.598404      36.598404      1.2212222      824.65313     -512.09938     -250.65803    
   1978000   1978000        303.1916      -1119.1261      15594.46       16388.24       4084.0759      12304.164      2136.7447      3733.9        -3991.0138      155.82707     -2558.4443      44853.071     -32025.921     -388.86583      48634.624      36.501876      36.501876      36.501876      1.2309363     -1886.7323     -849.12498     -621.52113    
   1979000   1979000        296.82772     -285.24225      16075.299      16275.901      3998.3527      12277.548      2145.6041      3645.3296     -4022.4989      157.94837     -2522.4463      44895.22      -32021.609     -392.1935       48221.971      36.398346      36.398346      36.398346      1.2414698      1633.3108     -489.40562     -1999.6319    
   1980000   1980000        299.30298     -617.49866      15903.34       16339.804      4031.6952      12308.109      2080.6921      3782.9447     -4006.204       141.40334     -2568.4197      44901.176     -32023.483     -390.21929      48465.936      36.459625      36.459625      36.459625      1.2352206     -136.59452      123.04708     -1838.9485    
   1981000   1981000        291.93585     -1601.4332      15143.753      16274.684      3932.4578      12342.226      2070.4874      3760.8488     -3941.3683      149.75106     -2564.9836      44889.884     -32022.393     -390.56556      48422.968      36.448848      36.448848      36.448848      1.2363167     -39.296588     -1125.4396     -3639.5633    
   1982000   1982000        294.29465     -64.874469      16199.167      16245.147      3964.2315      12280.916      2095.6227      3711.6743     -4010.5383      139.57424     -2495.2894      44869.667     -32029.795     -389.15362      48598.657      36.492876      36.492876      36.492876      1.2318473      219.68281     -728.97549      314.66928    
   1983000   1983000        298.88101      165.79803      16437.48       16320.609      4026.0111      12294.597      2061.0654      3733.5119     -4011.5931      153.22357     -2542.36        44927.297     -32026.547     -391.28531      48333.896      36.426485      36.426485      36.426485      1.238595       172.45366     -747.40253      1072.343     
   1984000   1984000        291.32013     -2746.4072      14347.75       16289.018      3924.1639      12364.854      2148.199       3792.8323     -4000.418       150.04058     -2551.9489      44854.579     -32028.43      -390.21206      48466.835      36.459851      36.459851      36.459851      1.2351977     -2697.9477     -2384.1975     -3157.0766    
   1985000   1985000        303.13339     -792.46403      15853.213      16416.481      4083.2918      12333.189      2115.83        3752.7091     -4011.4186      138.69946     -2509.8831      44870.072     -32022.82      -388.0485       48737.062      36.527486      36.527486      36.527486      1.228349       522.57529     -1232.2937     -1667.6736    
   1986000   1986000        299.55048      1316.5971      17216.207      16284.984      4035.029       12249.955      2062.3142      3731.5052     -4044.028       157.13699     -2507.6572      44875.102     -32024.419     -389.9603       48498.126      36.467695      36.467695      36.467695      1.2344007      1312.2486      753.76546      1883.7771    
   1987000   1987000        294.05366     -173.95489      16175.297      16298.135      3960.9854      12337.15       2145.1006      3745.5055     -4010.6243      142.49603     -2539.0791      44879.696     -32025.945     -390.59419      48419.418      36.447957      36.447957      36.447957      1.2364073     -865.24991      27.801527      315.58371    
   1988000   1988000        294.02921     -329.78678      16084.533      16318.706      3960.6559      12358.05       2168.5461      3714.9001     -3988.513       152.25053     -2528.3991      44863.842     -32024.576     -388.43448      48688.632      36.515383      36.515383      36.515383      1.2295708     -3403.7198      2475.715      -61.35552     
   1989000   1989000        301.87411     -59.144716      16322.467      16364.139      4066.329       12297.81       2159.3588      3721.8594     -4013.1403      145.24698     -2588.6518      44901.578     -32028.441     -391.45849      48312.513      36.421113      36.421113      36.421113      1.2391432      34.848851     -806.85373      594.57073    
   1990000   1990000        304.3452      -40.796333      16510.626      16539.637      4099.6153      12440.021      2132.7764      3752.396      -3986.0372      171.24753     -2488.7391      44885.855     -32027.478     -387.86816      48759.721      36.533146      36.533146      36.533146      1.2277782      19.475523     -76.666679     -65.197844    
   1991000   1991000        295.65019     -1215.8953      15404.652      16268.977      3982.491       12286.486      2092.9273      3766.7383     -3995.4286      151.47402     -2554.483       44848.152     -32022.894     -388.00792      48742.159      36.528759      36.528759      36.528759      1.2282206     -828.33433     -2986.7146      167.36302    
   1992000   1992000        301.61494      925.81193      17034.245      16378.81       4062.8378      12315.972      2123.2022      3661.3298     -3973.9837      136.83716     -2463.4233      44862.296     -32030.287     -389.59577      48543.503      36.479065      36.479065      36.479065      1.2332469      947.34927      611.05135      1219.0352    
   1993000   1993000        304.52077      1375.3913      17375.27       16400.528      4101.9802      12298.548      2118.7534      3699.3592     -4009.1471      150.12881     -2514.4238      44873.822     -32019.944     -389.18656      48594.543      36.491846      36.491846      36.491846      1.2319515      1859.9649      811.70428      1454.5046    
   1994000   1994000        289.00101     -1762.9414      14945.648      16196.616      3892.9247      12303.691      2064.8442      3711.4587     -3976.3286      153.13431     -2508.4226      44877.768     -32018.763     -388.69859      48655.549      36.50711       36.50711       36.50711       1.2304069      406.7598      -1585.3682     -4110.2159    
   1995000   1995000        296.97586      1853.3268      17703.723      16395.033      4000.3481      12394.685      2139.9237      3790.5588     -4009.0203      140.04205     -2516.1089      44867.504     -32018.214     -390.60395      48418.208      36.447653      36.447653      36.447653      1.2364382      2215.1412      1475.8698      1868.9693    
   1996000   1996000        303.22713     -243.86412      16260.749      16432.642      4084.5546      12348.087      2101.0191      3767.2094     -3950.948       152.45635     -2572.855       44877.885     -32026.68      -391.30097      48331.961      36.425999      36.425999      36.425999      1.2386446     -1417.7377      283.88238      402.26295    
   1997000   1997000        306.30258      988.0695       17144.098      16447.256      4125.9817      12321.275      2115.2135      3723.159      -4018.0133      160.98962     -2549.0099      44914.435     -32025.5       -391.08805      48358.275      36.432608      36.432608      36.432608      1.2379706      585.27591      1099.5083      1279.4242    
   1998000   1998000        300.95419     -1655.2002      15212.268      16386.318      4053.9374      12332.381      2112.9063      3755.0135     -3998.2785      170.08358     -2561.6741      44874.24      -32019.91      -388.85265      48636.272      36.502289      36.502289      36.502289      1.2308945     -2592.7082     -2053.6429     -319.24937    
   1999000   1999000        301.13807     -175.7418       16142.785      16267.232      4056.4143      12210.818      2105.1073      3676.348      -4011.9919      150.45295     -2531.0131      44852.257     -32030.342     -389.50332      48555.025      36.481951      36.481951      36.481951      1.2329542      1336.0619     -603.16521     -1260.1221    
   2000000   2000000        294.97618      455.45696      16678.523      16356.548      3973.412       12383.136      2125.9273      3713.6638     -3993.9253      139.98546     -2478.0239      44894.778     -32019.269     -390.16362      48472.852      36.46136       36.46136       36.46136       1.2350444     -1408.0516      1476.3563      1298.0661    
Loop time of 35216.1 on 4 procs for 2000000 steps with 4520 atoms

Performance: 4.907 ns/day, 4.891 hours/ns, 56.792 timesteps/s, 256.701 katom-step/s
94.6% CPU use with 4 MPI tasks x 1 OpenMP threads

MPI task timing breakdown:
Section |  min time  |  avg time  |  max time  |%varavg| %total
---------------------------------------------------------------
Pair    | 2140.4     | 2275.1     | 2427.8     | 274.8 |  6.46
Bond    | 3682.2     | 3887.5     | 4154.6     | 334.1 | 11.04
Kspace  | 17519      | 17788      | 18000      | 159.2 | 50.51
Neigh   | 1574.8     | 1660.4     | 1767.6     | 202.9 |  4.72
Comm    | 517.93     | 523.62     | 528.39     |  17.3 |  1.49
Output  | 9.1056     | 9.3586     | 9.5792     |   5.8 |  0.03
Modify  | 7282.7     | 7612.6     | 8316.9     | 471.9 | 21.62
Other   |            | 1460       |            |       |  4.14

Nlocal:           1130 ave        1157 max        1097 min
Histogram: 1 0 1 0 0 0 0 0 0 2
Nghost:           8291 ave        8325 max        8248 min
Histogram: 1 0 0 0 1 0 0 0 1 1
Neighs:              0 ave           0 max           0 min
Histogram: 4 0 0 0 0 0 0 0 0 0
FullNghs:       670405 ave      691201 max      645567 min
Histogram: 1 0 0 1 0 0 0 0 1 1

Total # of neighbors = 2681620
Ave neighs/atom = 593.27876
Ave special neighs/atom = 5.5353982
Neighbor list builds = 68053
Dangerous builds = 0

# --- Cleanup ---
unfix npt_fix

undump dump_npt

# --- Write Output ---
write_dump all custom npt_prod300_last.dump id type mol x y z xu yu zu vx vy vz modify sort id
write_data /home/arz2/PolyJarvis/data/PLA1/lammps/equil/npt_prod300/npt_prod300_out.data
System init for write_data ...
PPPM initialization ...
  using 12-bit tables for long-range coulomb
  G vector (1/distance) = 0.33469742
  grid = 40 40 40
  stencil order = 5
  estimated absolute RMS force accuracy = 0.00041952969
  estimated relative force accuracy = 1.2634012e-06
  using double precision KISS FFT
  3d grid and FFT values/proc = 34263 16000
Generated 21 of 21 mixed pair_coeff terms from sixthpower/sixthpower mixing rule

print "STAGE COMPLETE: NPT T=300.0->300.0K P=1.0->1.0atm steps=2000000"
STAGE COMPLETE: NPT T=300.0->300.0K P=1.0->1.0atm steps=2000000
quit
-------------------------------------------------------------
CPU Poisson:     17605.5606 s.
CPU Data Cast:   12.4382 s.
CPU Idle Time:   19.1878 s.
Max Mem / Proc:  12.12 MB.
---------------------------------------------------------------------


--------------------------------------------------------------------------
- Using acceleration for pppm:
-  with 4 proc(s) per device.
-  with 1 thread(s) per proc.
-  Horizontal vector operations: ENABLED
-  Shared memory system: No
--------------------------------------------------------------------------
Device 0: Quadro RTX 6000, 72 CUs, 23/24 GB, 1.8 GHZ (Mixed Precision)
--------------------------------------------------------------------------

Initializing Device and compiling on process 0...Done.
Initializing Device 0 on core 0...Done.
Initializing Device 0 on core 1...Done.
Initializing Device 0 on core 2...Done.
Initializing Device 0 on core 3...Done.



---------------------------------------------------------------------
      Device Time Info (average): 
---------------------------------------------------------------------
CPU Cast/Pack:   25.5754 s.
CPU Driver_Time: 23.1346 s.
CPU Idle_Time:   13.5837 s.
Average split:   1.0000.
Max Mem / Proc:  4.45 MB.
Prefetch mode:   None.
Vector width:    32.
Lanes / atom:    8.
Pair block:      256.
Neigh block:     128.
Neigh mode:      Host.
---------------------------------------------------------------------


--------------------------------------------------------------------------
- Using acceleration for lj/class2/coul/long:
-  with 4 proc(s) per device.
-  with 1 thread(s) per proc.
-  Horizontal vector operations: ENABLED
-  Shared memory system: No
--------------------------------------------------------------------------
Device 0: Quadro RTX 6000, 72 CUs, 23/24 GB, 1.8 GHZ (Mixed Precision)
--------------------------------------------------------------------------

Initializing Device and compiling on process 0...Done.
Initializing Device 0 on core 0...Done.
Initializing Device 0 on core 1...Done.
Initializing Device 0 on core 2...Done.
Initializing Device 0 on core 3...Done.

Generated 21 of 21 mixed pair_coeff terms from sixthpower/sixthpower mixing rule
STAGE COMPLETE: NPT T=300.0->300.0K P=1.0->1.0atm steps=2000000
