units real
atom_style full
boundary p p p

# --- Force Field Styles ---
pair_style lj/class2/coul/long 9.5 9.5
kspace_style pppm 1e-6
dielectric 1.000000
bond_style class2
angle_style class2
dihedral_style class2
improper_style class2
special_bonds lj/coul 0 0 1
pair_modify mix sixthpower tail yes
neighbor 2.0 bin
neigh_modify delay 0 every 1 check yes
neigh_modify one 4000
# KOKKOS: package loaded via -pk kokkos on the command line

read_data /home/arz2/PolyJarvis/data/PSU2/lammps/equil/npt_extend/npt_extend_out.data
Reading data file ...
  orthogonal box = (5.9813462 5.9813462 5.9813462) to (55.912235 55.912235 55.912235)
  1 by 1 by 1 MPI processor grid
  reading atoms ...
  10820 atoms
  reading velocities ...
  10820 velocities
  scanning bonds ...
  4 = max bonds/atom
  scanning angles ...
  16 = max angles/atom
  scanning dihedrals ...
  38 = max dihedrals/atom
  scanning impropers ...
  12 = max impropers/atom
  orthogonal box = (5.9813462 5.9813462 5.9813462) to (55.912235 55.912235 55.912235)
  1 by 1 by 1 MPI processor grid
  reading bonds ...
  11610 bonds
  reading angles ...
  19600 angles
  reading dihedrals ...
  29180 dihedrals
  reading impropers ...
  8000 impropers
Finding 1-2 1-3 1-4 neighbors ...
  special bond factors lj:    0        0        1       
  special bond factors coul:  0        0        1       
     4 = max # of 1-2 neighbors
    10 = max # of 1-3 neighbors
    14 = max # of special neighbors
  special bonds CPU = 0.006 seconds
  read_data CPU = 0.446 seconds


# --- Thermo Output ---
thermo_style custom step time temp press enthalpy etotal ke pe ebond eangle edihed eimp evdwl ecoul elong etail vol lx ly lz density pxx pyy pzz
thermo_modify flush yes
thermo 100

# --- Trajectory ---
dump dump_npt all custom 1000 /home/arz2/PolyJarvis/data/PSU2/lammps/mechanical/bm_series/bm_P0/bm_P0.dump id type mol x y z ix iy iz vx vy vz

# --- Restart Checkpointing ---
restart 10000 npt_1.rst npt_2.rst

# --- Initial Velocities (optional) ---
# Velocities read from data file

# --- SHAKE Constraints ---
fix shake_fix all shake 1e-4 1000 0 m 1.008
Finding SHAKE clusters ...
    3220 = # of size 2 clusters
       0 = # of size 3 clusters
     400 = # of size 4 clusters
       0 = # of frozen angles
  find clusters CPU = 0.004 seconds

# --- NPT Thermostat + Barostat (Nose-Hoover) ---
# T_damp = 100.0 fs  (heat bath coupling)
# P_damp = 1000.0 fs  (pressure bath coupling, ~10x T_damp typical)
# Ramp: T=300.0->300.0K  P=0.0->0.0atm
timestep 1.0
fix npt_fix all npt temp 300.0 300.0 100.0 iso 0.0 0.0 1000.0

run 500000
PPPM Kokkos initialization ...
  using 12-bit tables for long-range coulomb
  G vector (1/distance) = 0.30191443
  grid = 36 36 36
  stencil order = 5
  estimated absolute RMS force accuracy = 0.00029044865
  estimated relative force accuracy = 8.7467747e-07
  using double precision cuFFT
  3d grid and FFT values/proc = 79507 46656
Generated 28 of 28 mixed pair_coeff terms from sixthpower/sixthpower mixing rule
Neighbor list info ...
  update: every = 1 steps, delay = 0 steps, check = yes
  max neighbors/atom: 4000, page size: 100000
  master list distance cutoff = 11.5
  ghost atom cutoff = 11.5
  binsize = 11.5, bins = 5 5 5
  1 neighbor lists, perpetual/occasional/extra = 1 0 0
  (1) pair lj/class2/coul/long/kk, perpetual
      attributes: full, newton off, kokkos_device
      pair build: full/bin/kk/device
      stencil: full/bin/3d
      bin: kk/device
Per MPI rank memory allocation (min/avg/max) = 65.42 | 65.42 | 65.42 Mbytes
   Step          Time           Temp          Press         Enthalpy        TotEng         KinEng         PotEng         E_bond        E_angle        E_dihed        E_impro         E_vdwl         E_coul         E_long         E_tail         Volume           Lx             Ly             Lz          Density          Pxx            Pyy            Pzz      
         0   0              344.90778      795.03201      24305.963      22862.624      9608.3225      13254.302      3516.4212      5119.9153      3722.403       378.2402      -440.05572      8148.7202     -7191.3425     -878.4708       124482.38      49.930889      49.930889      49.930889      1.1809204      1094.7831     -741.19071      2031.5036    
       100   100            299.90601     -689.98925      20297.333      21551.355      8354.6787      13196.677      3541.6639      5030.1147      3865.7936      374.90026     -567.61915      8146.545      -7194.7217     -877.50203      124619.81      49.949257      49.949257      49.949257      1.1796181     -1487.9077     -624.0699       42.009872    
       200   200            301.66887     -283.83753      20905.519      21421.773      8403.7879      13017.985      3509.3577      5111.4996      3678.8528      363.59551     -594.31513      8143.7447     -7194.7498     -876.83422      124714.73      49.961935      49.961935      49.961935      1.1787203     -581.17796     -168.66277     -101.67188    
       300   300            298.33569     -358.73126      20768.827      21420.81       8310.9333      13109.876      3562.7974      4989.906       3774.7329      381.76126     -543.13912      8139.4767     -7195.659      -877.49435      124620.91      49.949403      49.949403      49.949403      1.1796078     -292.76248     -551.45513     -231.97616    
       400   400            301.25344     -194.63062      21111.36       21464.897      8392.2152      13072.681      3531.589       5009.2989      3765.018       390.60476     -569.58824      8141.3883     -7195.6294     -877.98634      124551.07      49.940071      49.940071      49.940071      1.1802691     -286.70129      221.97232     -519.16288    
       500   500            301.79263      41.691883      21606.558      21531.004      8407.2357      13123.768      3539.2368      5005.6934      3771.3671      375.94366     -525.05003      8149.924      -7193.3465     -880.0499       124259.02      49.901007      49.901007      49.901007      1.1830432      788.64375     -620.31402     -43.254082    
       600   600            301.94023      1649.0239      24610.178      21626.21       8411.3475      13214.862      3631.5878      5077.7673      3664.4724      380.4532      -483.51246      8138.2842     -7194.1901     -881.34087      124077.01      49.876631      49.876631      49.876631      1.1847786      1525.082       1623.556       1798.4337    
       700   700            306.13518     -116.06388      21396.32       21606.234      8528.2089      13078.025      3511.1921      5047.2491      3780.8845      382.67447     -584.53594      8136.5824     -7196.022      -881.79466      124013.16      49.868073      49.868073      49.868073      1.1853886      105.23322     -941.0702       487.64534    
       800   800            297.30053     -501.32784      20524.28       21430.385      8282.0962      13148.289      3449.5177      5069.4439      3817.3977      377.30258     -506.78003      8136.6733     -7195.266      -882.37733      123931.27      49.857094      49.857094      49.857094      1.1861719      197.35471     -767.18838     -934.14984    
       900   900            297.23077      1634.6482      24364.101      21408.195      8280.153       13128.042      3528.9728      4987.4786      3716.7173      386.76817     -428.9706       8134.8049     -7197.729      -881.95186      123991.05      49.86511       49.86511       49.86511       1.1856         1520.7157      1990.1846      1393.0444    
      1000   1000           301.90675     -385.12913      20760.031      21457.78       8410.4148      13047.366      3504.8503      4987.711       3784.3872      370.28515     -550.56605      8145.931      -7195.2331     -880.27401      124227.39      49.896772      49.896772      49.896772      1.1833444     -704.96134      383.71825     -834.1443     
      1100   1100           300.55104      522.39667      22442.981      21495.648      8372.6478      13123.001      3523.9926      4991.6556      3806.9686      387.07153     -540.6086       8148.5526     -7194.6316     -879.44588      124344.37      49.912429      49.912429      49.912429      1.1822312      327.26528      540.52337      699.40135    
      1200   1200           303.21091      22.328311      21577.13       21536.561      8446.7456      13089.816      3515.3131      5012.5354      3773.445       379.18596     -556.64445      8157.4705     -7191.4898     -877.75908      124583.32      49.944381      49.944381      49.944381      1.1799636      433.45967     -684.09964      317.62491    
      1300   1300           300.63464     -101.16304      21311.723      21495.392      8374.9768      13120.415      3482.5567      4936.5727      3876.0453      383.5759      -506.34779      8141.5417     -7193.5294     -878.40966      124491.05      49.932048      49.932048      49.932048      1.1808382     -479.47857      71.48246       104.50699    
      1400   1400           297.40424      843.05472      22928.42       21399.758      8284.9855      13114.773      3546.1036      5074.5332      3717.9068      378.87546     -566.87845      8157.2023     -7192.9703     -879.53972      124331.1       49.910654      49.910654      49.910654      1.1823573      867.87904      289.83281      1371.4523    
      1500   1500           300.40705     -402.7956       20652.007      21381.495      8368.6365      13012.859      3486.1462      4989.9418      3809.1126      373.45422     -598.32069      8145.1413     -7192.6168     -880.59748      124181.76      49.890662      49.890662      49.890662      1.1837793      609.82654     -2314.8496      496.63628    
      1600   1600           301.07615      352.41616      22144.005      21507.4        8387.2761      13120.123      3515.6615      5033.9654      3794.4358      373.96729     -547.08717      8146.1931     -7197.0124     -882.86894      123862.26      49.847838      49.847838      49.847838      1.1868328      1946.3335     -531.28682     -357.7982     
      1700   1700           304.54075      135.92177      21856.663      21611.498      8483.7919      13127.706      3529.7192      4947.3762      3860.5916      373.7622      -537.64367      8149.0122     -7195.1118     -884.18183      123678.34      49.823154      49.823154      49.823154      1.1885977     -478.93298     -107.64468      994.34298    
      1800   1800           305.40656     -252.40669      21082.149      21537.145      8507.9111      13029.234      3389.6035      5026.5364      3883.0578      392.21748     -612.13314      8146.5498     -7196.5983     -884.71751      123603.45      49.813096      49.813096      49.813096      1.1893178     -663.19491      254.54172     -348.56688    
      1900   1900           299.05946     -850.49519      19812.848      21343.952      8331.0958      13012.856      3383.4904      5026.2739      3867.6559      380.39302     -600.07345      8150.3029     -7195.1864     -885.88695      123440.29      49.791167      49.791167      49.791167      1.1908899     -720.1578      -1192.2827     -639.04513    
      2000   2000           295.9902      -141.76138      21087.565      21342.983      8245.5935      13097.389      3487.1838      5043.1182      3826.9255      385.28356     -590.36147      8137.2934     -7192.0536     -885.15157      123542.84      49.804952      49.804952      49.804952      1.1899013     -224.80912     -714.22046      513.74544    
      2100   2100           299.33968      50.275573      21519.268      21428.553      8338.902       13089.651      3461.1076      5115.6219      3761.1462      372.52493     -565.96629      8142.1413     -7196.9243     -883.8706       123721.89      49.829001      49.829001      49.829001      1.1881793     -408.35919      1292.6836     -733.4977     
      2200   2200           304.68225     -143.70273      21254.753      21514.491      8487.7335      13026.757      3481.6395      4962.0154      3871.5319      379.78155     -609.15672      8137.4618     -7196.5162     -882.35054      123935.03      49.857599      49.857599      49.857599      1.1861359     -165.57558      22.550294     -288.0829     
      2300   2300           303.69101      866.76148      23090.59       21523.367      8460.1199      13063.247      3483.5306      4978.6731      3819.9274      374.75098     -540.83752      8141.8323     -7194.6299     -882.02279      123981.08      49.863773      49.863773      49.863773      1.1856953      1051.7582      1022.7168      525.80942    
      2400   2400           299.16328     -89.16335       21236.763      21397.97       8333.9881      13063.982      3489.1614      5011.9757      3812.4444      376.33143     -570.62432      8138.3748     -7193.6813     -882.08887      123971.79      49.862528      49.862528      49.862528      1.1857841      514.94366     -167.28674     -615.14697    
      2500   2500           299.48257     -16.21568       21271.602      21300.861      8342.8827      12957.978      3495.7068      4926.2928      3764.7162      372.79241     -547.17964      8142.0189     -7196.3694     -883.87287      123721.57      49.828958      49.828958      49.828958      1.1881824     -20.543129      538.68487     -566.78878    
      2600   2600           299.4725       105.84779      21585.076      21394.204      8342.6023      13051.601      3481.0277      5058.6103      3748.2598      377.88378     -548.66665      8135.6522     -7201.1658     -884.40177      123647.58      49.819023      49.819023      49.819023      1.1888933     -184.67653      962.27907     -460.05917    
      2700   2700           300.44369      292.16022      22034.907      21507.542      8369.6572      13137.884      3480.8535      5025.3003      3811.1033      386.14984     -524.29882      8153.7535     -7194.9774     -883.5281       123769.85      49.835439      49.835439      49.835439      1.1877189      538.84616     -292.83697      630.47148    
      2800   2800           302.932       -388.26574      20809.822      21512.097      8438.9757      13073.121      3451.6536      5054.6123      3833.9669      368.94777     -603.19926      8160.7404     -7193.6006     -881.72493      124022.97      49.869388      49.869388      49.869388      1.1852949     -1133.2045     -628.01257      596.41983    
      2900   2900           300.26809     -1126.696       19431.632      21470.808      8364.7654      13106.043      3456.0811      4998.0013      3909.7307      380.48489     -597.87252      8154.6572     -7195.04       -881.17693      124100.09      49.879723      49.879723      49.879723      1.1845582     -1110.9156     -1947.7674     -321.40482    
      3000   3000           301.07149      803.98712      22880.94       21426.703      8387.1462      13039.557      3515.9379      5070.8262      3728.2398      362.15002     -576.59883      8135.5441     -7196.5422     -881.70872      124025.25      49.869693      49.869693      49.869693      1.1852731      699.75013      1051.1725      661.03869    
      3100   3100           298.28593      439.73873      22153.105      21358.167      8309.5473      13048.62       3586.9037      4965.1761      3697.7224      383.57913     -524.61651      8134.6345     -7194.7794     -882.21116      123954.61      49.860224      49.860224      49.860224      1.1859485      889.27855      42.120713      387.81691    
      3200   3200           294.43733     -761.91043      19831.148      21209.423      8202.3342      13007.089      3521.225       4991.7943      3808.9872      371.92586     -640.35942      8148.63       -7195.1137     -881.61515      124038.41      49.871458      49.871458      49.871458      1.1851473     -1121.0547     -228.89622     -935.78041    
      3300   3300           296.48162      703.57031      22523.324      21251.234      8259.2834      12991.95       3434.2164      5012.1907      3748.913       375.1582      -521.76645      8138.0624     -7194.824      -882.06523      123975.12      49.862974      49.862974      49.862974      1.1857524      1279.2425      391.78548      439.68302    
      3400   3400           301.59758      281.17267      21925.07       21417.236      8401.802       13015.434      3501.0611      4994.7339      3736.7167      378.07289     -551.99529      8148.4226     -7191.5776     -883.00372      123843.35      49.845302      49.845302      49.845302      1.1870139     -86.218897      1069.4807     -139.74381    
      3500   3500           301.48447     -149.45328      21222.34       21492.267      8398.6509      13093.616      3538.2063      5065.4059      3719.05        372.68671     -559.05073      8151.1962     -7193.8786     -883.01927      123841.17      49.845009      49.845009      49.845009      1.1870349     -917.49759      772.03399     -302.89623    
      3600   3600           302.11073     -648.10987      20326.475      21497.217      8416.097       13081.12       3477.8704      5045.4999      3845.6811      369.95357     -618.53316      8154.2471     -7193.5987     -882.87339      123861.63      49.847755      49.847755      49.847755      1.1868388     -1809.6667     -240.06345      105.4005     
      3700   3700           299.36884      1091.6545      23424.96       21455.476      8339.7145      13115.761      3516.7902      5092.9333      3665.5883      378.70579     -483.66363      8143.1653     -7197.7581     -883.9829       123706.17      49.826891      49.826891      49.826891      1.1883303      607.45597      953.49062      1714.0168    
      3800   3800           299.40871     -233.00204      20919.619      21340.014      8340.8251      12999.189      3407.3721      5007.9191      3793.7971      370.77055     -528.04273      8142.9725     -7195.5995     -883.91928      123715.07      49.828086      49.828086      49.828086      1.1882447     -149.70177     -166.53063     -382.77374    
      3900   3900           295.57307      112.4029       21497.529      21294.453      8233.9732      13060.48       3504.8331      5049.9598      3746.9353      373.99252     -564.06827      8142.4713     -7193.644      -882.73461      123881.11      49.850367      49.850367      49.850367      1.1866522      14.665671      25.85592       296.68712    
      4000   4000           300.96331      122.98846      21654.833      21432.234      8384.1328      13048.101      3450.3248      5081.5762      3783.3131      376.10611     -589.74255      8138.8234     -7192.2997     -881.1566       124102.96      49.880107      49.880107      49.880107      1.1845309     -636.34474      1599.4728     -594.16269    
      4100   4100           298.74189      65.937808      21655.112      21535.583      8322.2492      13213.334      3593.719       5101.6032      3743.1186      375.05895     -557.72008      8151.7253     -7194.1707     -879.77917      124297.26      49.906125      49.906125      49.906125      1.1826792     -588.99694      340.16208      446.64828    
      4200   4200           298.98312      374.05753      22195.842      21517.451      8328.9692      13188.482      3513.4262      5066.6744      3769.9064      384.58748     -501.59069      8148.7869     -7193.3089     -879.3648       124355.83      49.913963      49.913963      49.913963      1.1821222      206.06172     -42.113876      958.22474    
      4300   4300           296.67668     -1648.4779      18464.202      21456.267      8264.7173      13191.549      3492.027       5038.3614      3921.9438      366.71253     -583.35749      8144.4448     -7188.5827     -878.66482      124454.9       49.927214      49.927214      49.927214      1.1811812     -1933.8858     -1884.709      -1126.839     
      4400   4400           298.17329     -181.09417      21045.264      21373.519      8306.4092      13067.11       3436.1555      5083.2464      3745.9919      383.40663     -544.28056      8154.8583     -7192.2685     -879.84211      124288.37      49.904935      49.904935      49.904935      1.1827638     -378.43393     -13.084035     -151.76455    
      4500   4500           292.57082      122.82652      21458.511      21236.257      8150.3376      13085.92       3524.3881      4987.543       3761.5296      377.4887      -523.26385      8151.7395     -7193.5052     -881.36204      124074.03      49.876231      49.876231      49.876231      1.1848071      579.25037      657.12379     -867.89459    
      4600   4600           298.03649      945.39364      23035.057      21327.458      8302.5983      13024.86       3515.6828      4996.3855      3743.303       374.66187     -560.26663      8149.8061     -7194.7125     -882.95407      123850.32      49.846236      49.846236      49.846236      1.1869472      1358.5347      923.03252      554.61369    
      4700   4700           301.41219      1234.5234      23679.735      21451.206      8396.6375      13054.569      3519.5872      5081.8099      3657.214       379.09663     -537.56947      8149.5573     -7195.1268     -883.47085      123777.87      49.836515      49.836515      49.836515      1.1876419      806.86626      552.35287      2344.3512    
      4800   4800           303.6212      -952.69039      19738.15       21458.834      8458.1753      13000.659      3452.5749      5020.709       3787.7174      368.34755     -571.98748      8138.4233     -7195.1258     -883.00212      123843.58      49.845332      49.845332      49.845332      1.1870118     -1464.7477     -648.72286     -744.60059    
      4900   4900           298.23325     -538.67999      20435.783      21409.898      8308.0797      13101.819      3470.0643      5059.602       3850.5859      385.73081     -622.794        8153.7823     -7195.1525     -881.92481      123994.86      49.86562       49.86562       49.86562       1.1855636     -1374.3872      270.84793     -512.50068    
      5000   5000           297.7966       135.02184      21586.934      21342.66       8295.9156      13046.745      3473.4386      5061.1541      3782.7693      374.34826     -610.72467      8158.7092     -7192.9498     -881.53376      124049.86      49.872992      49.872992      49.872992      1.1850379     -1547.4279      331.31864      1621.1748    
      5100   5100           292.55702     -396.09522      20527.939      21244.716      8149.9531      13094.763      3495.7433      5057.6408      3778.8519      379.35349     -565.91949      8145.7878     -7196.6948     -881.30609      124081.91      49.877287      49.877287      49.877287      1.1847318     -960.21497      709.24671     -937.3174     
      5200   5200           297.82321      133.41047      21567.069      21325.974      8296.6569      13029.317      3484.4289      4970.6758      3785.9428      372.99249     -536.16044      8148.3093     -7196.8718     -882.49702      123914.46      49.85484       49.85484       49.85484       1.1863328      322.3803      -492.98702      570.83813    
      5300   5300           300.26051     -1149.5316      19395.852      21473.377      8364.5542      13108.823      3498.2885      5057.8067      3871.8861      376.20419     -646.05557      8146.7264     -7196.0337     -882.44118      123922.3       49.855892      49.855892      49.855892      1.1862577     -1398.9466     -860.64516     -1189.0031    
      5400   5400           302.27816     -2.4995006      21499.585      21504.097      8420.7614      13083.335      3477.7423      5081.8856      3775.8981      368.70986     -580.21099      8154.2471     -7194.9365     -883.55982      123765.41      49.834843      49.834843      49.834843      1.1877615     -736.77536      732.52626     -3.2494022    
      5500   5500           301.73302     -800.58929      20026.842      21472.147      8405.5751      13066.572      3487.9962      5044.1499      3815.8758      385.47052     -623.65121      8151.6656     -7194.9352     -883.40826      123786.64      49.837692      49.837692      49.837692      1.1875578     -1170.4518     -799.75199     -431.56409    
      5600   5600           298.10903      297.85033      21878.583      21340.761      8304.6192      13036.141      3464.6644      5063.3135      3746.0569      380.86264     -569.20165      8146.1828     -7195.7374     -883.22325      123812.57      49.841172      49.841172      49.841172      1.1873091      1616.3463      313.08964     -1035.885     
      5700   5700           293.95147      103.21184      21419.122      21232.732      8188.7991      13043.933      3531.1082      4981.2071      3774.4621      383.64517     -584.92206      8151.2996     -7192.867      -883.11826      123827.29      49.843147      49.843147      49.843147      1.1871679     -80.869981      73.344434      317.16106    
      5800   5800           297.1504       243.82741      21767.516      21326.905      8277.9141      13048.991      3524.6545      5014.6408      3765.4607      378.18505     -583.02978      8143.2333     -7194.1535     -882.5474       123907.39      49.853891      49.853891      49.853891      1.1864005      1281.7364     -708.21906      157.96483    
      5900   5900           301.95477     -32.134442      21370.428      21428.447      8411.7524      13016.695      3475.013       4970.3915      3766.3455      384.64191     -522.32025      8136.8702     -7194.2468     -883.30555      123801.03      49.839624      49.839624      49.839624      1.1874197      95.895193     -800.50245      608.20393    
      6000   6000           301.09347     -120.64848      21211.187      21429.149      8387.7586      13041.391      3594.2912      4976.8569      3766.1556      369.03369     -611.74534      8142.721      -7195.9225     -882.78035      123874.69      49.849506      49.849506      49.849506      1.1867137     -250.32734     -861.67016      750.05206    
      6100   6100           302.11869      1260.7035      23675.178      21395.035      8416.319       12978.716      3501.8838      4989.4954      3703.4382      373.17167     -530.96916      8134.9434     -7193.2475     -881.78353      124014.72      49.868283      49.868283      49.868283      1.1853737      2111.2535      1096.3103      574.5467     
      6200   6200           299.58467      156.99176      21694.857      21410.514      8345.727       13064.787      3554.9307      4961.9445      3789.521       385.46307     -575.82174      8141.8528     -7193.1034     -880.53105      124191.12      49.891916      49.891916      49.891916      1.18369        858.57665     -311.1167      -76.48468     
      6300   6300           301.89567      1080.8203      23534.559      21576.314      8410.106       13166.208      3531.2844      5134.9693      3693.4757      376.75778     -523.5755       8148.0063     -7194.7099     -880.2331       124233.16      49.897545      49.897545      49.897545      1.1832894      486.51444      786.59506      1969.3513    
      6400   6400           303.64132     -1522.5989      18874.024      21632.794      8458.7358      13174.058      3407.8399      5033.1513      3984.7418      380.04588     -587.09767      8150.0106     -7194.6335     -880.19953      124237.9       49.898179      49.898179      49.898179      1.1832443     -2272.5572     -964.02911     -1331.2103    
      6500   6500           298.99178     -379.48051      20846.167      21533.557      8329.2106      13204.346      3539.9604      5025.2191      3839.1821      382.11753     -526.65012      8140.3671     -7195.85       -880.43604      124204.53      49.893711      49.893711      49.893711      1.1835622     -83.893965     -1148.8069      94.259305    
      6600   6600           298.20558      101.85923      21621.6        21437.196      8307.3088      13129.887      3441.0436      5117.6398      3786.2054      389.2795      -553.39114      8144.6242     -7195.5144     -880.92897      124135.03      49.884403      49.884403      49.884403      1.1842249      257.01321     -111.53819      160.10267    
      6700   6700           296.67645     -76.338262      21274.741      21412.794      8264.7108      13148.084      3486.9228      5031.5812      3865.2013      383.22434     -559.10173      8135.4194     -7195.1636     -881.87369      124002.04      49.866584      49.866584      49.866584      1.1854949      586.29211     -989.71129      174.40439    
      6800   6800           298.78566     -477.17902      20559.88       21421.951      8323.4686      13098.483      3463.3241      5072.7719      3825.0257      377.78659     -580.03385      8134.632      -7195.024      -882.77322      123875.69      49.84964       49.84964       49.84964       1.1867041     -499.92493     -923.92157     -7.6905661    
      6900   6900           300.80278     -674.86902      20264.774      21482.725      8379.6607      13103.064      3483.1138      5078.4662      3836.5164      369.88662     -600.98816      8134.2232     -7198.1539     -883.6917       123746.94      49.832363      49.832363      49.832363      1.1879388     -348.38987     -1221.4131     -454.80406    
      7000   7000           301.60349      236.47818      22065.468      21638.474      8401.9666      13236.507      3497.1077      5012.1163      3912.974       376.48198     -505.09699      8136.9405     -7194.0163     -883.24359      123809.72      49.840789      49.840789      49.840789      1.1873364     -51.361362      114.37985      646.41606    
      7100   7100           301.47354      342.7383       22266.736      21647.522      8398.3466      13249.175      3530.003       5058.8225      3879.7843      398.38768     -573.73669      8147.9952     -7192.0804     -882.73986      123880.37      49.850268      49.850268      49.850268      1.1866593      128.50043     -120.16405      1019.8785    
      7200   7200           300.60834      567.35817      22491.703      21465.455      8374.2441      13091.211      3565.67        4943.01        3763.7613      389.7173      -524.57681      8147.5391     -7193.9099     -881.69044      124027.82      49.870038      49.870038      49.870038      1.1852485      1150.7394      106.02184      445.31326    
      7300   7300           299.96138      630.83723      22561.826      21420.043      8356.2213      13063.822      3545.5484      4984.6065      3751.2764      376.58987     -548.54131      8147.0149     -7192.673      -881.14022      124105.27      49.880416      49.880416      49.880416      1.1845089      672.57902      1496.5959     -276.6632     
      7400   7400           299.53178     -199.56731      21064.534      21425.85       8344.2538      13081.596      3499.761       4960.7201      3811.5708      373.54016     -523.67954      8151.3098     -7191.626      -880.87296      124142.92      49.88546       49.88546       49.88546       1.1841496     -126.50629      381.63463     -853.83028    
      7500   7500           301.40472      167.17901      21785.936      21483.407      8396.4294      13086.978      3494.5209      4969.0689      3805.3943      384.28914     -532.34291      8156.1266     -7190.079      -881.30501      124082.06      49.877307      49.877307      49.877307      1.1847304     -451.36728     -146.98237      1099.8867    
      7600   7600           307.25009      554.26993      22587.928      21585.643      8559.2676      13026.376      3505.1299      4930.1268      3817.4037      369.1021      -535.43212      8136.4398     -7196.3946     -881.94506      123992.01      49.865238      49.865238      49.865238      1.1855908     -254.62564      974.37045      943.06499    
      7700   7700           303.29028      228.44998      22013.183      21599.393      8448.9568      13150.436      3623.8124      5033.8114      3772.8943      378.19096     -618.28461      8151.1136     -7191.102      -880.48474      124197.66      49.892791      49.892791      49.892791      1.1836277     -100.65364      41.51601       744.48758    
      7800   7800           297.83581      161.41463      21713.482      21421.169      8297.0077      13124.162      3550.8963      4970.2599      3811.5092      373.11645     -540.25781      8152.7233     -7194.0857     -880.65514      124173.62      49.889573      49.889573      49.889573      1.1838568      101.30201      122.58522      260.35667    
      7900   7900           299.52872     -160.74163      21048.309      21339.584      8344.1684      12995.416      3493.3549      4986.7915      3776.3803      382.11943     -596.34003      8147.6142     -7194.5046     -880.108        124250.82      49.899909      49.899909      49.899909      1.1831213     -1567.6636      259.59635      825.84235    
      8000   8000           297.4079       590.56992      22430.127      21362.153      8285.0873      13077.066      3479.2656      5050.4135      3788.4333      379.61935     -576.66045      8150.154      -7194.1594     -881.90528      123997.6       49.865988      49.865988      49.865988      1.1855373     -213.43724      196.38255      1788.7645    
      8100   8100           300.05553     -456.79763      20674.655      21499.776      8358.8442      13140.931      3546.3589      5014.1329      3847.5731      380.14068     -602.31196      8147.441      -7192.4031     -882.91253      123856.14      49.847018      49.847018      49.847018      1.1868914     -1211.113      -275.75486      116.47494    
      8200   8200           299.90372      1457.0058      24190.452      21562.308      8354.6149      13207.693      3486.892       5124.6187      3788.8861      382.24389     -522.7613       8140.3046     -7192.4908     -884.14447      123683.56      49.823855      49.823855      49.823855      1.1885475      812.12757      2095.5577      1463.3322    
      8300   8300           303.24438     -192.78592      21151.835      21499.736      8447.678       13052.058      3517.3275      5048.1067      3730.9087      379.10381     -585.61017      8154.9915     -7192.7704     -883.75412      123738.2       49.83119       49.83119       49.83119       1.1880227      254.79709     -61.605454     -771.54941    
      8400   8400           299.11486     -816.80418      19989.227      21465.985      8332.6393      13133.346      3477.8582      5048.8688      3856.146       377.46701     -581.71153      8147.7471     -7193.0297     -882.10391      123969.68      49.862245      49.862245      49.862245      1.1858044     -156.25626     -1136.1029     -1158.0534    
      8500   8500           298.81257     -606.94217      20356.584      21456.953      8324.218       13132.735      3377.9504      5135.2654      3829.8965      375.97043     -534.07364      8141.5832     -7193.8573     -879.67049      124312.62      49.90818       49.90818       49.90818       1.1825331     -686.03101     -271.45141     -863.34409    
      8600   8600           300.99277     -432.65018      20661.618      21447.521      8384.9534      13062.568      3433.8839      5073.0272      3839.8333      382.69888     -622.90141      8150.1356     -7194.1099     -877.96848      124553.61      49.94041       49.94041       49.94041       1.1802451     -981.70155      141.177       -457.42598    
      8700   8700           296.30988      91.019034      21600.46       21435.374      8254.499       13180.875      3451.1419      5074.2164      3819.8399      379.22866     -499.09923      8148.0743     -7192.5265     -879.29651      124365.49      49.915255      49.915255      49.915255      1.1820304      144.59925      505.86036     -377.40251    
      8800   8800           299.62886     -959.51261      19705.229      21445.904      8346.9579      13098.946      3378.738       5010.7759      3901.9653      379.25545     -518.95567      8140.8453     -7193.6778     -879.11155      124391.66      49.918755      49.918755      49.918755      1.1817817     -751.65153     -1832.45       -294.43633    
      8900   8900           298.31208      1005.2549      23300.572      21476.443      8310.2755      13166.168      3464.764       5058.9497      3730.0547      381.98145     -422.45576      8144.1444     -7191.2706     -878.88469      124423.76      49.92305       49.92305       49.92305       1.1814768      494.77936      1172.6951      1348.2902    
      9000   9000           302.82273     -165.92581      21232.306      21534.218      8435.9318      13098.287      3419.3169      5066.9408      3774.9075      379.94867     -496.92464      8147.0156     -7192.9182     -876.48564      124764.33      49.968557      49.968557      49.968557      1.1782518      365.94528     -1146.2913      282.56859    
      9100   9100           300.07903      359.44755      22263.714      21608.881      8359.4988      13249.382      3616.0226      4933.695       3851.4221      392.90565     -476.24744      8127.7017     -7196.1172     -875.41923      124916.31      49.988839      49.988839      49.988839      1.1768182     -687.67252      1221.7521      544.26302    
      9200   9200           300.66421      665.48275      22782.287      21568.089      8375.8006      13192.289      3583.4934      5073.5928      3685.4834      383.26873     -493.27545      8153.6267     -7193.9008     -874.095        125105.56      50.01407       50.01407       50.01407       1.175038       395.79574      590.40138      1010.2511    
      9300   9300           297.98824     -814.90871      19911.511      21395.93       8301.2542      13094.675      3440.5364      5032.9347      3781.1566      361.30417     -478.18802      8150.715      -7193.7834     -875.51541      124902.59      49.987008      49.987008      49.987008      1.1769475     -1233.9047     -943.15903     -267.66235    
      9400   9400           297.94261      799.7259       22842.451      21389.1        8299.9829      13089.118      3590.1798      5005.6324      3692.4944      365.19149     -525.19124      8155.4408     -7194.6301     -877.57027      124610.12      49.947962      49.947962      49.947962      1.1797098      309.47749      1278.565       811.1352     
      9500   9500           298.19501     -400.34264      20732.806      21457.667      8307.0144      13150.653      3416.046       5013.1481      3888.4481      393.61921     -507.84167      8141.4064     -7194.1735     -880.8219       124150.11      49.886424      49.886424      49.886424      1.184081      -403.97912     -430.92082     -366.12799    
      9600   9600           300.82625      436.05599      22341.92       21555.166      8380.3144      13174.852      3498.6598      5093.2858      3794.4823      377.4761      -542.17195      8147.9087     -7194.7891     -883.92345      123714.49      49.828008      49.828008      49.828008      1.1882503      658.93081      624.77748      24.459682    
      9700   9700           304.3231       235.57324      22158.488      21734.038      8477.7286      13256.31       3521.4054      5079.323       3876.1363      384.786       -549.16917      8138.3551     -7194.5271     -885.13687      123544.89      49.805228      49.805228      49.805228      1.1898815     -556.06558      116.99626      1145.7891    
      9800   9800           307.5036      -641.33268      20581.372      21737.82       8566.3298      13171.49       3529.6203      5073.616       3791.2176      370.39334     -557.82765      8157.5098     -7193.0391     -884.4401       123642.22      49.818304      49.818304      49.818304      1.1889449     -1315.0237      191.21981     -800.19413    
      9900   9900           301.85411      363.35508      22187.183      21530.806      8408.9484      13121.857      3514.9149      5054.694       3753.6853      377.06836     -519.0202       8137.7914     -7197.2766     -882.85396      123864.36      49.84812       49.84812       49.84812       1.1868126     -103.2575      -371.38239      1564.7051    
     10000   10000          302.50491     -492.44649      20572.197      21463.505      8427.0781      13036.427      3499.069       4977.2657      3808.8914      365.3345      -559.41954      8143.4843     -7198.1983     -881.13471      124106.04      49.88052       49.88052       49.88052       1.1845015     -384.95997     -1147.8597      55.48023     
     10100   10100          299.41708      867.30337      22964.792      21395.235      8341.0584      13054.177      3420.201       5059.3402      3734.4135      371.49595     -476.96989      8143.3387     -7197.6426     -881.26205      124088.11      49.878118      49.878118      49.878118      1.1846726      1405.4272     -2.3044358      1198.7874    
     10200   10200          299.27967      370.86194      22038.974      21367.721      8337.2305      13030.491      3567.1936      4951.5499      3714.2711      374.5917      -526.59198      8142.7263     -7193.2501     -881.12473      124107.45      49.880708      49.880708      49.880708      1.1844881      123.15274      260.4606       728.97247    
     10300   10300          298.50714     -234.79561      21021.885      21446.95       8315.7095      13131.241      3540.8969      5061.6857      3784.2926      367.4695      -568.75465      8140.9521     -7195.3014     -880.93844      124133.69      49.884224      49.884224      49.884224      1.1842376     -640.19865     -156.85371      92.66553     
     10400   10400          299.70766     -1246.3089      19318.943      21575.104      8349.1531      13225.951      3510.0515      5069.2788      3909.6749      372.25748     -588.14952      8148.7224     -7195.8843     -880.98127      124127.66      49.883416      49.883416      49.883416      1.1842952     -804.18186     -2005.9016     -928.84334    
     10500   10500          302.56081     -763.69512      20197.758      21580.775      8428.6352      13152.14       3442.4738      5056.3821      3892.6355      377.34514     -557.67121      8137.849      -7196.8745     -880.65078      124174.24      49.889655      49.889655      49.889655      1.1838509     -146.35643     -986.78633     -1157.9426    
     10600   10600          299.34288     -148.81495      21111.74       21381.291      8338.9913      13042.3        3454.0792      4981.9484      3837.1244      373.70872     -540.12137      8133.9293     -7198.369      -880.47588      124198.9       49.892958      49.892958      49.892958      1.1836158     -600.89796      649.42171     -494.96859    
     10700   10700          300.46116      61.533081      21420.25       21308.901      8370.144       12938.757      3439.1944      4988.3357      3793.2304      369.56527     -598.73702      8143.7233     -7196.5552     -881.3177       124080.27      49.877068      49.877068      49.877068      1.1847475      439.32493     -10.810858     -243.91483    
     10800   10800          299.89508     -413.88475      20621.112      21370.031      8354.3743      13015.657      3495.7087      4957.877       3828.2934      373.00874     -585.52795      8141.2745     -7194.9773     -881.36407      124073.74      49.876193      49.876193      49.876193      1.1848098      295.5994      -1308.8174     -228.43627    
     10900   10900          297.66766     -382.80698      20807.06       21500.109      8292.3237      13207.785      3524.886       5031.9752      3801.7964      370.6796      -466.06222      8139.209      -7194.6987     -880.90047      124139.04      49.884941      49.884941      49.884941      1.1841866     -30.30494      -1180.9822      62.866228    
     11000   11000          299.75902      1035.7675      23421.683      21541.136      8350.5839      13190.552      3535.7285      5041.7798      3724.6141      374.87986     -433.2806       8141.3216     -7194.4909     -878.39398      124493.27      49.932345      49.932345      49.932345      1.1808171      737.63272      1632.1927      737.47713    
     11100   11100          300.93263     -418.47061      20733.077      21494.755      8383.2782      13111.477      3468.2087      4992.6083      3841.6603      383.72525     -515.98765      8136.9116     -7195.6493     -876.20255      124804.64      49.973938      49.973938      49.973938      1.1778712     -492.58624     -199.17858     -563.64701    
     11200   11200          303.74092      1679.2976      24491.849      21436.148      8461.5103      12974.638      3535.3041      5030.5016      3594.6005      370.12934     -501.81221      8140.6342     -7194.7198     -876.45147      124769.19      49.969206      49.969206      49.969206      1.1782058      1385.5152      2050.0294      1602.3482    
     11300   11300          298.57295     -822.9328       19921.876      21416.058      8317.543       13098.515      3531.2683      4965.6862      3821.3636      377.44366     -541.33873      8139.487      -7195.3951     -878.35913      124498.21      49.933005      49.933005      49.933005      1.1807703     -683.22429     -773.8626      -1011.7115    
     11400   11400          298.77729      242.41001      21870.618      21431.461      8323.2353      13108.226      3465.1687      4996.3384      3777.5475      370.49821     -451.937        8145.2469     -7194.6369     -880.32258      124220.53      49.895854      49.895854      49.895854      1.1834097      578.0532      -85.203233      234.38007    
     11500   11500          299.19742      6.5758367      21504.742      21492.838      8334.9393      13157.898      3521.8092      5020.4892      3816.1358      381.40659     -545.83387      8156.0988     -7192.2073     -880.94428      124132.87      49.884114      49.884114      49.884114      1.1842455     -1435.4322      349.73093      1105.4288    
     11600   11600          305.12935     -856.27865      19999.458      21548.573      8500.1889      13048.384      3413.6898      4974.2597      3901.5875      386.57999     -582.91258      8146.2206     -7191.0406     -881.54115      124048.82      49.872853      49.872853      49.872853      1.1850478     -1575.914      -1335.4652      342.54325    
     11700   11700          303.17408      683.91682      22715.281      21477.592      8445.7195      13031.873      3432.08        5043.5707      3776.8501      366.88138     -549.71403      8154.1337     -7191.9291     -881.25799      124088.68      49.878194      49.878194      49.878194      1.1846672     -88.834895      1641.0844      499.50093    
     11800   11800          299.42635     -980.71265      19539.584      21314.167      8341.3166      12972.85       3391.071       4961.2665      3878.7542      367.10342     -586.81612      8153.4212     -7191.9501     -881.36677      124073.36      49.876142      49.876142      49.876142      1.1848134     -1828.2639     -426.08659     -687.78743    
     11900   11900          299.25512     -280.77742      20810.795      21319.472      8336.5464      12982.926      3456.0358      5026.15        3734.2198      372.22461     -553.48518      8139.4544     -7191.6738     -880.30131      124223.53      49.896256      49.896256      49.896256      1.1833811     -409.87141     -715.97392      283.51306    
     12000   12000          296.65511      483.64865      22305.022      21428.742      8264.1163      13164.626      3557.2869      5013.7007      3750.9405      391.90467     -497.0099       8138.0948     -7190.292      -880.23412      124233.02      49.897526      49.897526      49.897526      1.1832908     -86.843147      1758.0164     -220.22727    
     12100   12100          299.89378     -431.1301       20745.213      21526.713      8354.3381      13172.375      3475.0538      5042.5933      3907.5872      379.74373     -582.83247      8141.561      -7191.3315     -879.81302      124292.48      49.905485      49.905485      49.905485      1.1827247      943.19348     -751.68809     -1484.8957    
     12200   12200          301.13237      1277.1967      23805.915      21494.072      8388.8424      13105.229      3571.9956      5047.5547      3698.8318      368.13095     -533.32347      8144.172      -7192.1325     -881.07008      124115.14      49.88174       49.88174       49.88174       1.1844146      2151.6827      964.91914      714.98836    
     12300   12300          296.64475     -691.90361      20163.713      21415.555      8263.8278      13151.727      3477.5722      5055.3258      3862.1221      382.95373     -590.20116      8150.5982     -7186.6437     -881.46933      124058.93      49.874208      49.874208      49.874208      1.1849513     -1343.9427     -148.57409     -583.19407    
     12400   12400          298.86543      482.00748      22253.659      21383.221      8325.6906      13057.53       3497.0645      5029.4505      3751.2403      379.33129     -565.48126      8156.2392     -7190.3147     -883.13441      123825.02      49.842843      49.842843      49.842843      1.1871896      1248.2641      585.78316     -388.02476    
     12500   12500          299.87604      22.533099      21532.521      21491.842      8353.844       13137.998      3515.3468      4984.9011      3887.1668      387.50546     -601.81201      8155.2731     -7190.383      -883.42209      123784.7       49.837432      49.837432      49.837432      1.1875764      332.85691      296.2251      -561.48271    
     12600   12600          301.48792      412.21219      22382.91       21639.129      8398.7471      13240.382      3485.2694      5109.8658      3840.0002      390.89154     -538.18248      8144.0165     -7191.4793     -883.86688      123722.41      49.829071      49.829071      49.829071      1.1881743      421.2188       73.779246      741.63851    
     12700   12700          299.75237     -101.45884      21381.91       21565.018      8350.3988      13214.619      3510.6884      5050.5004      3837.427       387.93533     -529.87423      8150.2513     -7192.3094     -883.67995      123748.58      49.832584      49.832584      49.832584      1.187923      -509.33852      547.03997     -342.07797    
     12800   12800          299.93179     -195.89365      21106.103      21460.231      8355.3971      13104.834      3538.2268      4990.5714      3818.3389      384.05569     -582.88379      8146.2959     -7189.7714     -882.21063      123954.68      49.860234      49.860234      49.860234      1.1859478     -443.87697     -807.497        663.69302    
     12900   12900          298.89867      331.47971      22021.117      21421.211      8326.6167      13094.594      3431.0857      5049.4462      3806.9044      379.71198     -522.42191      8142.8097     -7192.9419     -881.22022      124094         49.878907      49.878907      49.878907      1.1846164      374.2913       221.81024      398.33759    
     13000   13000          300.79206     -1005.9437      19612.877      21431.605      8379.3622      13052.243      3376.9944      4958.3594      3941.4341      386.54409     -572.48456      8155.3725     -7193.9767     -882.09805      123970.5       49.862355      49.862355      49.862355      1.1857965     -886.15034     -1108.2862     -1023.3945    
     13100   13100          298.03265      282.16815      21987.444      21478.212      8302.4913      13175.721      3496.672       5072.8206      3800.8388      376.95486     -520.26147      8144.8694     -7196.1731     -883.6975       123746.12      49.832254      49.832254      49.832254      1.1879466      20.751209      284.6433       541.10995    
     13200   13200          302.44505     -153.84987      21206.832      21484.217      8425.4104      13058.807      3419.1703      4977.1982      3877.9254      387.57969     -546.9572       8141.068      -7197.1777     -884.55435      123626.25      49.816159      49.816159      49.816159      1.1890984      840.99858     -516.88099     -785.66719    
     13300   13300          300.08029      276.13773      21828.325      21329.932      8359.5337      12970.399      3486.3148      4974.6696      3790.8991      385.18589     -615.22818      8145.1386     -7196.5812     -883.61882      123757.14      49.833733      49.833733      49.833733      1.1878408      578.26637      703.75015     -453.60334    
     13400   13400          296.98346      229.09401      21634.451      21219.839      8273.2633      12946.575      3409.15        4996.0581      3774.4329      369.95429     -544.98702      8139.184      -7197.2169     -881.2174       124094.4       49.87896       49.87896       49.87896       1.1846126      262.12666     -198.6167       623.77205    
     13500   13500          296.5247      -484.17923      20471.001      21349.794      8260.4834      13089.311      3490.4933      4912.7216      3889.8354      385.27629     -538.9763       8145.0407     -7195.0802     -878.67977      124452.78      49.926931      49.926931      49.926931      1.1812013     -1080.7921      716.7459      -1088.4915    
     13600   13600          301.23902      302.42342      22047.249      21497.467      8391.8134      13105.654      3441.8661      5073.1129      3794.8465      378.25188     -530.25426      8142.7571     -7194.9267     -877.27574      124651.96      49.953552      49.953552      49.953552      1.1793139      369.83318      286.55215      250.88494    
     13700   13700          296.33323     -364.13828      20892.663      21554.736      8255.1494      13299.587      3614.1808      5028.877       3841.83        386.56818     -524.60075      8145.3729     -7192.6416     -877.14597      124670.4       49.956015      49.956015      49.956015      1.1791394     -192.46948     -7.7677899     -892.17756    
     13800   13800          303.19814      531.08121      22490.665      21525.594      8446.3899      13079.204      3511.4303      5127.4533      3676.4013      375.13957     -562.75673      8146.1262     -7194.5901     -877.63212      124601.34      49.946789      49.946789      49.946789      1.179793       184.51978      66.56722       1342.1566    
     13900   13900          298.12499      749.00377      22726.205      21367.543      8305.0637      13062.479      3474.5983      5037.5747      3749.9909      367.75655     -522.80345      8146.2803     -7190.9183     -879.19185      124380.29      49.917236      49.917236      49.917236      1.1818897      1302.6489     -375.03336      1319.3957    
     14000   14000          297.05627     -934.09749      19617.919      21309.178      8275.2918      13033.886      3460.1138      4905.918       3916.3263      395.67665     -594.69468      8145.1964     -7194.6502     -880.83197      124148.7       49.886234      49.886234      49.886234      1.1840945     -1019.4364     -1051.7563     -731.09974    
     14100   14100          297.83235      257.93919      21827.917      21361.713      8296.9116      13064.802      3421.8912      5107.6657      3792.4851      367.65412     -570.67508      8140.8389     -7195.0584     -882.3737       123931.78      49.857162      49.857162      49.857162      1.186167       1143.888      -1081.0759      711.00545    
     14200   14200          299.98413     -88.661091      21244.175      21404.215      8356.8549      13047.36       3489.2131      4969.7421      3822.0993      378.18055     -561.91124      8144.0613     -7194.0247     -883.51732      123771.36      49.835642      49.835642      49.835642      1.1877044      1120.7767     -1080.5306     -306.22932    
     14300   14300          299.45637     -162.98939      21143.565      21437.673      8342.1529      13095.52       3444.7979      5038.6548      3851.4802      373.46226     -561.8835       8145.2814     -7196.273      -883.81969      123729.02      49.829958      49.829958      49.829958      1.1881109     -581.95684     -216.15618      309.14485    
     14400   14400          300.77778      1103.1667      23440.403      21448.583      8378.9644      13069.619      3458.9009      5064.3058      3706.737       366.73048     -490.59574      8153.9353     -7190.3951     -883.2878       123803.52      49.839958      49.839958      49.839958      1.1873958      1324.907       1013.7682      970.82504    
     14500   14500          297.70485     -1006.4936      19622.216      21445.349      8293.3596      13151.989      3443.3465      5105.8045      3879.7168      365.69207     -597.76752      8145.4206     -7190.2237     -880.44846      124202.77      49.893476      49.893476      49.893476      1.1835789     -797.33727     -2080.7165     -141.42701    
     14600   14600          298.33758     -323.86783      20842.366      21430.202      8310.9861      13119.216      3452.392       5054.9014      3787.9194      374.70245     -528.30581      8166.705      -7189.0989     -878.66381      124455.04      49.927233      49.927233      49.927233      1.1811799     -563.8031      -572.64839      164.84801    
     14700   14700          299.67219     -1796.2671      18169.039      21439.491      8348.1652      13091.326      3415.4063      4993.2182      3911.4812      366.66555     -549.98579      8147.0379     -7192.4973     -875.93961      124842.1       49.978938      49.978938      49.978938      1.1775177     -2582.5443     -1532.0108     -1274.2461    
     14800   14800          300.25628      921.50685      23195.711      21516.328      8364.4364      13151.892      3524.1643      5039.2708      3724.4404      375.18987     -464.85374      8148.0275     -7194.3471     -875.10472      124961.2       49.994827      49.994827      49.994827      1.1763954      521.87978      884.86802      1357.7727    
     14900   14900          304.66639     -1165.9626      19475.718      21599.606      8487.2918      13112.315      3508.2832      4966.6226      3876.1404      390.22285     -580.88484      8149.0841     -7197.1538     -875.51604      124902.5       49.986996      49.986996      49.986996      1.1769483     -265.19749     -1378.2342     -1854.4562    
     15000   15000          297.9799       605.03033      22625.333      21527.31       8301.0219      13226.288      3540.6721      5113.3891      3735.1296      384.98383     -501.37512      8148.715      -7195.2268     -878.77296      124439.58      49.925166      49.925166      49.925166      1.1813266      616.44354      409.04205      789.6054     
     15100   15100          298.6292      -589.33731      20297.725      21363.703      8319.1098      13044.594      3402.4462      5025.6618      3878.4171      368.7298      -577.85448      8143.0471     -7195.8539     -881.71189      124024.8       49.869634      49.869634      49.869634      1.1852774     -120.52969     -689.66987     -957.81237    
     15200   15200          301.0613       592.66861      22417.141      21348.404      8386.8624      12961.541      3545.8501      4949.8204      3683.9003      375.86817     -547.34008      8147.847      -7194.4045     -884.40693      123646.86      49.818926      49.818926      49.818926      1.1889003      851.89546      582.09304      344.01732    
     15300   15300          301.27452     -513.97021      20472.654      21400.136      8392.8023      13007.334      3470.4468      5026.772       3821.9527      372.67484     -632.00857      8144.8195     -7197.3235     -883.77876      123734.75      49.830727      49.830727      49.830727      1.1880558     -735.56652     -961.595        155.25088    
     15400   15400          299.96493      326.02603      22097.126      21508.689      8356.3202      13152.369      3447.9291      5082.7238      3869.5835      377.2754      -587.93595      8156.8253     -7194.0324     -883.61634      123757.49      49.83378       49.83378       49.83378       1.1878375      284.36187     -627.87848      1321.5947    
     15500   15500          304.0773       609.49189      22795.21       21694.309      8470.8811      13223.428      3579.4187      5082.7177      3848.7472      373.30368     -613.59771      8148.6281     -7195.7897     -882.9396       123852.35      49.846509      49.846509      49.846509      1.1869278      949.06846     -667.28122      1546.6884    
     15600   15600          303.66581     -41.302722      21658.499      21733.077      8459.4179      13273.66       3507.6963      5066.7436      3899.848       404.45206     -560.22017      8150.6562     -7195.5164     -883.23855      123810.42      49.840884      49.840884      49.840884      1.1873296     -132.72645     -980.90757      989.72586    
     15700   15700          302.92753     -565.51534      20587.133      21608.662      8438.8511      13169.811      3487.2081      5041.9169      3851.7547      377.20155     -548.26691      8153.513      -7193.5165     -882.88671      123859.77      49.847504      49.847504      49.847504      1.1868567      22.184014     -273.61978     -1445.1102    
     15800   15800          297.26729      375.62894      22193.004      21512.857      8281.1702      13231.687      3542.5076      5064.1668      3816.014       386.17494     -525.81454      8142.2975     -7193.6595     -880.77993      124156.03      49.887217      49.887217      49.887217      1.1840245      666.11346     -375.66387      836.43723    
     15900   15900          297.28163      134.79379      21639.655      21395.235      8281.5697      13113.665      3516.2936      5002.4605      3792.9308      373.31407     -528.18938      8150.1471     -7193.2914     -879.51647      124334.39      49.911093      49.911093      49.911093      1.1823261     -796.4359       442.08867      758.72859    
     16000   16000          296.36383      19.958014      21366.001      21329.795      8256.0019      13073.793      3520.6558      4934.2267      3798.0153      371.29119     -506.91305      8148.9218     -7192.4045     -879.1228       124390.06      49.918542      49.918542      49.918542      1.1817969     -287.43055      479.88577     -132.58119    
     16100   16100          298.20111     -669.15163      20185.251      21399.18       8307.1842      13091.996      3464.2169      5032.0321      3841.2467      372.08298     -583.07167      8158.8584     -7193.3694     -879.10799      124392.16      49.918823      49.918823      49.918823      1.181777      -1059.9992     -805.53389     -141.9218     
     16200   16200          301.83806     -363.0272       20920.697      21578.451      8408.5011      13169.95       3519.3907      4958.6369      3870.5629      380.54473     -491.9683       8127.9768     -7195.194      -880.21065      124236.33      49.897969      49.897969      49.897969      1.1832593     -838.94595     -930.00307      679.86743    
     16300   16300          303.82099      336.87903      22179.384      21568.73       8463.741       13104.989      3536.742       5079.5924      3753.012       378.39949     -600.11027      8148.2966     -7190.9428     -879.81299      124292.48      49.905486      49.905486      49.905486      1.1827247      233.85711     -117.24936      894.02934    
     16400   16400          300.98976      657.60784      22683.822      21493.384      8384.8695      13108.515      3568.2061      4940.222       3818.3183      386.30088     -562.24416      8150.5322     -7192.8204     -880.99069      124126.33      49.883238      49.883238      49.883238      1.1843079      878.65827      498.65148      595.51376    
     16500   16500          297.3279       925.41614      23063.165      21392.271      8282.8586      13109.413      3604.3398      5051.6639      3694.4089      377.23653     -580.46444      8152.9065     -7190.6786     -883.28189      123804.35      49.840069      49.840069      49.840069      1.1873879      330.59958      1517.0022      928.64666    
     16600   16600          298.78836      241.5309       21784.642      21349.72       8323.5436      13026.176      3502.3961      4980.355       3794.7388      378.97751     -572.41806      8136.2581     -7194.1311     -885.67059      123470.44      49.795222      49.795222      49.795222      1.190599       705.40008     -38.075151      57.267762    
     16700   16700          299.11961      174.35463      21672.66       21358.65       8332.7716      13025.879      3525.0701      4931.8169      3808.2606      362.59746     -559.17458      8150.8545     -7193.5464     -885.52652      123490.53      49.797922      49.797922      49.797922      1.1904053     -699.9985       894.19953      328.86285    
     16800   16800          298.74551      962.66416      23247.347      21510.381      8322.3499      13188.031      3546.4143      5151.1884      3718.7257      379.23445     -568.8105       8156.1706     -7194.8915     -883.88281      123720.18      49.828772      49.828772      49.828772      1.1881957     -675.52125      2400.6899      1162.8238    
     16900   16900          300.60739      11.107334      21599.278      21579.215      8374.2177      13204.997      3611.1628      5041.4586      3825.0428      379.15845     -612.16645      8154.7479     -7194.4071     -882.91746      123855.45      49.846925      49.846925      49.846925      1.186898      -1087.2517      921.07202      199.50169    
     17000   17000          299.8478       431.8258       22297.878      21517.815      8353.0572      13164.758      3487.0909      4997.2602      3897.311       383.28215     -565.64579      8157.9008     -7192.4412     -882.85671      123863.97      49.848069      49.848069      49.848069      1.1868163      392.56308     -81.118747      984.03306    
     17100   17100          300.60248     -591.44395      20310.318      21377.816      8374.0809      13003.735      3466.225       5009.0202      3793.0515      368.55245     -598.08493      8156.7693     -7191.7984     -883.60367      123759.26      49.834018      49.834018      49.834018      1.1878205     -361.48168     -1901.6741      488.82392    
     17200   17200          300.17699      244.82437      21785.217      21343.576      8362.2276      12981.348      3438.7427      5008.7054      3781.1429      367.80342     -564.43856      8142.8209     -7193.4285     -884.08971      123691.23      49.824884      49.824884      49.824884      1.1884738      300.66001      170.09313      263.71997    
     17300   17300          299.30936     -812.82111      19907.278      21374.779      8338.0576      13036.722      3465.0078      5072.0231      3834.5979      371.79966     -660.39333      8149.9953     -7196.3086     -883.3394       123796.29      49.838987      49.838987      49.838987      1.1874652     -838.60885     -1263.4759     -336.37862    
     17400   17400          301.57509     -134.49879      21156.797      21400.082      8401.1755      12998.906      3482.5753      4975.0064      3755.7306      368.61876     -530.42103      8141.0304     -7193.6343     -881.6868       124028.33      49.870107      49.870107      49.870107      1.1852436      198.56768     -1306.0066      703.94257    
     17500   17500          297.96706     -359.86507      20791.042      21443.504      8300.6641      13142.84       3412.0089      5073.5445      3811.079       367.50734     -482.31075      8152.6027     -7191.5913     -879.6206       124319.67      49.909124      49.909124      49.909124      1.1824661     -161.57143     -497.43026     -420.59352    
     17600   17600          300.96172     -1492.7258      18825.004      21536.696      8384.0883      13152.608      3489.6329      4995.2573      3900.31        377.78599     -577.5008       8160.1298     -7193.0074     -877.9115       124561.69      49.94149       49.94149       49.94149       1.1801685     -1124.662      -1387.2484     -1966.267     
     17700   17700          305.51037      164.8335       21874.759      21575.456      8510.8031      13064.653      3536.2846      5031.1026      3730.8156      370.01527     -559.51148      8150.209      -7194.2624     -878.30694      124505.61      49.933994      49.933994      49.933994      1.1807001      1212.2303     -696.77039     -20.959444    
     17800   17800          301.77891      1476.4868      24181.715      21502.334      8406.8534      13095.48       3618.9852      4965.6337      3678.578       377.08004     -490.60844      8143.6938     -7197.8822     -878.83249      124431.15      49.924038      49.924038      49.924038      1.1814066      2661.0661      973.30965      795.08453    
     17900   17900          297.70428      794.2269       22721.997      21282.48       8293.3437      12989.136      3539.4483      4903.9469      3744.5821      383.57494     -536.61816      8150.4791     -7196.2767     -879.91131      124278.59      49.903627      49.903627      49.903627      1.1828569      1082.581       666.2621       633.83757    
     18000   18000          300.17484      1062.5164      23236.26       21315.375      8362.1679      12953.207      3498.8916      4858.591       3797.3625      371.45485     -523.55472      8148.343      -7197.8812     -882.15575      123962.4       49.861268      49.861268      49.861268      1.185874       497.47312      1441.74        1248.3359    
     18100   18100          299.92946     -16.905643      21411.388      21441.902      8355.3322      13086.57       3477.2367      4986.6204      3866.733       378.01346     -561.11934      8137.7718     -7198.6858     -883.5789       123762.73      49.834484      49.834484      49.834484      1.1877872     -986.81507      939.12503     -3.0268937    
     18200   18200          303.50555     -412.57571      20800.053      21543.81       8454.9536      13088.857      3474.2001      5029.8633      3854.0472      380.58679     -601.28995      8147.4275     -7195.9782     -884.6748       123609.42      49.813898      49.813898      49.813898      1.1892604     -988.88829     -712.89495      464.05612    
     18300   18300          298.16823     -159.10932      21264.949      21551.617      8306.2683      13245.349      3580.2299      5033.7484      3882.3029      379.76027     -578.41798      8145.3545     -7197.6289     -885.1708       123540.16      49.804592      49.804592      49.804592      1.1899271      99.575657      34.713025     -611.61663    
     18400   18400          301.41654     -0.72212539     21428.809      21430.111      8396.7585      13033.352      3513.0471      5018.4908      3795.6085      362.51323     -604.75867      8145.9912     -7197.54       -884.73545      123600.95      49.812759      49.812759      49.812759      1.1893419      480.94178     -116.15137     -366.95679    
     18500   18500          297.21395      122.36871      21522.922      21302          8279.6844      13022.315      3499.5535      5014.4075      3779.2977      375.2539      -603.65678      8153.3317     -7195.8722     -883.36747      123792.36      49.838459      49.838459      49.838459      1.1875029      932.77715     -379.42595     -186.24508    
     18600   18600          300.04834     -496.68407      20426.192      21324.126      8358.6439      12965.482      3397.7884      5016.6186      3791.7959      373.85179     -574.23517      8152.8        -7193.1376     -882.15914      123961.92      49.861204      49.861204      49.861204      1.1858786     -515.63912     -644.63758     -329.77551    
     18700   18700          296.33436     -238.95141      20984.435      21417.002      8255.1811      13161.821      3535.9912      5089.8555      3752.5459      379.95068     -552.42521      8150.6454     -7194.7424     -880.98325      124127.38      49.883378      49.883378      49.883378      1.1842979     -257.79853     -339.25776     -119.79793    
     18800   18800          300.43667      577.24169      22519.106      21474.947      8369.4618      13105.485      3507.6943      4987.5398      3817.6015      384.15505     -528.5346       8132.7202     -7195.6916     -881.66157      124031.88      49.870582      49.870582      49.870582      1.1852097     -187.62888      894.97346      1024.3805    
     18900   18900          298.79053      461.01054      22316.286      21483.168      8323.6041      13159.564      3583.0165      4913.9343      3850.2215      389.6213      -526.35843      8145.5146     -7196.3857     -882.50189      123913.78      49.854748      49.854748      49.854748      1.1863393      393.68031      641.59793      347.7534     
     19000   19000          298.77625     -57.094586      21359.058      21462.255      8323.2063      13139.048      3499.1466      5018.7016      3859.2791      389.92001     -588.72204      8151.4781     -7190.755      -882.35056      123935.03      49.857598      49.857598      49.857598      1.1861359      362.76169     -869.14307      335.09762    
     19100   19100          292.54505     -426.64355      20572.644      21343.785      8149.6196      13194.166      3466.3         5047.9499      3882.9544      378.98576     -525.86952      8137.3123     -7193.4672     -882.35327      123934.65      49.857547      49.857547      49.857547      1.1861396     -186.95449     -697.60027     -395.37589    
     19200   19200          294.7525      -1008.4216      19405.314      21230.829      8211.1142      13019.715      3401.9907      4953.1503      3923.9342      389.63235     -607.40843      8149.1326     -7190.7171     -880.98376      124127.31      49.883369      49.883369      49.883369      1.1842985     -1915.4528     -942.09259     -167.71931    
     19300   19300          299.1261      -744.94038      19994.594      21344.723      8332.9522      13011.77       3449.1033      4987.4478      3888.7284      375.47427     -638.0929       8141.5973     -7192.4878     -879.94898      124273.27      49.902915      49.902915      49.902915      1.1829075     -845.55509     -402.64857     -986.61749    
     19400   19400          298.65229     -337.64792      20851.576      21463.396      8319.753       13143.643      3422.4123      5054.8414      3865.8098      386.93746     -524.63099      8136.5195     -7198.2463     -880.14005      124246.29      49.899303      49.899303      49.899303      1.1831644     -196.83984     -648.7083      -167.39561    
     19500   19500          297.54811      238.10165      21926.57       21495.218      8288.9931      13206.225      3598.6044      4943.179       3870.7995      387.31382     -540.86332      8145.5741     -7198.3829     -880.3213       124220.71      49.895879      49.895879      49.895879      1.183408       590.47604     -851.27485      975.10375    
     19600   19600          300.00549     -145.38752      21252.314      21515.698      8357.4501      13158.248      3469.4076      5084.1667      3895.1801      380.51093     -617.21671      8144.3786     -7198.179      -880.33596      124218.64      49.895601      49.895601      49.895601      1.1834277     -842.03784     -538.55851      944.43378    
     19700   19700          298.33398     -130.46197      21186.744      21422.806      8310.8856      13111.92       3483.1469      4977.6688      3838.5657      388.76703     -530.38252      8148.9708     -7194.8162     -881.39036      124070.04      49.875697      49.875697      49.875697      1.1848451      347.35508      364.74639     -1103.4874    
     19800   19800          296.16139      238.02945      21702.19       21271.702      8250.3624      13021.34       3471.6274      4962.796       3802.698       376.42392     -551.19626      8149.8597     -7190.869      -881.82101      124009.45      49.867577      49.867577      49.867577      1.185424       570.10365      1381.19       -1237.2053    
     19900   19900          297.75013      1068.8624      23271.004      21335.836      8294.6211      13041.215      3474.8082      5007.4891      3732.0052      380.59739     -505.37174      8144.5365     -7192.8493     -880.87513      124142.61      49.885419      49.885419      49.885419      1.1841525      1344.5444      1042.6977      819.34501    
     20000   20000          299.20131      254.61494      21907.805      21446.096      8335.0476      13111.048      3457.1832      4975.6611      3861.8024      381.12933     -523.24813      8150.2821     -7191.7617     -879.4817       124339.3       49.911751      49.911751      49.911751      1.1822793      957.15516      450.70701     -644.01735    
     20100   20100          298.63569      647.97972      22641.699      21465.434      8319.2906      13146.144      3516.616       5067.0931      3742.2569      382.57131     -506.48565      8136.431      -7192.3391     -878.55195      124470.89      49.929352      49.929352      49.929352      1.1810295      202.5337       516.29349      1225.112     
     20200   20200          301.20484     -379.05094      20786.01       21473.413      8390.8612      13082.551      3519.9429      4918.0558      3838.8958      379.9236      -527.74222      8148.5908     -7195.1153     -879.42216      124347.72      49.912878      49.912878      49.912878      1.1821993     -681.66405      129.26667     -584.75544    
     20300   20300          301.06793      114.14886      21716.376      21509.468      8387.0471      13122.421      3447.9583      5016.1252      3871.1365      392.34126     -544.23154      8136.1567     -7197.0656     -879.84475      124288         49.904885      49.904885      49.904885      1.1827674     -577.04624      861.38665      58.10619     
     20400   20400          299.72635     -45.906546      21429.265      21512.417      8349.674       13162.743      3545.5108      5038.6705      3808.9572      367.34276     -539.54663      8138.7099     -7196.9013     -880.46259      124200.78      49.893209      49.893209      49.893209      1.1835979     -11.416496     -101.82736     -24.47578     
     20500   20500          299.72015     -664.82487      20215.336      21419.27       8349.5013      13069.769      3444.0469      5029.4935      3884.9417      377.77957     -616.63901      8142.7608     -7192.6145     -880.67513      124170.81      49.889195      49.889195      49.889195      1.1838836     -632.46329     -170.3161      -1191.6952    
     20600   20600          292.72042     -241.58139      20882.132      21319.87       8154.5052      13165.365      3439.6408      5090.1063      3870.7489      383.92006     -568.0962       8142.853      -7193.8079     -880.15786      124243.78      49.898967      49.898967      49.898967      1.1831883      458.4636      -555.97504     -627.23274    
     20700   20700          294.98841     -727.05905      20040.5        21359.732      8217.686       13142.046      3462.3935      4980.5705      3917.5034      393.34472     -548.54164      8129.4902     -7192.7149     -878.94077      124415.82      49.921988      49.921988      49.921988      1.1815522     -1022.1171     -881.21762     -277.84238    
     20800   20800          302.83402      25.244502      21590.475      21544.593      8436.2464      13108.347      3447.5092      5020.0413      3833.8562      372.99398     -513.3545       8137.3398     -7190.0392     -877.48553      124622.16      49.94957       49.94957       49.94957       1.1795959      247.37022     -498.72617      327.08946    
     20900   20900          302.62801     -457.26083      20719.915      21552.453      8430.5072      13121.946      3583.4745      5006.4757      3733.3635      378.80471     -543.83423      8157.4685     -7193.8071     -875.93401      124842.9       49.979044      49.979044      49.979044      1.1775102      529.86635     -553.00649     -1348.6424    
     21000   21000          302.46629      762.94699      22880.399      21492.167      8426.0021      13066.165      3519.825       5053.6462      3662.5957      389.34702     -509.72205      8143.0481     -7192.5747     -876.48283      124764.73      49.96861       49.96861       49.96861       1.178248       1960.107      -625.81906      954.553      
     21100   21100          300.92256      397.8583       22119.617      21397.549      8382.9974      13014.552      3524.7787      4934.4306      3783.5595      379.20833     -561.85117      8148.2798     -7193.8536     -878.7425       124443.9       49.925743      49.925743      49.925743      1.1812856      496.71014     -633.92681      1330.7916    
     21200   21200          300.39812     -41.858139      21240.622      21316.345      8368.3878      12947.957      3467.8258      4886.8835      3824.2474      381.08111     -564.67345      8146.3112     -7193.7183     -881.58321      124042.9       49.87206       49.87206       49.87206       1.1851044     -112.44261     -1164.671       1151.5392    
[...]
    495200   495200         298.84645     -345.28201      20810.251      21434.402      8325.1619      13109.24       3507.0714      5059.7034      3792.4917      368.23408     -566.91616      8145.1538     -7196.4984     -882.25765      123948.08      49.859348      49.859348      49.859348      1.186011       531.57662      118.13829     -1685.5609    
    495300   495300         302.4231       378.30851      22129.982      21445.132      8424.7989      13020.333      3520.359       4999.8508      3703.1066      365.9074      -542.60682      8166.8429     -7193.1269     -880.97137      124129.05      49.883603      49.883603      49.883603      1.1842819      1500.8435      227.28373     -593.20167    
    495400   495400         303.04131     -784.11881      20001.838      21423.476      8442.0208      12981.455      3503.5218      4944.2131      3781.3211      375.57269     -573.74599      8146.5912     -7196.0191     -879.63852      124317.13      49.908785      49.908785      49.908785      1.1824902     -999.47138     -849.44561     -503.43946    
    495500   495500         297.0346       606.76759      22450.639      21351.197      8274.688       13076.509      3573.584       5044.0843      3683.1542      368.23984     -552.85023      8153.2331     -7192.9366     -880.15877      124243.65      49.89895       49.89895       49.89895       1.1831895      567.70955      720.90781      531.68542    
    495600   495600         296.43049      515.46567      22192.862      21260.22       8257.859       13002.361      3437.8621      5029.4337      3750.0923      375.45798     -542.65646      8147.4966     -7195.3254     -881.446        124062.21      49.874648      49.874648      49.874648      1.1849199      219.28054      203.67373      1123.4428    
    495700   495700         298.57223     -915.4052       19690.395      21345.825      8317.5228      13028.302      3498.0897      5030.4225      3754.7657      371.64862     -572.96562      8143.7187     -7197.3774     -881.88819      124000.01      49.86631       49.86631       49.86631       1.1855144     -193.51707     -1280.0426     -1272.6559    
    495800   495800         302.29004     -221.01777      21086.027      21484.842      8421.0922      13063.749      3513.614       5017.5884      3779.7796      368.84231     -560.17691      8140.9441     -7196.8419     -883.8269       123728.01      49.829822      49.829822      49.829822      1.1881205      555.95114     -1224.5009      5.4964643    
    495900   495900         298.02055     -343.53874      20877.946      21497.52       8302.1542      13195.365      3455.8421      5113.7361      3853.6994      385.83411     -560.6437       8143.724      -7196.8266     -884.28873      123663.39      49.821146      49.821146      49.821146      1.1887414     -76.722042     -1093.103       139.20887    
    496000   496000         300.90381      56.117514      21569.171      21467.852      8382.4753      13085.377      3525.4844      5100.0339      3728.8889      371.07452     -587.64703      8145.2212     -7197.6792     -883.31936      123799.1       49.839364      49.839364      49.839364      1.1874383     -519.63932     -149.76754      837.7594     
    496100   496100         300.77928     -353.02267      20744.773      21383.255      8379.0061      13004.249      3455.4908      4951.9678      3833.0739      378.81065     -564.1895       8146.0834     -7196.9876     -881.78965      124013.86      49.868168      49.868168      49.868168      1.1853819     -732.57357      325.19813     -651.69258    
    496200   496200         299.88931     -619.8923       20165.139      21289.287      8354.2135      12935.073      3450.9338      4976.4177      3819.392       366.77085     -625.60527      8144.8446     -7197.6807     -879.43571      124345.8       49.912621      49.912621      49.912621      1.1822175     -1041.933       369.08696     -1186.8309    
    496300   496300         295.81559      191.70572      21658.429      21310.668      8240.7293      13069.939      3558.9809      4999.8558      3715.1674      363.5416      -517.45389      8147.2373     -7197.3902     -879.15474      124385.54      49.917938      49.917938      49.917938      1.1818398     -397.03428      677.73784      294.4136     
    496400   496400         299.90998     -695.43211      20221.859      21484.299      8354.7895      13129.51       3497.3835      5037.5861      3836.8178      381.29741     -561.76075      8135.3376     -7197.1521     -878.52661      124474.48      49.929832      49.929832      49.929832      1.1809954      277.76642     -969.91596     -1394.1468    
    496500   496500         300.23199      936.32352      23256.218      21559.146      8363.7597      13195.386      3617.6917      5106.2415      3710.7666      384.94514     -590.02783      8160.0665     -7194.2973     -879.90707      124279.19      49.903707      49.903707      49.903707      1.1828512      997.77042      619.89117      1191.309     
    496600   496600         302.22931      310.6291       22091.25       21528.681      8419.4004      13109.28       3519.1474      4984.2165      3778.6651      382.32736     -504.08794      8143.3752     -7194.3635     -880.59619      124181.94      49.890686      49.890686      49.890686      1.1837775      851.36385      409.24177     -328.71832    
    496700   496700         300.445        532.75235      22387.492      21423.751      8369.6939      13054.057      3540.1697      4978.0509      3724.4425      378.26021     -537.57164      8162.9941     -7192.2891     -881.60846      124039.35      49.871584      49.871584      49.871584      1.1851383     -196.84125      1175.8869      619.21145    
    496800   496800         297.71101     -807.1486       19882.526      21342.604      8293.5311      13049.073      3455.6775      5002.4751      3840.3961      374.31037     -574.38521      8146.3682     -7195.7692     -881.63446      124035.69      49.871094      49.871094      49.871094      1.1851733     -390.48174     -1612.4673     -418.49675    
    496900   496900         296.49645      235.17697      21676.843      21251.901      8259.6965      12992.204      3445.3889      4976.9155      3766.6877      384.49288     -535.93686      8149.7836     -7195.1275     -882.62372      123896.67      49.852455      49.852455      49.852455      1.1865031      412.25916      265.2791       27.992663    
    497000   497000         294.42069      553.40705      22174.952      21174.026      8201.8708      12972.155      3514.4292      4976.136       3672.3076      368.34276     -508.28407      8147.6055     -7198.382      -881.76687      124017.07      49.868597      49.868597      49.868597      1.1853513      1053.5726     -10.473352      617.12193    
    497100   497100         300.42024     -500.72134      20423.776      21329.503      8369.0041      12960.499      3426.8627      4995.1602      3799.0669      372.78553     -588.7644       8154.6173     -7199.2288     -881.67707      124029.7       49.87029       49.87029       49.87029       1.1852306     -632.74748      165.08488     -1034.5014    
    497200   497200         298.90816      487.79235      22340.42       21459.045      8326.8811      13132.164      3536.0722      5063.2919      3731.6287      386.62678     -535.73835      8149.2864     -7199.0033     -882.64427      123893.79      49.852068      49.852068      49.852068      1.1865307      223.65781      740.68492      499.03434    
    497300   497300         298.61161     -939.24065      19805.014      21502.634      8318.6198      13184.014      3494.3623      5084.308       3854.7386      375.56984     -562.58577      8135.2332     -7197.6125     -882.36372      123933.18      49.85735       49.85735       49.85735       1.1861536     -405.62116     -1914.7251     -497.37564    
    497400   497400         300.03543     -60.687144      21363.231      21472.94       8358.2842      13114.656      3579.4743      5037.8517      3780.3398      378.70438     -612.42783      8146.9276     -7196.2139     -882.19604      123956.73      49.860509      49.860509      49.860509      1.1859282     -156.54773     -349.80849      324.29479    
    497500   497500         297.06656      942.66147      23028.404      21322.891      8275.5784      13047.313      3532.247       4969.4923      3726.2099      383.17416     -491.84871      8127.5034     -7199.4653     -881.47871      124057.61      49.874031      49.874031      49.874031      1.1849639      988.77757      1144.9082      694.29862    
    497600   497600         295.16092     -255.01788      20794.607      21256.494      8222.4918      13034.002      3500.0267      5034.6645      3716.8915      376.57269     -529.10521      8130.8857     -7195.934      -880.5351       124190.55      49.89184       49.89184       49.89184       1.1836954      488.34542     -1870.9288      617.52976    
    497700   497700         296.53549     -46.99037       21281.898      21366.987      8260.7841      13106.203      3512.1311      5061.1273      3780.8988      375.89844     -578.16063      8148.6096     -7194.302      -880.74365      124161.15      49.887902      49.887902      49.887902      1.1839758     -493.88695      553.56864     -200.6528     
    497800   497800         300.10136      136.04762      21683.387      21437.023      8360.1207      13076.903      3487.0356      5081.3225      3722.0053      375.34628     -537.32067      8145.3048     -7196.7911     -880.69612      124167.85      49.888799      49.888799      49.888799      1.1839119      544.71423     -50.748029     -85.823342    
    497900   497900         296.44348      691.67742      22724.429      21473.834      8258.2209      13215.613      3581.9724      5040.1371      3783.7746      386.52089     -526.3678       8147.8851     -7198.3089     -882.05987      123975.87      49.863075      49.863075      49.863075      1.1857451      154.7927       1346.6906      573.54894    
    498000   498000         301.15303      766.94153      22895.118      21508.941      8389.4178      13119.523      3573.2842      5036.2888      3741.5096      366.64561     -553.39899      8150.7531     -7195.5595     -882.37765      123931.22      49.857088      49.857088      49.857088      1.1861723      530.35467      1809.2036     -38.733643    
    498100   498100         301.58598      892.18308      23067.603      21457.7        8401.4788      13056.221      3533.2652      5022.3911      3715.6332      371.29534     -535.54646      8146.9315     -7197.7485     -883.82334      123728.51      49.829889      49.829889      49.829889      1.1881158      640.67479      1576.0464      459.82801    
    498200   498200         297.18921     -418.82826      20539.598      21295.455      8278.9951      13016.46       3515.9394      4969.1866      3809.0087      366.78754     -590.42968      8142.6164     -7196.6489     -883.70464      123745.12      49.83212       49.83212       49.83212       1.1879562     -283.11762     -769.04599     -204.32117    
    498300   498300         300.88087      72.231078      21389.528      21259.275      8381.8362      12877.439      3445.536       4962.333       3759.1908      355.31554     -592.54309      8143.6399     -7196.0335     -884.39462      123648.58      49.819157      49.819157      49.819157      1.1888837     -608.63157      716.76187      108.56293    
    498400   498400         297.29232      404.6369       22089.734      21360.789      8281.8675      13078.922      3465.6831      4973.235       3813.8734      382.59878     -507.09114      8146.3715     -7195.7487     -885.28251      123524.57      49.802497      49.802497      49.802497      1.1900773      551.05365      469.27418      193.58285    
    498500   498500         298.61459      47.432006      21552.233      21466.77       8318.7029      13148.068      3492.0393      5001.1605      3857.7691      376.15075     -523.88013      8141.7601     -7196.932      -885.13395      123545.3       49.805283      49.805283      49.805283      1.1898776      505.25777     -892.59127      529.62953    
    498600   498600         302.34479      950.40362      23200.709      21487.249      8422.6174      13064.631      3529.8743      5054.8869      3705.8546      373.89952     -546.74573      8143.7505     -7196.889      -884.59652      123620.36      49.815367      49.815367      49.815367      1.1891551      988.3769      -278.24073      2141.0747    
    498700   498700         303.99958     -911.76927      19802.926      21451.99       8468.7161      12983.274      3456.0703      4909.8595      3843.1228      379.74464     -551.8891       8143.3083     -7196.9424     -881.77675      124015.68      49.868411      49.868411      49.868411      1.1853645     -918.78391     -1556.2414     -260.28254    
    498800   498800         296.59245      625.6496       22483.964      21349.59       8262.3707      13087.22       3541.82        5007.6992      3759.9523      377.48462     -557.52048      8153.1075     -7195.3236     -879.60204      124322.29      49.909475      49.909475      49.909475      1.1824411      928.19455      779.35311      169.40114    
    498900   498900         297.33289     -93.085359      21120.81       21289.871      8282.9977      13006.873      3485.1657      4982.3238      3749.8302      373.80522     -532.37573      8142.6001     -7194.476      -878.11218      124533.22      49.937685      49.937685      49.937685      1.1804383     -748.08579     -9.3215703      478.15128    
    499000   499000         297.7324      -138.23107      21128.224      21379.262      8294.1271      13085.135      3524.0012      5009.6005      3777.2668      384.9178      -570.75606      8155.49       -7195.3853     -878.16769      124525.35      49.936633      49.936633      49.936633      1.1805129      239.06828     -377.32502     -276.43648    
    499100   499100         304.27976      511.23926      22481.103      21554.644      8476.5213      13078.123      3548.3198      4965.8249      3759.7876      377.5609      -514.07358      8137.1324     -7196.4291     -880.05351      124258.51      49.900939      49.900939      49.900939      1.183048       201.35186      895.78494      436.58098    
    499200   499200         303.63673      278.3112       22090.591      21586.957      8458.608       13128.349      3539.0719      5044.1978      3742.7275      373.11948     -515.59212      8141.8343     -7197.0099     -881.3054       124082         49.8773        49.8773        49.8773        1.1847309     -762.30851      696.08115      901.16095    
    499300   499300         300.31947      53.953339      21587.096      21489.562      8366.1968      13123.365      3505.0962      4976.0659      3848.3223      375.7476      -534.98274      8150.0714     -7196.9556     -882.20977      123954.8       49.86025       49.86025       49.86025       1.1859467      226.45473      502.64884     -567.24355    
    499400   499400         299.01623     -107.75598      21179.213      21373.982      8329.8916      13044.09       3477.4781      4970.496       3776.6228      369.90529     -489.02064      8135.6816     -7197.0732     -882.33374      123937.39      49.857915      49.857915      49.857915      1.1861133     -470.19038     -123.27527      270.19772    
    499500   499500         301.27001     -291.13122      20840.416      21366.984      8392.6765      12974.307      3423.3438      5030.0542      3799.9611      377.22261     -601.55222      8141.6013     -7196.3235     -881.75032      124019.39      49.868909      49.868909      49.868909      1.185329      -637.01038      375.02603     -611.40929    
    499600   499600         298.91578      364.36396      22061.996      21403.083      8327.0932      13075.99       3521.8854      4998.4753      3749.7388      371.08664     -516.12907      8147.4846     -7196.5521     -881.89769      123998.67      49.866131      49.866131      49.866131      1.1855271      630.76595      902.21982     -439.89391    
    499700   499700         297.27656     -565.90038      20415.722      21440.283      8281.4286      13158.854      3540.4288      5008.3235      3860.1716      379.14982     -576.99756      8143.5436     -7195.7657     -880.87347      124142.85      49.885451      49.885451      49.885451      1.1841503     -606.59974     -796.51899     -294.58242    
    499800   499800         301.1213       593.73575      22526.699      21452.138      8388.5338      13063.604      3527.9995      5029.9176      3688.751       384.60971     -524.94728      8152.1294     -7194.8561     -881.19758      124097.19      49.879334      49.879334      49.879334      1.184586       501.77054     -187.38871      1466.8254    
    499900   499900         301.73271     -508.35286      20524.604      21443.798      8405.5662      13038.232      3462.1218      5032.9385      3815.7212      379.49808     -592.32398      8136.8257     -7196.5492     -882.00058      123984.2       49.864192      49.864192      49.864192      1.1856654     -462.11655     -374.73985     -688.20216    
    500000   500000         297.25095     -30.542468      21310.06       21365.168      8280.7151      13084.453      3529.0095      5041.1514      3782.5685      368.50953     -584.69066      8140.9134     -7193.009      -883.90545      123717.01      49.828346      49.828346      49.828346      1.1882261      790.39353     -1379.3648      497.3439     
Loop time of 2808.04 on 1 procs for 500000 steps with 10820 atoms

Performance: 15.384 ns/day, 1.560 hours/ns, 178.060 timesteps/s, 1.927 Matom-step/s
100.0% CPU use with 1 MPI tasks x 1 OpenMP threads

MPI task timing breakdown:
Section |  min time  |  avg time  |  max time  |%varavg| %total
---------------------------------------------------------------
Pair    | 1358.8     | 1358.8     | 1358.8     |   0.0 | 48.39
Bond    | 387.53     | 387.53     | 387.53     |   0.0 | 13.80
Kspace  | 508.61     | 508.61     | 508.61     |   0.0 | 18.11
Neigh   | 135.01     | 135.01     | 135.01     |   0.0 |  4.81
Comm    | 18.269     | 18.269     | 18.269     |   0.0 |  0.65
Output  | 13.136     | 13.136     | 13.136     |   0.0 |  0.47
Modify  | 282.5      | 282.5      | 282.5      |   0.0 | 10.06
Other   |            | 104.2      |            |       |  3.71

Nlocal:          10820 ave       10820 max       10820 min
Histogram: 1 0 0 0 0 0 0 0 0 0
Nghost:          22892 ave       22892 max       22892 min
Histogram: 1 0 0 0 0 0 0 0 0 0
Neighs:              0 ave           0 max           0 min
Histogram: 1 0 0 0 0 0 0 0 0 0
FullNghs:  6.01773e+06 ave 6.01773e+06 max 6.01773e+06 min
Histogram: 1 0 0 0 0 0 0 0 0 0

Total # of neighbors = 6017726
Ave neighs/atom = 556.16691
Ave special neighs/atom = 5.7689464
Neighbor list builds = 16504
Dangerous builds = 0

# --- Cleanup ---
unfix npt_fix
unfix shake_fix
undump dump_npt

# --- Write Output ---
write_dump all custom /home/arz2/PolyJarvis/data/PSU2/lammps/mechanical/bm_series/bm_P0/bm_P0_last.dump id type mol x y z xu yu zu vx vy vz modify sort id
write_data /home/arz2/PolyJarvis/data/PSU2/lammps/mechanical/bm_series/bm_P0/bm_P0_out.data
System init for write_data ...
PPPM Kokkos initialization ...
  using 12-bit tables for long-range coulomb
  G vector (1/distance) = 0.30208338
  grid = 36 36 36
  stencil order = 5
  estimated absolute RMS force accuracy = 0.00028865991
  estimated relative force accuracy = 8.6929073e-07
  using double precision cuFFT
  3d grid and FFT values/proc = 79507 46656
Generated 28 of 28 mixed pair_coeff terms from sixthpower/sixthpower mixing rule

print "STAGE COMPLETE: NPT T=300.0->300.0K P=0.0->0.0atm steps=500000"
STAGE COMPLETE: NPT T=300.0->300.0K P=0.0->0.0atm steps=500000
quit
