LAMMPS data file via write_data, version 22 Jul 2025, timestep = 500000, units = real

4096 atoms
7 atom types
4448 bonds
7 bond types
7080 angles
9 angle types
10544 dihedrals
13 dihedral types
2280 impropers
5 improper types

3.1072688245285605 41.21758697546395 xlo xhi
3.1072688245285605 41.21758697546395 ylo yhi
3.1072688245285605 41.21758697546395 zlo zhi

Masses

1 12.01115
2 12.01115
3 1.00797
4 1.00797
5 15.9994
6 15.9994
7 15.9994

Pair Coeffs # lj/class2/coul/long/gpu

1 0.12 3.308
2 0.064 4.01
3 0.02 2.995
4 0.013 1.098
5 0.267 3.3
6 0.24 3.535
7 0.24 3.535

Bond Coeffs # class2

1 1.489 339.357 -655.724 670.236
2 1.216 823.795 -1878.79 2303.53
3 1.417 470.836 -627.618 1327.63
4 1.0982 372.825 -803.453 894.317
5 1.3768 428.88 -738.235 1114.97
6 1.3768 428.88 -738.235 1114.97
7 0.965 532.506 -1282.9 2004.77

Angle Coeffs # class2

1 108.4 43.9594 -8.3924 -9.3379
2 110.588 34.6214 -7.0939 -7.4032
3 119.3 65.1016 -17.9766 0
4 118.9 61.0226 -34.9931 0
5 117.94 35.1558 -12.4682 0
6 123.42 73.6781 -21.6787 0
7 123.42 73.6781 -21.6787 0
8 109.5 60 0 0
9 108.19 53.125 -8.5016 0

BondBond Coeffs

1 0 1.489 1.417
2 0 1.489 1.489
3 0 1.489 1.216
4 68.2856 1.417 1.417
5 1.0795 1.417 1.0982
6 48.4754 1.417 1.3768
7 48.4754 1.417 1.3768
8 0 1.3768 1.3768
9 20.6577 1.3768 0.965

BondAngle Coeffs

1 0 0 1.489 1.417
2 0 0 1.489 1.489
3 0 0 1.489 1.216
4 28.8708 28.8708 1.417 1.417
5 20.0033 24.2183 1.417 1.0982
6 58.479 107.681 1.417 1.3768
7 58.479 107.681 1.417 1.3768
8 0 0 1.3768 1.3768
9 53.8614 23.9224 1.3768 0.965

Dihedral Coeffs # class2

1 0 0 4.6282 0 0 0
2 0 0 2.167 0 0 0
3 0 0 2.5 0 0 0
4 0 0 0.9063 0 0 0
5 8.3667 0 1.1932 0 0 0
6 0 0 3.9661 0 0 0
7 0 0 4.8498 0 0 0
8 0 0 4.8498 0 0 0
9 0 0 1.8 0 0 0
10 -0.69 0 0.5097 0 0.0095 0
11 0 0 1.8769 0 0 0
12 0 0 1.7234 0 0 0
13 0 0 1.7234 0 0 0

AngleAngleTorsion Coeffs

1 0 108.4 118.9
2 0 108.4 117.94
3 0 110.588 108.4
4 0 108.4 119.3
5 0 118.9 118.9
6 -4.8141 118.9 117.94
7 -21.0247 118.9 123.42
8 -21.0247 118.9 123.42
9 0 123.42 109.5
10 -4.6072 123.42 108.19
11 0.3598 117.94 117.94
12 4.2296 117.94 123.42
13 4.2296 117.94 123.42

EndBondTorsion Coeffs

1 0 0 0 0 0 0 1.489 1.417
2 0 0 0 0 0 0 1.489 1.0982
3 0 0 0 0 0 0 1.489 1.417
4 0 0 0 0 0 0 1.417 1.216
5 -0.1185 6.3204 0 -0.1185 6.3204 0 1.417 1.417
6 0 -6.8958 0 0 -0.4669 0 1.417 1.0982
7 0 0.2655 0 0 4.8905 0 1.417 1.3768
8 0 0.2655 0 0 4.8905 0 1.417 1.3768
9 0 0 0 0 0 0 1.417 1.3768
10 0.9 -1.3456 1.19 3.4132 0.5873 -0.1323 1.417 0.965
11 0 -0.689 0 0 -0.689 0 1.0982 1.0982
12 0 -1.5867 0 0 4.2641 0 1.0982 1.3768
13 0 -1.5867 0 0 4.2641 0 1.0982 1.3768

MiddleBondTorsion Coeffs

1 0 0 0 1.417
2 0 0 0 1.417
3 0 0 0 1.489
4 0 0 0 1.489
5 27.5989 -2.312 0 1.417
6 0 -1.1521 0 1.417
7 0 4.8255 0 1.417
8 0 4.8255 0 1.417
9 0 0 0 1.3768
10 1.158 3.2697 3.5132 1.3768
11 0 4.8228 0 1.417
12 0 5.5432 0 1.417
13 0 5.5432 0 1.417

BondBond13 Coeffs

1 0 1.489 1.417
2 0 1.489 1.0982
3 0 1.489 1.417
4 0 1.417 1.216
5 53 1.417 1.417
6 -6.2741 1.417 1.0982
7 -2.2436 1.417 1.3768
8 -2.2436 1.417 1.3768
9 0 1.417 1.3768
10 1.159 1.417 0.965
11 -1.7077 1.0982 1.0982
12 2.0517 1.0982 1.3768
13 2.0517 1.0982 1.3768

AngleTorsion Coeffs

1 0 0 0 0 0 0 108.4 118.9
2 0 0 0 0 0 0 108.4 117.94
3 0 0 0 0 0 0 110.588 108.4
4 0 0 0 0 0 0 108.4 119.3
5 1.9767 1.0239 0 1.9767 1.0239 0 118.9 118.9
6 0 2.5014 0 0 2.7147 0 118.9 117.94
7 0 10.0155 0 0 1.7404 0 118.9 123.42
8 0 10.0155 0 0 1.7404 0 118.9 123.42
9 0 0 0 0 0 0 123.42 109.5
10 -5.136 -1.0122 0 4.6852 0.023 -0.598 123.42 108.19
11 0 2.4501 0 0 2.4501 0 117.94 117.94
12 0 1.8729 0 0 2.5706 0 117.94 123.42
13 0 1.8729 0 0 2.5706 0 117.94 123.42

Improper Coeffs # class2

1 38.7949 0
2 0 0
3 4.8912 0
4 13.0421 0
5 13.0421 0

AngleAngle Coeffs

1 0 0 0 110.588 119.3 119.3
2 0 0 0 108.4 108.4 118.9
3 0 0 0 118.9 117.94 117.94
4 0 0 0 118.9 123.42 123.42
5 0 0 0 118.9 123.42 123.42

Atoms # full

1140 3 2 0 7.7436101421767995 4.149618752580602 8.782509461982727 0 1 0
1141 3 1 0.3964 7.488007793831821 4.431686477204412 7.278460234003303 0 1 0
1143 3 2 0 6.906052503482217 5.604543882027144 6.601057889900773 0 1 0
1151 3 2 -0.1268 6.133038027756928 6.4707064894479895 7.347860543612901 0 1 0
1152 3 3 0.1268 5.9382339367619466 6.319344841183694 8.38491751769966 0 1 0
1149 3 2 -0.1268 5.663592053524528 7.664241278976205 6.823775813226858 0 1 0
1144 3 2 -0.1268 6.845493699186823 5.7499602737144695 5.235111676221861 0 1 0
1148 3 2 0.0265 5.675674692103755 7.883881068188169 5.433669616053093 0 1 0
1150 3 3 0.1268 5.270475679058357 8.44581172735083 7.536381503287212 0 1 0
3961 8 2 -0.1268 10.103768966177151 7.919136857634916 5.278277774071899 0 2 1
3963 8 2 -0.1268 9.335963556820541 8.25069261459623 6.3116424839559215 0 2 1
3964 8 3 0.1268 8.932217728311725 7.362115992037412 6.771032907170387 0 2 1
1146 3 2 -0.1268 6.404876621375621 6.970198509402819 4.6589752468728385 0 1 0
1145 3 3 0.1268 7.546638937731831 5.172896265039267 4.523961465443208 0 1 0
3962 8 3 0.1268 10.218619752970346 6.855596978938778 4.997228972079805 0 2 1
1147 3 3 0.1268 6.422400943406984 7.304445576256131 3.4976120799220443 0 1 0
1162 3 2 0.0265 4.807857240003465 9.30631323672565 3.7292788123705427 0 1 0
3960 8 2 0.0265 10.710490829695392 9.02488353527508 4.53839934353042 0 2 1
3950 8 3 0.1268 14.832072982614834 6.51357827664023 5.588154139095074 0 2 1
3948 8 3 0.1268 12.951945987978835 7.885427807060945 5.520468428493421 0 2 1
3949 8 2 -0.1268 14.222165363327942 6.5928478825198855 4.661118133339769 0 2 1
3941 8 2 0 14.647909052161744 5.887973965625791 3.632268450821038 0 2 1
3947 8 2 -0.1268 13.121506649024017 7.445074417418919 4.5887753571176795 0 2 1
3946 8 2 0.0265 12.431798248508123 7.72089196906948 3.4783942718897265 0 2 1
3959 8 6 -0.053 11.529150949165693 8.73899952380677 3.3847017092417593 0 2 1
2722 6 3 0.1268 23.160416813714804 23.59466357476566 3.680873863492266 -1 0 0
1194 3 3 0.1268 3.1503409970803204 8.036785631584465 3.8680358884574852 0 1 0
599 2 3 0.1268 39.82819436642546 21.41739404787374 4.063085194599257 -1 -1 1
1462 3 3 0.1268 14.313625661040705 4.824792914102439 7.604605235501444 0 2 0
911 2 2 -0.1268 39.83896274281841 33.92960220656104 3.561454873730892 -1 -2 1
2056 5 6 -0.053 17.127600634058783 5.622649329660433 7.239542794741317 0 1 1
2055 5 2 0.0265 17.883621153479623 6.5812689644032885 6.725549193811284 0 1 1
2051 5 2 -0.1268 19.091387047651672 8.690607302678195 6.755535940517458 0 1 1
2053 5 2 -0.1268 18.018199548380792 7.922017044700253 7.125837634689794 0 1 1
2050 5 2 0.0265 20.173483787294916 8.149947933953516 5.977419051164179 0 1 1
4022 8 3 0.1268 35.199711584057454 8.770209106744588 3.2087746686520657 -1 2 1
17 1 2 0 35.292981333901864 18.44026947286964 3.3167567553803483 0 0 0
3939 8 1 0.3964 15.949955653695291 5.294250354827055 3.583280064169763 0 2 1
507 1 2 -0.1268 13.424701057947273 28.022419335121576 4.185200401048064 -1 -2 1
3940 8 5 -0.3964 16.110270722713935 4.081577344802522 3.8023340212412444 0 2 1
2059 5 3 0.1268 15.441751066593365 7.512761031817096 8.231006383970747 0 1 1
904 2 2 -0.1268 38.0063287976743 35.37356733053304 4.266206430984458 -1 -2 1
2079 5 2 -0.1268 18.69939420811961 6.215666161357682 5.582092181417719 0 1 1
2080 5 3 0.1268 18.558503868238336 5.142213433977512 5.130878554347515 0 1 1
2081 5 2 -0.1268 19.870075850120767 6.94465758548561 5.252538740852959 0 1 1
2082 5 3 0.1268 20.673914569382017 6.29129188847047 4.849746901706683 0 1 1
2505 5 1 0.3964 22.830256690299258 4.820079908356104 7.554641956707012 -1 1 1
2507 5 2 0 23.37726189598174 5.983169097219095 8.317313418219285 -1 1 1
2508 5 2 -0.1268 24.462626282498523 6.82155311861937 7.720405130862587 -1 1 1
2509 5 3 0.1268 24.66622321773211 6.606923429805647 6.599556504017272 -1 1 1
2510 5 2 -0.1268 25.03356494222892 7.84187507547313 8.378169651889433 -1 1 1
2511 5 3 0.1268 25.74153394184919 8.510889332515688 7.978738535604451 -1 1 1
2502 5 2 -0.1268 24.527296439453337 4.585874788488571 5.609297188521758 -1 1 1
2503 5 3 0.1268 25.433575237763208 4.741718202618471 6.160260568761926 -1 1 1
1237 3 2 0.0265 38.48964000073519 39.83522511196226 15.569334289079823 -1 0 -1
2504 5 2 0 23.255709128903902 4.322676072623371 6.159467486190271 -1 1 1
2500 5 2 -0.1268 24.76798107296831 4.417393478644014 4.2785944824677316 -1 1 1
2358 5 3 0.1268 28.34957489643387 5.749386716792108 7.352590138266209 -1 0 1
2357 5 2 -0.1268 28.351420685350927 4.603932528059254 7.295922101944429 -1 0 1
2355 5 6 -0.053 29.930754483357532 4.766599589130042 5.46406783662257 -1 0 1
2342 5 2 0.0265 30.23016401365252 4.143252835858096 4.277618835641226 -1 0 1
2356 5 2 0.0265 29.06521585540314 3.9973506870020916 6.305495643606862 -1 0 1
2343 5 2 -0.1268 29.126064894737166 3.439578539334641 3.6535248003453322 -1 0 1
2387 5 2 -0.1268 29.082092026410304 40.72835381241955 6.252063901419071 -1 -1 1
3444 7 3 0.1268 29.023224097267917 8.451469665788478 9.633374590010412 1 0 0
2768 6 3 0.1268 36.58844518480444 25.58581505332294 3.6871204281220047 -1 0 0
2344 5 3 0.1268 28.071594336425992 3.415772511182591 4.069428661639229 -1 0 1
2340 5 2 -0.1268 31.508110962860645 4.103961880044325 3.7099262704701075 -1 0 1
2341 5 3 0.1268 32.50028955588161 4.2860132256892545 4.2471433624528085 -1 0 1
3166 7 3 0.1268 35.51093732716529 10.15082408152432 7.773279864931521 0 0 0
3165 7 2 -0.1268 36.3599689264775 9.757812368038582 8.274930913966024 0 0 0
3163 7 2 -0.1268 36.42748929681082 9.973832640018014 9.611080563653097 0 0 0
3155 7 1 0.3964 37.19632464250009 8.803142599357528 6.238638800544129 0 0 0
3157 7 2 0 37.46795312815135 9.432805752592664 7.506330588372762 0 0 0
3156 7 5 -0.3964 36.437856858157346 9.204786974119866 5.47348452972583 0 0 0
3158 7 2 -0.1268 38.73861846277435 9.361201536451828 8.22261476137424 0 0 0
3154 7 2 0 38.034836132152385 7.68997656523176 5.7319478495981215 0 0 0
488 1 2 -0.1268 9.023151409863182 27.8407900889236 3.487329617887961 -1 -2 1
2142 5 3 0.1268 35.54664809979576 5.492848136892532 6.3419237526601435 0 1 1
1161 3 6 -0.053 5.133894886439435 9.073709271809403 5.030383438985748 0 1 0
2719 6 2 -0.1268 23.914375644755548 25.41669693320077 4.427325347824648 -1 0 0
3167 7 2 -0.1268 38.678079042181395 6.9519889821732015 6.669848467070386 0 0 0
3152 7 2 -0.1268 38.21952348030723 7.319273518985878 4.33009603875458 0 0 0
3159 7 3 0.1268 39.58612811088549 9.19077652983103 7.452196751163194 0 0 0
3168 7 3 0.1268 38.5179440931915 6.704199881088745 7.730700114116905 0 0 0
484 1 6 -0.053 12.051551344425885 29.892140590098958 3.4824758339542714 -1 -2 1
499 1 2 -0.1268 6.802796818009535 23.990267737460996 3.7201037499621203 -1 -2 1
3169 7 2 -0.1268 39.6509657758724 5.984281414917623 6.314634441316386 0 0 0
3149 7 2 0.0265 40.03704550310031 5.797272150903348 5.061435899040696 0 0 0
380 1 3 0.1268 3.283466251582798 6.90639663860248 8.895577157020524 0 -1 1
3968 8 2 -0.1268 6.907480689395464 11.062532280531592 6.47270010150717 0 2 1
3967 8 2 0.0265 7.62819817598173 10.93019263617147 7.657737920130982 0 2 1
3970 8 2 -0.1268 5.792502529492941 11.856284044299105 6.3168365763635865 0 2 1
3972 8 2 0 5.487349252234496 12.70257566580082 7.421761927210654 0 2 1
3971 8 3 0.1268 5.3523804742800625 11.967509663850382 5.366204116633598 0 2 1
3969 8 3 0.1268 7.011776371203371 10.436109478951995 5.488460352109649 0 2 1
3966 8 6 -0.053 8.664412844392594 10.047825165582417 7.849993652679711 0 2 1
3989 8 2 -0.1268 9.918682431363834 10.664025264445199 5.944609979345685 0 2 1
3990 8 3 0.1268 10.000992058515642 11.736377092028466 6.29166641283058 0 2 1
3965 8 2 0.0265 9.345856711170299 9.561711446290152 6.751444882206394 0 2 1
1365 3 6 -0.053 6.754655417495889 13.92335830563057 3.5096124299722447 0 1 0
1396 3 3 0.1268 8.919015835567759 17.985911821523597 3.4037220056604705 0 1 0
3987 8 2 -0.1268 7.262161828379843 11.737592218529064 8.717947472615881 0 2 1
3985 8 2 -0.1268 6.079988862255606 12.478205139566276 8.63458756999189 0 2 1
3986 8 3 0.1268 5.935085693625567 13.1522580682221 9.52947077564515 0 2 1
3992 8 3 0.1268 11.082006058347687 11.322520562238186 4.41533430407509 0 2 1
3991 8 2 -0.1268 10.542058144173325 10.440029813853632 4.716778787330275 0 2 1
347 1 2 0.0265 14.1611954640319 10.493536532325585 8.157865651719963 0 -1 1
330 1 3 0.1268 12.666805009595297 12.384799286876992 4.357691971022611 0 -1 1
343 1 2 -0.1268 14.615288723587739 12.809004289500052 7.661418965724957 0 -1 1
329 1 2 -0.1268 13.546230677700013 12.564499096391351 3.646536391123422 0 -1 1
344 1 3 0.1268 14.962115327868215 13.802867970801747 8.08604662228504 0 -1 1
342 1 2 0.0265 14.877809930266652 12.437293930383913 6.315256443945907 0 -1 1
341 1 6 -0.053 15.091647284744107 13.374711477790301 5.3445019229419435 0 -1 1
328 1 2 0.0265 14.948970258061397 12.927077616789683 4.0237260350203465 0 -1 1
1238 3 2 -0.1268 39.121692207324934 38.626683114018064 15.457515273586361 -1 0 -1
345 1 2 -0.1268 14.377294151935455 11.76152694883193 8.558836226230037 0 -1 1
372 1 3 0.1268 14.351712998360657 9.04504388055124 6.603107620151795 0 -1 1
2052 5 3 0.1268 19.006315808646747 9.843507810059467 7.057457223817836 0 1 1
2049 5 7 -0.4506 21.236490917928577 8.958092135925828 5.981542590652976 0 1 1
371 1 2 -0.1268 14.471819176762317 10.138468686572086 6.849580515575168 0 -1 1
373 1 2 -0.1268 14.843967080813666 11.149502486793768 5.938163984972162 0 -1 1
374 1 3 0.1268 14.778225351115417 10.672394179929515 4.917046397402271 0 -1 1
2520 5 3 0.1268 21.826851759432138 3.347198537577725 3.143264302507234 -1 1 1
486 1 2 -0.1268 10.163497855343259 28.40539481642213 3.8689983345572934 -1 -2 1
1570 4 3 0.1268 20.340241008149405 12.314844204782757 5.39292338470382 0 0 0
2559 5 4 0.4241 21.399495054295638 9.352138804780918 5.1493555258405905 0 1 1
3399 7 3 0.1268 24.68779203754637 12.377482917809258 8.313612412031109 1 0 0
3398 7 2 -0.1268 25.23369034699263 13.33909529126855 8.26708729122138 1 0 0
3400 7 2 0.0265 26.552525164379414 13.38915192847758 7.828310033937195 1 0 0
3416 7 3 0.1268 26.959404923742206 12.877366440658506 10.430547589199037 1 0 0
3415 7 2 -0.1268 27.20690321360321 11.906133469201949 10.072265065766805 1 0 0
3413 7 6 -0.053 27.24645407312428 12.254799228863163 7.694698738339833 1 0 0
1828 4 2 -0.1268 30.167470734339947 9.858961825136154 5.6527122205838145 -1 0 1
1826 4 2 -0.1268 30.10900407817851 9.03371025191056 4.542472481496781 -1 0 1
1829 4 3 0.1268 29.37178118696981 10.472078830947208 6.030005836600578 -1 0 1
3446 7 3 0.1268 27.987369125052336 9.6585654726203 7.587084822621716 1 0 0
3445 7 2 -0.1268 28.002236289570167 10.136341173792882 8.706850916566424 1 0 0
3443 7 2 -0.1268 28.61602836831967 9.460205001007376 9.824628057290035 1 0 0
3414 7 2 0.0265 27.493129441450428 11.417498146904132 8.779761070370114 1 0 0
3402 7 3 0.1268 28.20372314510902 14.70839561957821 7.287784727211146 1 0 0
1830 4 2 0.0265 31.369925349233032 9.816506555949776 6.372774073391184 -1 0 1
1843 4 6 -0.053 31.41243625664826 10.666694147650876 7.469063251263559 -1 0 1
1825 4 2 0 31.18815080906995 8.208002410715473 4.116385951216963 -1 0 1
1876 4 3 0.1268 31.66560464900547 8.148870502365956 8.399968967299824 -1 0 1
3401 7 2 -0.1268 27.24572828557974 14.620573452184308 7.608064485006391 1 0 0
3792 8 3 0.1268 30.994118686073314 13.128955383694604 3.40246279634899 0 1 0
1875 4 2 -0.1268 31.863624136417215 8.882827735474951 9.122500126609692 -1 0 1
3075 7 2 -0.1268 18.97964402821626 31.247868081517435 15.218803470575585 0 -1 0
3164 7 3 0.1268 35.539331175445724 10.076997597177396 10.195771849691301 0 0 0
1834 4 3 0.1268 33.17123646069148 7.618755438419099 4.608487191940045 -1 0 1
1831 4 2 -0.1268 32.45099170710438 9.029688163425433 5.9779623753163715 -1 0 1
1833 4 2 -0.1268 32.3157889160824 8.170064208214802 4.8753151534360075 -1 0 1
1832 4 3 0.1268 33.305456431086895 9.033653733666718 6.553724505635244 -1 0 1
3980 8 2 0.0265 38.90998621133974 13.133814184917725 4.928394724895698 -1 2 1
3982 8 3 0.1268 38.65697414612349 11.116451541756442 5.922929041875844 -1 2 1
3981 8 2 -0.1268 39.29659761504917 12.018146800215531 5.72078319568204 -1 2 1
3794 8 3 0.1268 32.86636036177856 12.036313429843469 4.97642306593689 0 1 0
3993 8 6 -0.053 37.6011640020401 13.280643526178599 4.499956877181626 -1 2 1
1846 4 3 0.1268 32.006736404962645 12.280572422816189 9.658731336951366 -1 0 1
1844 4 2 0.0265 31.725402191968755 10.171842901118282 8.782654077506145 -1 0 1
3973 8 1 0.3964 4.18058345805894 13.344607618968999 7.6152560287147395 0 2 1
3975 8 2 0 3.1550190254921233 13.278568518879647 6.553723484197573 0 2 1
3976 8 2 -0.1268 40.82983638792887 14.34853445821233 5.714591030227488 -1 2 1
3978 8 2 -0.1268 39.689005012471384 14.275970373124387 4.94844108564656 -1 2 1
3983 8 2 -0.1268 40.49761588507307 12.13057708655198 6.474339164953458 -1 2 1
3984 8 3 0.1268 40.85926223149927 11.340871877777348 7.153402343277412 -1 2 1
1366 3 2 0.0265 7.4089009409714075 15.07806475210724 4.172098169979964 0 1 0
1371 3 2 0.0265 8.320683323707522 17.38828261354074 5.540215398966412 0 1 0
603 2 2 -0.1268 3.83436323404414 18.838499903601807 5.855301517759553 0 -1 1
604 2 3 0.1268 4.42766669233611 18.093057233621373 6.514048557337398 0 -1 1
1372 3 6 -0.053 8.472020575951454 18.635873875301293 6.384073321540214 0 1 0
1368 3 3 0.1268 7.267082628612176 14.25188546958878 6.361633156927266 0 1 0
1369 3 2 -0.1268 7.74314452498581 16.29819695991374 6.2197370982367834 0 1 0
1370 3 3 0.1268 7.898165798110842 16.4363789032177 7.33755903590114 0 1 0
1367 3 2 -0.1268 7.342383411129277 15.145599495668517 5.5741123375053165 0 1 0
1373 3 2 0.0265 9.152614091842805 19.81376135069608 5.994160864905518 0 1 0
1397 3 2 -0.1268 7.850376528045789 16.12650988876363 3.4126408061353235 0 1 0
1395 3 2 -0.1268 8.298519711908344 17.277493423644238 4.0597228415307285 0 1 0
3574 7 3 0.1268 4.029402911952925 17.27945120108351 8.271169188918893 1 0 0
852 2 3 0.1268 10.840236772316715 15.073689222269703 7.249113321169104 0 -2 1
819 2 6 -0.053 12.500896978159805 15.224934486575755 5.158228319987035 0 -2 1
849 2 2 -0.1268 11.82591382827146 16.44701885349847 8.545851883534901 0 -2 1
851 2 2 -0.1268 11.715778879210088 15.79805916710437 7.331814990811712 0 -2 1
820 2 2 0.0265 12.685246032014504 15.961144260274507 6.415951684299451 0 -2 1
825 2 2 0.0265 12.866632267740322 17.42091436380483 8.780568573798497 0 -2 1
850 2 3 0.1268 10.988171012989955 16.467737522889898 9.365161144486166 0 -2 1
1374 3 2 -0.1268 10.233897879568838 19.763452810456997 5.065895770967526 0 1 0
823 2 2 -0.1268 13.84062405621898 17.568977197845008 7.8108429551857474 0 -2 1
1377 3 3 0.1268 11.704182256427755 21.086221360919367 4.182923465374434 0 1 0
1375 3 3 0.1268 10.592230602952487 18.917035947016082 4.349689041792071 0 1 0
1569 4 2 -0.1268 20.661777314291374 12.322942993619966 4.331221862247375 0 0 0
821 2 2 -0.1268 13.81571344638587 16.861785934238778 6.608322889363462 0 -2 1
822 2 3 0.1268 14.730211366631265 16.907115665282298 5.971066457044776 0 -2 1
824 2 3 0.1268 14.712788195638968 18.254122616365613 7.893249683909739 0 -2 1
3386 7 6 -0.053 19.113302141241665 17.387904573870678 7.076225729976251 1 0 0
3389 7 3 0.1268 20.55099950420638 15.176005813233274 6.856980841365962 1 0 0
3387 7 2 0.0265 20.42396731153952 17.12473170416237 7.566984736678996 1 0 0
3410 7 3 0.1268 19.24702458688823 19.87954586434085 6.858783808533863 1 0 0
3409 7 2 -0.1268 18.532262155237373 19.56577983322421 7.615890975246765 1 0 0
1568 4 3 0.1268 22.059966327524464 13.831189453563624 4.974444509530819 0 0 0
482 1 3 0.1268 14.372503989106137 31.366994437562198 4.21928608077583 -1 -2 1
3385 7 2 0.0265 18.385842814230983 18.22846211788825 7.865193487712261 1 0 0
3388 7 2 -0.1268 21.16020669944794 15.951840829031283 7.3488751313362455 1 0 0
3397 7 3 0.1268 23.621701222266434 14.38768844736176 9.196085462068467 1 0 0
3396 7 2 -0.1268 24.536707972499315 14.461925462858964 8.712022527262443 1 0 0
3395 7 2 0 25.197314297313454 15.643934846183688 8.525637383675726 1 0 0
3391 7 3 0.1268 23.079159074709725 15.006912792236214 7.337613822263926 1 0 0
3392 7 2 0 23.043096408231474 16.834135685554298 8.507317144195202 1 0 0
3405 7 2 -0.1268 22.256371956919917 17.853986025609615 8.941894287235911 1 0 0
3393 7 1 0.3964 24.393224339154052 16.898033943765853 8.894863440964272 1 0 0
3394 7 5 -0.3964 24.86009478806161 17.793932408401247 9.588398820938504 1 0 0
3390 7 2 -0.1268 22.497623918297084 15.82004937789865 7.741325667497556 1 0 0
3406 7 3 0.1268 22.741244926364494 18.621160356695448 9.586969751449601 1 0 0
3407 7 2 -0.1268 21.057934222262322 18.032688854020844 8.381204344059704 1 0 0
3403 7 2 -0.1268 26.52937162742412 15.702420510824552 7.959011613158779 1 0 0
3791 8 2 -0.1268 31.67622350752197 13.775577189326409 3.997541781318059 0 1 0
3404 7 3 0.1268 26.92561698882493 16.628044808666967 7.713381222498643 1 0 0
2435 5 3 0.1268 31.624767551401142 17.816917995142116 6.9831183468532405 -1 0 1
2433 5 3 0.1268 30.17159677456308 16.23802438388532 7.5203104776256655 -1 0 1
2434 5 2 -0.1268 31.39140784979046 17.857484010114995 7.959868078425427 -1 0 1
2432 5 2 -0.1268 30.642889755826992 16.757122733517136 8.306571992535941 -1 0 1
3790 8 2 0.0265 31.41374041227215 15.09322815408358 4.136710360158107 0 1 0
3821 8 2 -0.1268 32.335494171904045 15.880976855684251 4.909094734738245 0 1 0
1604 4 3 0.1268 27.139488461727524 20.2844871883209 7.841357103800982 0 0 0
1496 3 3 0.1268 8.00232939651991 34.14508223745522 3.932685963786784 0 1 0
3822 8 3 0.1268 32.190738992050186 16.94687804092792 4.708714603837686 0 1 0
3789 8 6 -0.053 30.353790399824867 15.679704257019695 3.655670583158904 0 1 0
905 2 3 0.1268 37.68044202510296 36.49755084609348 4.436005308288834 -1 -2 1
3795 8 2 0.0265 33.42491750573631 13.998140736034019 5.503593884036164 0 1 0
3793 8 2 -0.1268 32.58059772801771 13.149226777418129 4.849039570803597 0 1 0
3796 8 6 -0.053 34.473008576446674 13.312624820093976 6.204491268853319 0 1 0
3797 8 2 0.0265 34.843882292894136 13.561541798246214 7.550058799479363 0 1 0
3799 8 3 0.1268 33.1387791867067 14.569430521714114 7.84555309586932 0 1 0
3818 8 3 0.1268 37.1015438150818 13.052570848313959 7.1318632503759245 0 1 0
3819 8 2 -0.1268 33.4183450153489 15.372074040175317 5.570791397820072 0 1 0
3817 8 2 -0.1268 36.18868537574532 13.188243810122424 7.908751809693695 0 1 0
3798 8 2 -0.1268 33.953381977175454 14.081887750674511 8.33504938010677 0 1 0
3779 8 2 -0.1268 27.411863109258224 13.801761225771953 3.694450920349987 0 1 0
3820 8 3 0.1268 34.21376312656217 16.06701996685839 6.016382309888176 0 1 0
68 1 3 0.1268 35.89226325475349 17.84697103725275 7.403679373344678 0 0 0
67 1 2 -0.1268 36.28739099227593 18.48327139798782 8.164917338465813 0 0 0
2720 6 3 0.1268 23.07555328203292 25.37339687650169 5.049115307941742 -1 0 0
23 1 2 -0.1268 36.791561455601865 18.235364640052172 5.294140559001313 0 0 0
24 1 3 0.1268 37.55934841884192 17.61854228121293 5.73680803102651 0 0 0
909 2 2 -0.1268 39.112207585532055 32.792808220984206 4.018126931003175 -1 -2 1
606 2 3 0.1268 3.683671105949696 20.213136046959573 7.657933287117437 0 -1 1
605 2 2 -0.1268 3.460378979045752 20.00788463287985 6.527461459774187 0 -1 1
3974 8 5 -0.3964 3.9102189936997407 13.649409776845337 8.796496023191459 0 2 1
3977 8 3 0.1268 3.1505967102636596 15.35811396659789 5.6610819487032735 0 2 1
602 2 2 0.0265 3.3947458520641 18.52405214151525 4.517042673957916 0 -1 1
3572 7 3 0.1268 39.82369191445814 17.0754268159232 8.197144186667089 0 0 0
896 2 2 -0.1268 5.29591896491337 36.34644663388223 3.4684187071044112 0 -2 1
906 2 2 -0.1268 37.49638058967604 34.35241601689211 5.034184776668093 -1 -2 1
593 2 3 0.1268 5.234312328508075 21.760583904797237 6.463570997235493 0 -1 1
592 2 2 -0.1268 4.8941473386402 22.742522054970106 7.027632966472147 0 -1 1
590 2 2 -0.1268 5.894657121172075 23.447683308451307 7.56926985889023 0 -1 1
594 2 2 0 3.5538377383265987 23.08791737035789 6.956704617830033 0 -1 1
591 2 3 0.1268 7.005847295874071 23.240251086166335 7.337174604516463 0 -1 1
1394 3 3 0.1268 7.820350456048813 21.0330727789175 7.113450109705318 0 1 0
607 2 2 -0.1268 3.2213402252466365 24.19941398228047 7.673147816759079 0 -1 1
609 2 2 -0.1268 4.124640879231151 25.026547128689057 8.297716467251224 0 -1 1
1393 3 2 -0.1268 8.67229649609332 21.10322051121138 6.44115408863622 0 1 0
3979 8 3 0.1268 39.27396654214305 15.138288187171796 4.377798359566285 -1 2 1
589 2 2 0.0265 5.4890802912491266 24.66679364514255 8.218424535824356 0 -1 1
1392 3 3 0.1268 8.74409396408555 23.19151121812628 6.272287818402837 0 1 0
1457 3 2 -0.1268 14.956993064010948 37.54451013854746 3.1265124665935904 0 1 0
907 2 3 0.1268 36.84880214242483 34.69950529993238 5.792569508253678 -1 -2 1
1537 4 7 -0.4506 18.734651256804963 11.091745681427655 3.3951594901937816 0 0 0
588 2 6 -0.053 6.556584137703205 25.304213162289127 8.94690071325325 0 -1 1
1376 3 2 -0.1268 10.918651605768886 20.996409777594643 4.923224992112936 0 1 0
1378 3 2 0 10.661632340281194 22.147006985187094 5.5891174000766775 0 1 0
1379 3 1 0.3964 11.541809728835863 23.34312053780123 5.377647855090395 0 1 0
1381 3 2 0 11.696410098454905 24.274974159177702 6.603683390643973 0 1 0
1391 3 2 -0.1268 9.366738385028224 22.224159230562616 6.085227110125012 0 1 0
1380 3 5 -0.3964 12.118972229260963 23.611916763443055 4.339023164606039 0 1 0
1389 3 2 -0.1268 11.618349017212733 23.663144274241223 7.880916408415178 0 1 0
1382 3 2 -0.1268 12.110459894599355 25.556568576977032 6.388866568611732 0 1 0
1390 3 3 0.1268 11.41327183505323 22.534596952849125 7.898098552390384 0 1 0
1383 3 3 0.1268 12.534480277955879 25.792993062349403 5.437399630409205 0 1 0
489 1 3 0.1268 8.431300756801383 27.25110003381274 4.33498041309808 -1 -2 1
2487 5 2 -0.1268 30.572895636556588 26.580544336444078 3.423137805731277 -1 0 1
2153 5 2 -0.1268 33.79407107073638 38.65870616264384 3.7615523705529226 0 0 1
3728 8 6 -0.053 15.22496625292514 20.731411848558718 3.3459885770991535 0 1 0
3727 8 2 0.0265 16.37438700165677 21.374045510566013 3.8195671325168465 0 1 0
3725 8 2 -0.1268 16.0260684644264 22.185179928815288 4.780820532862859 0 1 0
3726 8 3 0.1268 15.113100786422445 21.99539393922225 5.428139864646729 0 1 0
1563 4 2 -0.1268 21.742875101192354 17.489329996359178 4.031440510419913 0 0 0
3724 8 3 0.1268 16.70889884299637 23.66119548063174 6.146856505060242 0 1 0
3723 8 2 -0.1268 16.893567380816023 23.111525488595035 5.141959882772387 0 1 0
3708 8 2 0.0265 19.949485248813147 24.519391925188128 5.747989088008655 0 1 0
3710 8 3 0.1268 20.089393179665088 22.37906223005065 6.293059269388708 0 1 0
3721 8 6 -0.053 18.861618658802286 24.545337521183004 4.938987192676034 0 1 0
3722 8 2 0.0265 18.129718254752966 23.392878273583868 4.6344446141381885 0 1 0
3753 8 2 -0.1268 18.55488837908898 22.49222256985855 3.60352975047381 0 1 0
2152 5 2 0.0265 35.14455920813338 38.79771951277868 3.522450463545996 0 0 1
3412 7 3 0.1268 17.549240633248996 21.44810424441356 7.813819438285459 1 0 0
3411 7 2 -0.1268 17.79980745154133 20.499912040195895 8.27712077512669 1 0 0
1549 4 3 0.1268 25.17931704454008 17.61062534936894 4.697275966108862 0 0 0
3709 8 2 -0.1268 20.396059443864672 23.42367961927749 6.473903639360165 0 1 0
3703 8 2 0 22.081123071213625 24.981545978434205 7.5314314833119 0 1 0
3711 8 2 -0.1268 21.496503096862245 23.70827635299224 7.325829386987211 0 1 0
1554 4 2 -0.1268 25.032801688218026 20.029976146630055 4.7867460960139345 0 0 0
1551 4 1 0.3964 22.84347783974128 19.128143964231263 5.609822941731361 0 0 0
1553 4 2 0 23.942806678364654 20.08498560095706 5.703855317111383 0 0 0
1552 4 5 -0.3964 21.77231711351076 19.556182206935347 6.060719501178205 0 0 0
1561 4 2 -0.1268 24.049494853637277 20.93460460430296 6.829256121748248 0 0 0
1562 4 3 0.1268 23.412937652282373 21.02756417064763 7.736096011423822 0 0 0
3712 8 3 0.1268 22.175790334661936 22.864997595502217 7.542668493359718 0 1 0
1559 4 2 -0.1268 25.13412334477932 21.77611569712266 7.000081248996359 0 0 0
1560 4 3 0.1268 25.210176258609437 22.54697321790392 7.929157314739805 0 0 0
3701 8 1 0.3964 23.243598259218093 25.005733129246387 8.564520296352637 0 1 0
1564 4 3 0.1268 20.724205597281674 17.802835471175694 4.275837852159629 0 0 0
2458 5 2 0.0265 31.89293458734351 24.468324429957075 3.383340561711986 -1 0 1
1479 3 3 0.1268 4.753734392107378 30.23167044474457 3.5418612078751956 0 1 0
1556 4 2 -0.1268 26.094108069672377 20.905662440780628 4.9308665234581275 0 0 0
1558 4 2 0.0265 26.258129314315614 21.613556384122937 6.110077560189374 0 0 0
2441 5 3 0.1268 31.004479523545996 19.48381661976005 5.98137545695448 -1 0 1
1574 4 3 0.1268 29.399387984370712 23.945272349317424 7.226641250270782 0 0 0
2440 5 2 -0.1268 31.414295955360164 20.464068191049268 6.075529036369871 -1 0 1
2443 5 3 0.1268 30.935628426943715 20.633856531433114 4.04229516425198 -1 0 1
2490 5 3 0.1268 30.069115197658274 24.834504862533663 4.639403918781399 -1 0 1
2442 5 2 -0.1268 31.209667951562686 21.258812526201922 4.932931884358213 -1 0 1
2489 5 2 -0.1268 30.84094632509689 25.30063381229463 3.8669199441732345 -1 0 1
1571 4 6 -0.053 27.45221129212827 22.325590941316765 6.183959424159824 0 0 0
1572 4 2 0.0265 28.236470051048723 22.083439502834523 7.41051609969598 0 0 0
1573 4 2 -0.1268 29.13712533855827 23.054805744085616 7.953077949252873 0 0 0
1603 4 2 -0.1268 27.78271289043259 21.044144009816158 8.33401984554911 0 0 0
1575 4 2 -0.1268 29.79788049179697 22.883304543540568 9.096974178644656 0 0 0
1576 4 3 0.1268 30.66661196046117 23.50227046496322 9.547865227216061 0 0 0
1557 4 3 0.1268 26.915002145004248 20.77281158358813 4.156046653822173 0 0 0
22 1 2 0.0265 36.56834594221392 19.681016550751927 5.5266689943240195 0 0 0
35 1 6 -0.053 36.987371757221155 20.210882000772763 6.6207389812530035 0 0 0
36 1 2 0.0265 37.075762697203004 19.594096585212526 7.8110464208995625 0 0 0
2444 5 2 0.0265 31.844589385195206 22.576699163878043 4.8232324728357465 -1 0 1
2446 5 3 0.1268 32.971551315179234 24.179934652994543 5.8588914446261064 -1 0 1
2445 5 2 -0.1268 32.392363158283445 23.139542490650594 6.006461507782387 -1 0 1