units real
atom_style full
boundary p p p

# --- Force Field Styles ---
pair_style lj/cut 14.0
dielectric 1.000000
bond_style harmonic
angle_style harmonic
dihedral_style multi/harmonic
improper_style none
special_bonds lj 0 0 0
pair_modify mix arithmetic tail yes
neighbor 2.0 bin
neigh_modify delay 0 every 1 check yes
neigh_modify one 4000
package gpu 1 neigh yes

read_data /home/arz2/PolyJarvis/data/cis-PBD3/lammps/npt_cool/npt_cool_out.data
Reading data file ...
  orthogonal box = (4.7663837 4.7663837 4.7663837) to (63.411994 63.411994 63.411994)
  1 by 1 by 1 MPI processor grid
  reading atoms ...
  8040 atoms
  reading velocities ...
  8040 velocities
  scanning bonds ...
  2 = max bonds/atom
  scanning angles ...
  1 = max angles/atom
  scanning dihedrals ...
  2 = max dihedrals/atom
  orthogonal box = (4.7663837 4.7663837 4.7663837) to (63.411994 63.411994 63.411994)
  1 by 1 by 1 MPI processor grid
  reading bonds ...
  8020 bonds
  reading angles ...
  8000 angles
  reading dihedrals ...
  7980 dihedrals
Finding 1-2 1-3 1-4 neighbors ...
  special bond factors lj:    0        0        0       
  special bond factors coul:  0        0        0       
     2 = max # of 1-2 neighbors
     2 = max # of 1-3 neighbors
     4 = max # of 1-4 neighbors
     6 = max # of special neighbors
  special bonds CPU = 0.002 seconds
  read_data CPU = 0.106 seconds
include /home/arz2/PolyJarvis/data/cis-PBD3/lammps/cell/emc_build.params
# LAMMPS parameters created by EMC v9.4.4, build Jul 31 2025 20:33:44

# Variables

variable	seed		index	986450
variable	ntotal		index	8040
variable	fshape		index	1
variable	output		index	emc_build
variable	field		index	trappe/2014/trappe-ua
variable	location1	index	/home/arz2/emc/field/
variable	nav		index	0.6022141179
variable	temperature	index	300
variable	radius		index	5
variable	nrelax		index	100
variable	weight_nonbond	index	0.0001
variable	weight_bond	index	0.0001
variable	weight_focus	index	1
variable	cutoff		index	14
variable	charge_cutoff	index	14
variable	kappa		index	4
variable	density1	index	0.57
variable	lprevious	index	0
variable	lphase		index	68.1783775471
variable	f_poly		index	20
variable	chem_repeat	index	*C/C=C\C*
variable	chem_cap	index	*C
variable	lg_repeat	index	4
variable	lg_cap		index	1
variable	norm_poly	index	100
variable	l_poly		index	402
variable	mg_repeat	index	54.0914
variable	mg_cap		index	15.0347
variable	m_poly		index	5439.2094
variable	n_poly		index	20
variable	mtotal		index	108784.188
variable	nphase1		index	8040
variable	mphase1		index	108784.188
variable	vphase1		index	316912.949994
variable	lbox		index	68.1783775471
variable	lphase1		index	68.1783775471
variable	lxx		index	68.1783775471
variable	lyy		index	68.1783775471
variable	lzz		index	68.1783775471
variable	lzy		index	0
variable	lzx		index	0
variable	lyx		index	0
variable	vtotal		index	316912.949994
variable	nl_poly		index	20

# Types

variable	type_c3h	index	1
variable	type_c4h2	index	2
variable	type_c4h3	index	3

variable	type_bond_c3h_c3h index	1
variable	type_bond_c3h_c4h2 index	2
variable	type_bond_c4h2_c4h2 index	3
variable	type_bond_c4h2_c4h3 index	4

variable	type_angle_c3h_c3h_c4h2 index	1
variable	type_angle_c3h_c4h2_c4h2 index	2
variable	type_angle_c3h_c4h2_c4h3 index	3

# Clusters

variable	n0_poly		index	1
variable	n1_poly		index	20
variable	nl_poly		index	20

# Flags

variable	flag_charged	index	0

# Masses

mass		1    13.01890  # c3h
mass		2    14.02680  # c4h2
mass		3    15.03470  # c4h3

# Potentials

pair_modify	mix arithmetic tail yes
special_bonds	lj 0 0 0 coul 0 0 0.5
Finding 1-2 1-3 1-4 neighbors ...
  special bond factors lj:    0        0        0       
  special bond factors coul:  0        0        0.5     
     2 = max # of 1-2 neighbors
     2 = max # of 1-3 neighbors
     4 = max # of 1-4 neighbors
     6 = max # of special neighbors
  special bonds CPU = 0.002 seconds

# Pair Coeffs

pair_coeff	1 1    0.09340    3.71000  # c3h,c3h
pair_coeff	2 2    0.09141    3.95000  # c4h2,c4h2
pair_coeff	3 3    0.19475    3.75000  # c4h3,c4h3

# Bond Coeffs

bond_coeff	1  529.99987    1.33000  # c3h,c3h
bond_coeff	2  260.00013    1.54000  # c3h,c4h2
bond_coeff	3  260.00013    1.54000  # c4h2,c4h2
bond_coeff	4  260.00013    1.54000  # c4h2,c4h3

# Angle Coeffs

angle_coeff	1   69.96954  119.70000  # c3h,c3h,c4h2
angle_coeff	2   62.10020  114.00000  # c3h,c4h2,c4h2
angle_coeff	3   62.10020  114.00000  # c3h,c4h2,c4h3

# Dihedral Coeffs

dihedral_coeff	1    1.91086    1.85422    0.43627   -2.24348    0.00000  # c3h,c3h,c4h2,c4h2
dihedral_coeff	2    1.91086    1.85422    0.43627   -2.24348    0.00000  # c3h,c3h,c4h2,c4h3
dihedral_coeff	3    2.00702   -4.01203    0.27102    6.29006    0.00000  # c3h,c4h2,c4h2,c3h
dihedral_coeff	4   25.63496    0.99360  -25.63496   -0.99360    0.00000  # c4h2,c3h,c3h,c4h2


# --- Thermo Output ---
thermo_style custom step time temp press enthalpy etotal ke pe ebond eangle edihed eimp evdwl ecoul elong etail vol lx ly lz density pxx pyy pzz
thermo_modify flush yes
thermo 1000

# --- Trajectory ---
dump dump_nvt all custom 1000 nvt_production.dump id type mol x y z ix iy iz vx vy vz

# --- Restart Checkpointing ---
# No restart checkpointing

# --- Initial Velocities (optional) ---
# Velocities read from data file

# --- SHAKE Constraints ---
# Constrains H-X bonds to allow 2fs timestep
# SHAKE disabled (TraPPE-UA united-atom)

# --- NVT Thermostat (Nose-Hoover) ---
# T_damp = 100.0 fs  (coupling timescale for heat exchange)
# Ramp: 300.0 K -> 300.0 K over 2000000 steps
timestep 2.0
fix nvt_fix all nvt temp 300.0 300.0 100.0

run 2000000

CITE-CITE-CITE-CITE-CITE-CITE-CITE-CITE-CITE-CITE-CITE-CITE-CITE

Your simulation uses code contributions which should be cited:

- GPU package (short-range, long-range and three-body potentials): doi:10.1016/j.cpc.2010.12.021, doi:10.1016/j.cpc.2011.10.012, doi:10.1016/j.cpc.2013.08.002, doi:10.1016/j.commatsci.2014.10.068, doi:10.1016/j.cpc.2016.10.020, doi:10.3233/APC200086

@Article{Brown11,
 author = {W. M. Brown and P. Wang and S. J. Plimpton and A. N. Tharrington},
 title = {Implementing Molecular Dynamics on Hybrid High Performance Computers---Short Range Forces},
 journal = {Comput.\ Phys.\ Commun.},
 year =    2011,
 volume =  182,
 pages =   {898--911},
 doi =     {10.1016/j.cpc.2010.12.021}
}

@Article{Brown12,
 author = {W. M. Brown and A. Kohlmeyer and S. J. Plimpton and A. N. Tharrington},
 title = {Implementing Molecular Dynamics on Hybrid High Performance Computers - Particle-Particle Particle-Mesh},
 journal = {Comput.\ Phys.\ Commun.},
 year =    2012,
 volume =  183,
 doi =     {10.1016/j.cpc.2011.10.012},
 pages =   {449--459}
}

@Article{Brown13,
 author = {W. M. Brown and Y. Masako},
 title = {Implementing Molecular Dynamics on Hybrid High Performance Computers---Three-Body Potentials},
 journal = {Comput.\ Phys.\ Commun.},
 year =    2013,
 volume =  184,
 pages =   {2785--2793},
 doi =     {10.1016/j.cpc.2013.08.002},
}

@Article{Trung15,
 author = {T. D. Nguyen and S. J. Plimpton},
 title = {Accelerating Dissipative Particle Dynamics Simulations for Soft Matter Systems},
 journal = {Comput.\ Mater.\ Sci.},
 year =    2015,
 doi =     {10.1016/j.commatsci.2014.10.068},
 volume =  100,
 pages =   {173--180}
}

@Article{Trung17,
 author = {T. D. Nguyen},
 title = {{GPU}-Accelerated {T}ersoff Potentials for Massively Parallel
    Molecular Dynamics Simulations},
 journal = {Comput.\ Phys.\ Commun.},
 year =    2017,
 doi =     {10.1016/j.cpc.2016.10.020},
 volume =  212,
 pages =   {113--122}
}

@inproceedings{Nikolskiy19,
 author = {V. Nikolskiy and V. Stegailov},
 title = {{GPU} Acceleration of Four-Site Water Models in {LAMMPS}},
 booktitle = {Proceedings of the International Conference on Parallel
    Computing (ParCo 2019), Prague, Czech Republic},
 doi =     {10.3233/APC200086},
 year =    2019
}

CITE-CITE-CITE-CITE-CITE-CITE-CITE-CITE-CITE-CITE-CITE-CITE-CITE

Generated 3 of 3 mixed pair_coeff terms from arithmetic mixing rule
Per MPI rank memory allocation (min/avg/max) = 15.7 | 15.7 | 15.7 Mbytes
   Step          Time           Temp          Press         Enthalpy        TotEng         KinEng         PotEng         E_bond        E_angle        E_dihed        E_impro         E_vdwl         E_coul         E_long         E_tail         Volume           Lx             Ly             Lz          Density          Pxx            Pyy            Pzz      
         0   0              299.58922      182.60756      12248.682      11711.525      7178.9761      4532.5486      2485.9141      2375.6168      8769.6535      0             -9098.6359      0              0             -288.17358      201700.29      58.64561       58.64561       58.64561       0.89558808     283.73421     -226.01064      490.09911    
      1000   2000           301.03717     -315.04971      10840.373      11767.121      7213.673       4553.4478      2529.8243      2390.3686      8750.8381      0             -9117.5833      0              0             -288.17358      201700.29      58.64561       58.64561       58.64561       0.89558808    -249.00056     -469.0839      -227.06466    
      2000   4000           302.9853       64.152345      11975.963      11787.253      7260.3557      4526.8974      2449.8545      2441.023       8779.7656      0             -9143.7457      0              0             -288.17358      201700.29      58.64561       58.64561       58.64561       0.89558808    -1.023515      -26.589294      220.06985    
      3000   6000           298.56187     -58.913091      11335.69       11508.989      7154.3581      4354.6306      2412.6347      2337.7444      8679.3963      0             -9075.1449      0              0             -288.17358      201700.29      58.64561       58.64561       58.64561       0.89558808     80.069323      70.161081     -326.96968    
      4000   8000           294.48802     -573.75065      9702.0278      11389.768      7056.7375      4333.0306      2390.476       2343.0447      8687.9741      0             -9088.4641      0              0             -288.17358      201700.29      58.64561       58.64561       58.64561       0.89558808    -543.88123     -777.08643     -400.28429    
      5000   10000          304.51043     -243.66388      10859.454      11576.214      7296.9018      4279.3119      2404.0399      2353.6757      8629.6606      0             -9108.0643      0              0             -288.17358      201700.29      58.64561       58.64561       58.64561       0.89558808    -148.47605     -65.411672     -517.10393    
      6000   12000          299.7179      -492.99066      10247.754      11697.931      7182.0597      4515.8712      2526.2205      2385.9412      8699.4814      0             -9095.7719      0              0             -288.17358      201700.29      58.64561       58.64561       58.64561       0.89558808    -640.2327      -240.37328     -598.36601    
      7000   14000          306.05454     -153.66653      11384.003      11836.027      7333.9029      4502.1243      2449.3469      2419.9217      8728.0861      0             -9095.2304      0              0             -288.17358      201700.29      58.64561       58.64561       58.64561       0.89558808     36.807211      46.616765     -544.42358    
      8000   16000          303.66958      198.11855      12326.061      11743.277      7276.7527      4466.5244      2433.3454      2411.2484      8701.5484      0             -9079.6177      0              0             -288.17358      201700.29      58.64561       58.64561       58.64561       0.89558808    -508.98718     -158.05366      1261.3965    
      9000   18000          296.93187      102.74025      11901.969      11599.749      7115.2988      4484.4505      2391.3281      2449.1325      8708.0873      0             -9064.0975      0              0             -288.17358      201700.29      58.64561       58.64561       58.64561       0.89558808    -439.28094      59.915485      687.5862     
     10000   20000          296.15477     -33.577312      11512.847      11611.618      7096.6774      4514.9402      2428.0266      2408.9581      8728.7592      0             -9050.8037      0              0             -288.17358      201700.29      58.64561       58.64561       58.64561       0.89558808    -437.23647      500.2005      -163.69597    
     11000   22000          300.99592     -365.98505      10591.923      11668.501      7212.6845      4455.8169      2412.4011      2349.9775      8752.0275      0             -9058.5891      0              0             -288.17358      201700.29      58.64561       58.64561       58.64561       0.89558808     89.978614     -918.02806     -269.90569    
     12000   24000          295.92458     -510.47027      10096.081      11597.677      7091.1615      4506.5151      2437.4641      2403.4577      8755.5502      0             -9089.9568      0              0             -288.17358      201700.29      58.64561       58.64561       58.64561       0.89558808    -537.59065     -557.07277     -436.74739    
     13000   26000          295.58642     -82.561657      11363.153      11606.016      7083.0582      4522.9578      2460.1768      2380.7607      8757.643       0             -9075.6226      0              0             -288.17358      201700.29      58.64561       58.64561       58.64561       0.89558808     178.07265     -98.934658     -326.82297    
     14000   28000          305.7666      -646.34299      9803.3121      11704.589      7327.0031      4377.5864      2393.5779      2362.951       8719.7673      0             -9098.7098      0              0             -288.17358      201700.29      58.64561       58.64561       58.64561       0.89558808    -32.662158     -939.86381     -966.50301    
     15000   30000          302.2317       155.0494       12057.799      11601.707      7242.2973      4359.4099      2353.0845      2426.4496      8683.8698      0             -9103.994       0              0             -288.17358      201700.29      58.64561       58.64561       58.64561       0.89558808     530.05782     -246.53907      181.62945    
     16000   32000          297.30881     -223.27662      10997.44       11654.228      7124.3313      4529.8971      2457.6102      2426.0522      8748.4455      0             -9102.2108      0              0             -288.17358      201700.29      58.64561       58.64561       58.64561       0.89558808    -657.54699     -612.72159      600.43873    
     17000   34000          299.0358      -428.63922      10380.104      11640.986      7165.7148      4475.2707      2452.1092      2427.2953      8711.057       0             -9115.1907      0              0             -288.17358      201700.29      58.64561       58.64561       58.64561       0.89558808    -518.85736     -896.15824      129.09793    
     18000   36000          294.79985      43.230318      11652.347      11525.181      7064.2098      4460.9716      2412.0575      2388.8224      8721.1953      0             -9061.1036      0              0             -288.17358      201700.29      58.64561       58.64561       58.64561       0.89558808     16.008409      56.089968      57.592576    
     19000   38000          297.58132     -113.31427      11244.627      11577.951      7130.8615      4447.0898      2444.8402      2378.0267      8718.5311      0             -9094.3082      0              0             -288.17358      201700.29      58.64561       58.64561       58.64561       0.89558808     64.023937     -292.36465     -111.60209    
     20000   40000          296.57689     -362.33684      10462.288      11528.136      7106.7926      4421.3429      2430.9482      2371.0572      8689.8433      0             -9070.5058      0              0             -288.17358      201700.29      58.64561       58.64561       58.64561       0.89558808    -430.9235      -123.13228     -532.95473    
     21000   42000          299.85627     -613.77152      9884.521       11689.986      7185.3753      4504.6109      2485.1516      2452.374       8641.8065      0             -9074.7212      0              0             -288.17358      201700.29      58.64561       58.64561       58.64561       0.89558808    -1239.3145      288.81412     -890.81416    
     22000   44000          301.59985      270.32699      12535.118      11739.927      7227.1564      4512.7703      2481.6992      2410.437       8704.8138      0             -9084.1796      0              0             -288.17358      201700.29      58.64561       58.64561       58.64561       0.89558808     319.82266     -74.183189      565.34149    
     23000   46000          299.52248     -182.51198      11174.68       11711.556      7177.377       4534.1786      2456.0486      2443.0347      8686.9708      0             -9051.8755      0              0             -288.17358      201700.29      58.64561       58.64561       58.64561       0.89558808     195.85226     -218.33218     -525.05602    
     24000   48000          297.40438      11.572862      11613.565      11579.523      7126.6213      4452.9013      2439.5313      2430.4408      8643.5061      0             -9060.5769      0              0             -288.17358      201700.29      58.64561       58.64561       58.64561       0.89558808    -104.50149      77.327936      61.89214     
     25000   50000          299.06343     -328.49223      10757.365      11723.655      7166.3769      4557.2785      2508.562       2403.9635      8716.0434      0             -9071.2903      0              0             -288.17358      201700.29      58.64561       58.64561       58.64561       0.89558808     35.52184      -511.51508     -509.48344    
     26000   52000          305.76043      337.93435      12946.548      11952.483      7326.8553      4625.6277      2494.9252      2418.6439      8745.0644      0             -9033.0058      0              0             -288.17358      201700.29      58.64561       58.64561       58.64561       0.89558808     658.58377      672.4288      -317.20953    
     27000   54000          302.35991      550.93885      13335.62       11714.983      7245.3694      4469.6132      2462.1087      2380.1927      8714.6093      0             -9087.2975      0              0             -288.17358      201700.29      58.64561       58.64561       58.64561       0.89558808     587.67917      574.42224      490.71514    
     28000   56000          302.91816     -394.60676      10577.395      11738.167      7258.7467      4479.4203      2437.1667      2428.169       8698.6388      0             -9084.5542      0              0             -288.17358      201700.29      58.64561       58.64561       58.64561       0.89558808     17.033686     -568.77616     -632.0778     
     29000   58000          300.26157      44.246697      11754.669      11624.513      7195.0875      4429.4257      2498.449       2340.2456      8692.5574      0             -9101.8264      0              0             -288.17358      201700.29      58.64561       58.64561       58.64561       0.89558808     378.12854      69.845301     -315.23375    
     30000   60000          300.25063      138.27321      12044.473      11637.73       7194.8254      4442.9047      2468.7851      2467.0634      8631.1605      0             -9124.1043      0              0             -288.17358      201700.29      58.64561       58.64561       58.64561       0.89558808     234.39541      231.59576     -51.171539    
     31000   62000          299.26733     -328.8991       10662.852      11630.339      7171.2629      4459.0762      2473.1639      2382.408       8720.7202      0             -9117.216       0              0             -288.17358      201700.29      58.64561       58.64561       58.64561       0.89558808    -355.889       -438.04637     -192.76194    
     32000   64000          301.91687     -333.81711      10724.421      11706.375      7234.7529      4471.6218      2556.8932      2387.4054      8638.0729      0             -9110.7498      0              0             -288.17358      201700.29      58.64561       58.64561       58.64561       0.89558808    -99.114474     -361.09544     -541.24143    
     33000   66000          298.99963     -358.44199      10536.29       11590.68       7164.8479      4425.8319      2480.29        2392.2995      8705.0833      0             -9151.8409      0              0             -288.17358      201700.29      58.64561       58.64561       58.64561       0.89558808    -238.37304     -525.49628     -311.45666    
     34000   68000          301.63986     -308.77375      10810.424      11718.71       7228.115       4490.5952      2435.9539      2431.6279      8695.3243      0             -9072.3109      0              0             -288.17358      201700.29      58.64561       58.64561       58.64561       0.89558808    -306.94732     -447.8146      -171.55934    
     35000   70000          299.12969      99.504434      11897.704      11605.003      7167.9645      4437.0381      2422.5927      2410.3894      8673.9077      0             -9069.8517      0              0             -288.17358      201700.29      58.64561       58.64561       58.64561       0.89558808     431.40817      153.48066     -286.37552    
     36000   72000          303.78104      215.46033      12377.997      11744.201      7279.4236      4464.7769      2438.726       2402.6854      8693.3763      0             -9070.0106      0              0             -288.17358      201700.29      58.64561       58.64561       58.64561       0.89558808     402.6449       11.88088       231.85521    
     37000   74000          301.37763      70.206868      11936.925      11730.405      7221.8313      4508.5735      2460.7063      2416.9442      8717.3216      0             -9086.3985      0              0             -288.17358      201700.29      58.64561       58.64561       58.64561       0.89558808    -339.3951       840.95895     -290.94325    
     38000   76000          300.21938      183.80904      12229.652      11688.961      7194.0765      4494.8846      2453.4421      2400.3127      8729.7117      0             -9088.5819      0              0             -288.17358      201700.29      58.64561       58.64561       58.64561       0.89558808     457.40562      182.82452     -88.80301     
     39000   78000          302.5981      -322.6498       10745.355      11694.459      7251.0772      4443.382       2444.3173      2375.0935      8672.6669      0             -9048.6957      0              0             -288.17358      201700.29      58.64561       58.64561       58.64561       0.89558808    -411.28153     -1101.3203      544.65245    
     40000   80000          297.02681     -117.26455      11322.118      11667.063      7117.5738      4549.4889      2460.7125      2447.587       8722.3969      0             -9081.2074      0              0             -288.17358      201700.29      58.64561       58.64561       58.64561       0.89558808     457.80748     -310.85897     -498.74215    
     41000   82000          301.19198     -188.8914       11212.511      11768.152      7217.3826      4550.7696      2445.3083      2450.3876      8717.1398      0             -9062.066       0              0             -288.17358      201700.29      58.64561       58.64561       58.64561       0.89558808    -468.91274      54.354495     -152.11597    
     42000   84000          300.96975      176.73848      12335.115      11815.223      7212.0575      4603.1651      2562.7166      2390.5607      8733.2066      0             -9083.3189      0              0             -288.17358      201700.29      58.64561       58.64561       58.64561       0.89558808    -529.82473      401.90411      658.13607    
     43000   86000          298.59248     -353.32459      10627.128      11666.464      7155.0917      4511.3727      2478.3945      2388.5216      8712.66        0             -9068.2034      0              0             -288.17358      201700.29      58.64561       58.64561       58.64561       0.89558808    -30.016282     -536.05479     -493.90269    
     44000   88000          304.76246      81.115922      11982.576      11743.966      7302.9411      4441.0247      2498.5424      2376.3863      8636.5119      0             -9070.416       0              0             -288.17358      201700.29      58.64561       58.64561       58.64561       0.89558808    -259.17233     -80.218372      582.73847    
     45000   90000          299.7219       595.51308      13373.499      11621.742      7182.1556      4439.5866      2486.7409      2350.3365      8675.0354      0             -9072.5262      0              0             -288.17358      201700.29      58.64561       58.64561       58.64561       0.89558808     1161.1522      509.818        115.56904    
     46000   92000          298.67371     -639.48572      9740.274       11621.38       7157.038       4464.342       2489.2121      2347.2225      8732.3836      0             -9104.4762      0              0             -288.17358      201700.29      58.64561       58.64561       58.64561       0.89558808    -823.88445     -154.49602     -940.07671    
     47000   94000          302.96602     -475.75785      10336.067      11735.552      7259.8936      4475.6587      2520.7727      2420.9344      8622.1247      0             -9088.1731      0              0             -288.17358      201700.29      58.64561       58.64561       58.64561       0.89558808    -314.23872     -557.29872     -555.73611    
     48000   96000          300.82939      2.5516914      11697.626      11690.12       7208.6941      4481.4261      2525.9741      2403.3902      8633.9909      0             -9081.9291      0              0             -288.17358      201700.29      58.64561       58.64561       58.64561       0.89558808    -265.78185      277.10107     -3.6641474    
     49000   98000          301.35193     -376.47769      10635.133      11742.577      7221.2156      4521.3609      2483.7007      2372.3816      8720.313       0             -9055.0344      0              0             -288.17358      201700.29      58.64561       58.64561       58.64561       0.89558808    -47.988888     -929.20009     -152.24409    
     50000   100000         301.7872      -114.1353       11330.357      11666.096      7231.6457      4434.4503      2414.9617      2405.1043      8677.782       0             -9063.3978      0              0             -288.17358      201700.29      58.64561       58.64561       58.64561       0.89558808     280.08466     -315.17328     -307.31727    
     51000   102000         303.04662     -385.26688      10639.326      11772.624      7261.825       4510.7988      2493.6968      2426.8497      8678.4986      0             -9088.2462      0              0             -288.17358      201700.29      58.64561       58.64561       58.64561       0.89558808    -199.7234      -709.71788     -246.35935    
     52000   104000         301.46331      8.5380787      11766.692      11741.577      7223.8845      4517.6923      2426.3497      2464.5892      8659.4167      0             -9032.6633      0              0             -288.17358      201700.29      58.64561       58.64561       58.64561       0.89558808    -248.32538      170.45463      103.48499    
     53000   106000         300.90433     -652.19169      9809.5864      11728.068      7210.4899      4517.5782      2489.5162      2422.5858      8712.4757      0             -9106.9994      0              0             -288.17358      201700.29      58.64561       58.64561       58.64561       0.89558808    -1014.2383     -243.07972     -699.25705    
     54000   108000         299.08079     -286.99562      10678.371      11522.595      7166.7928      4355.8023      2419.2248      2343.0741      8702.3751      0             -9108.8717      0              0             -288.17358      201700.29      58.64561       58.64561       58.64561       0.89558808    -507.37485     -205.39701     -148.21501    
     55000   110000         303.04313      84.629866      11947.244      11698.298      7261.7413      4436.5563      2463.4015      2352.8267      8700.7575      0             -9080.4295      0              0             -288.17358      201700.29      58.64561       58.64561       58.64561       0.89558808     363.08829      79.769601     -188.9683     
     56000   112000         298.80333     -327.06289      10730.197      11692.283      7160.1442      4532.1388      2455.5972      2407.9947      8739.7928      0             -9071.2459      0              0             -288.17358      201700.29      58.64561       58.64561       58.64561       0.89558808    -588.67545     -107.8642      -284.64901    
     57000   114000         293.90491     -137.50698      11040.005      11444.495      7042.7646      4401.73        2425.0371      2341.6785      8721.0968      0             -9086.0823      0              0             -288.17358      201700.29      58.64561       58.64561       58.64561       0.89558808    -21.281316     -935.56696      544.32735    
     58000   116000         300.7617      -231.53919      11022.362      11703.456      7207.0719      4496.3844      2478.4815      2373.8695      8744.2503      0             -9100.2169      0              0             -288.17358      201700.29      58.64561       58.64561       58.64561       0.89558808     146.45358     -845.93612      4.8649626    
     59000   118000         299.23815     -195.45976      11154.249      11729.212      7170.5637      4558.6485      2474.372       2403.2062      8736.8079      0             -9055.7376      0              0             -288.17358      201700.29      58.64561       58.64561       58.64561       0.89558808     49.815805     -620.27218     -15.922897    
     60000   120000         304.99937     -16.93377       11898.268      11948.08       7308.6181      4639.4621      2422.3186      2465.5773      8865.8769      0             -9114.3106      0              0             -288.17358      201700.29      58.64561       58.64561       58.64561       0.89558808     458.93605     -483.23257     -26.504791    
     61000   122000         299.91306      350.75139      12725.436      11693.669      7186.7362      4506.9328      2439.872       2358.1668      8747.218       0             -9038.324       0              0             -288.17358      201700.29      58.64561       58.64561       58.64561       0.89558808     609.20134     -346.57049      789.62332    
     62000   124000         300.77805     -137.75523      11299.104      11704.323      7207.4638      4496.8597      2478.6111      2410.8068      8706.2353      0             -9098.7935      0              0             -288.17358      201700.29      58.64561       58.64561       58.64561       0.89558808    -324.52759     -393.71367      304.97557    
     63000   126000         296.88305     -365.72573      10409.797      11485.613      7114.129       4371.484       2488.3232      2368.7267      8679.3295      0             -9164.8954      0              0             -288.17358      201700.29      58.64561       58.64561       58.64561       0.89558808    -216.90791     -153.9336      -726.33569    
     64000   128000         301.4445       169.86008      12181.228      11681.569      7223.4338      4458.1349      2453.9719      2397.9603      8699.906       0             -9093.7032      0              0             -288.17358      201700.29      58.64561       58.64561       58.64561       0.89558808     142.80657      465.95338     -99.179713    
     65000   130000         298.84214      48.730526      11769.946      11626.601      7161.0741      4465.527       2443.7016      2364.4167      8726.1135      0             -9068.7048      0              0             -288.17358      201700.29      58.64561       58.64561       58.64561       0.89558808     74.301529     -150.93497      222.82502    
     66000   132000         300.77644     -146.17781      11293.412      11723.407      7207.4251      4515.9822      2507.6635      2440.9055      8644.3092      0             -9076.896       0              0             -288.17358      201700.29      58.64561       58.64561       58.64561       0.89558808     73.149208     -348.40052     -163.28212    
     67000   134000         303.03875     -285.76716      10855.052      11695.662      7261.6363      4434.0258      2453.0477      2383.9066      8683.9505      0             -9086.879       0              0             -288.17358      201700.29      58.64561       58.64561       58.64561       0.89558808    -399.05794     -196.39155     -261.852      
     68000   136000         297.25557     -102.87631      11281.998      11584.619      7123.0555      4461.5631      2496.2761      2391.0326      8701.3294      0             -9127.075       0              0             -288.17358      201700.29      58.64561       58.64561       58.64561       0.89558808    -456.73713      228.60998     -80.501766    
     69000   138000         301.682        164.96007      12166.363      11681.118      7229.125       4451.9926      2431.2667      2407.5099      8697.9211      0             -9084.7052      0              0             -288.17358      201700.29      58.64561       58.64561       58.64561       0.89558808     268.78043      0.83242143     225.26736    
     70000   140000         299.37999     -643.50309      9612.3743      11505.298      7173.9625      4331.3353      2391.5569      2382.6166      8676.3498      0             -9119.188       0              0             -288.17358      201700.29      58.64561       58.64561       58.64561       0.89558808    -1571.999       92.657834     -451.16806    
     71000   142000         297.79138     -180.51862      11120.854      11651.866      7135.8951      4515.9709      2465.1061      2420.5824      8692.6077      0             -9062.3254      0              0             -288.17358      201700.29      58.64561       58.64561       58.64561       0.89558808     436.06009     -417.53738     -560.07855    
     72000   144000         303.20979     -85.618041      11475.852      11727.705      7265.7349      4461.9703      2475.8573      2346.4002      8739.1558      0             -9099.443       0              0             -288.17358      201700.29      58.64561       58.64561       58.64561       0.89558808     409.24259     -636.44183     -29.654882    
     73000   146000         298.16981      32.782082      11743.89       11647.458      7144.9633      4502.4949      2497.5827      2346.6528      8750.8101      0             -9092.5508      0              0             -288.17358      201700.29      58.64561       58.64561       58.64561       0.89558808     103.9563       118.40775     -124.01781    
     74000   148000         302.74493     -238.80139      11060.251      11762.708      7254.5957      4508.1119      2459.6826      2373.16        8787.624       0             -9112.3547      0              0             -288.17358      201700.29      58.64561       58.64561       58.64561       0.89558808     154.74751     -151.55214     -719.59955    
     75000   150000         303.46351      184.22043      12294.485      11752.584      7271.8149      4480.7688      2413.1437      2438.1481      8708.4843      0             -9079.0072      0              0             -288.17358      201700.29      58.64561       58.64561       58.64561       0.89558808     651.71405     -49.01922      -50.033537    
     76000   152000         297.85179      133.86478      12021.366      11627.59       7137.3427      4490.2475      2462.5644      2387.0254      8678.4025      0             -9037.7448      0              0             -288.17358      201700.29      58.64561       58.64561       58.64561       0.89558808    -310.87005      703.26398      9.2004155    
     77000   154000         297.87596      420.96656      12948.611      11710.299      7137.9218      4572.3776      2507.1116      2461.9991      8741.6931      0             -9138.4262      0              0             -288.17358      201700.29      58.64561       58.64561       58.64561       0.89558808     977.77659      591.80263     -306.67953    
     78000   156000         303.02627     -62.031802      11554.718      11737.19       7261.3372      4475.853       2482.2045      2353.0845      8747.5363      0             -9106.9723      0              0             -288.17358      201700.29      58.64561       58.64561       58.64561       0.89558808    -513.92554      191.33132      136.49881    
     79000   158000         303.2478       367.34626      12731.706      11651.124      7266.6457      4384.4779      2432.0857      2321.2775      8691.526       0             -9060.4113      0              0             -288.17358      201700.29      58.64561       58.64561       58.64561       0.89558808    -196.10436      261.03961      1037.1035    
     80000   160000         297.22694      164.20394      12019.727      11536.706      7122.3695      4414.3368      2446.3699      2349.3935      8707.5419      0             -9088.9685      0              0             -288.17358      201700.29      58.64561       58.64561       58.64561       0.89558808    -164.94226      464.4979       193.0562     
     81000   162000         301.54972     -516.15962      10200.921      11719.252      7225.9551      4493.2966      2453.0714      2433.9843      8736.91        0             -9130.6691      0              0             -288.17358      201700.29      58.64561       58.64561       58.64561       0.89558808    -346.54879     -348.41637     -853.51368    
     82000   164000         296.15484     -410.25397      10250.71       11457.51       7096.679       4360.8305      2489.1808      2275.6924      8715.3793      0             -9119.422       0              0             -288.17358      201700.29      58.64561       58.64561       58.64561       0.89558808    -402.86736     -312.74873     -515.14584    
     83000   166000         295.40545      287.18782      12487.905      11643.116      7078.7217      4564.3938      2450.9414      2491.7375      8687.1292      0             -9065.4144      0              0             -288.17358      201700.29      58.64561       58.64561       58.64561       0.89558808     312.96025      281.13688      267.46635    
     84000   168000         297.37927     -524.62302      10077.251      11620.477      7126.0199      4494.4576      2477.61        2409.1688      8740.6854      0             -9133.0066      0              0             -288.17358      201700.29      58.64561       58.64561       58.64561       0.89558808    -586.69585     -380.65108     -606.52213    
     85000   170000         298.13977     -176.74792      11161.578      11681.498      7144.2433      4537.2552      2482.3096      2401.1564      8760.1311      0             -9106.342       0              0             -288.17358      201700.29      58.64561       58.64561       58.64561       0.89558808     464.86073     -120.00369     -875.10081    
     86000   172000         296.9512      -24.406689      11517.504      11589.298      7115.762       4473.5361      2455.7143      2381.5353      8737.4677      0             -9101.1812      0              0             -288.17358      201700.29      58.64561       58.64561       58.64561       0.89558808    -50.000829      425.63696     -448.8562     
     87000   174000         296.05047      110.77357      11878.585      11552.734      7094.178       4458.5561      2423.7325      2394.9734      8743.5538      0             -9103.7036      0              0             -288.17358      201700.29      58.64561       58.64561       58.64561       0.89558808     83.78377       87.843159      160.69377    
     88000   176000         300.47465     -454.86199      10387.693      11725.712      7200.1935      4525.5182      2446.8615      2399.0451      8791.445       0             -9111.8335      0              0             -288.17358      201700.29      58.64561       58.64561       58.64561       0.89558808    -1028.5642     -179.38832     -156.63346    
     89000   178000         301.15683      108.98529      12090.845      11770.255      7216.5404      4553.7145      2461.1119      2398.3152      8749.9295      0             -9055.6421      0              0             -288.17358      201700.29      58.64561       58.64561       58.64561       0.89558808    -326.74612      397.66799      256.03399    
     90000   180000         296.71915     -73.586036      11403.689      11620.149      7110.2014      4509.9475      2439.5895      2434.4038      8737.6209      0             -9101.6666      0              0             -288.17358      201700.29      58.64561       58.64561       58.64561       0.89558808    -78.775178     -116.69949     -25.283439    
     91000   182000         303.02343      263.56012      12548.15       11772.864      7261.2693      4511.5949      2490.5787      2381.9937      8735.9623      0             -9096.9398      0              0             -288.17358      201700.29      58.64561       58.64561       58.64561       0.89558808     659.11848      117.15786      14.404029    
     92000   184000         299.81515     -402.03522      10509.63       11692.253      7184.3902      4507.8631      2444.1363      2409.2076      8748.5371      0             -9094.0179      0              0             -288.17358      201700.29      58.64561       58.64561       58.64561       0.89558808    -303.26156     -208.4212      -694.42289    
     93000   186000         304.50003      35.688618      11853.21       11748.229      7296.6526      4451.5764      2453.0062      2374.5616      8685.3641      0             -9061.3554      0              0             -288.17358      201700.29      58.64561       58.64561       58.64561       0.89558808    -68.102132     -69.053085      244.22107    
     94000   188000         299.78204     -173.54135      11331.334      11841.821      7183.5966      4658.2248      2517.9723      2422.7612      8777.3987      0             -9059.9074      0              0             -288.17358      201700.29      58.64561       58.64561       58.64561       0.89558808    -404.39786      113.16858     -229.39477    
     95000   190000         297.78138     -581.29005      9853.9722      11563.89       7135.6555      4428.2349      2460.3126      2325.2884      8737.3669      0             -9094.7331      0              0             -288.17358      201700.29      58.64561       58.64561       58.64561       0.89558808    -191.24847     -718.24526     -834.37642    
     96000   192000         295.43005     -245.86007      10844.894      11568.114      7079.311       4488.8029      2430.3822      2401.6443      8718.9534      0             -9062.177       0              0             -288.17358      201700.29      58.64561       58.64561       58.64561       0.89558808    -466.41197     -299.37541      28.207163    
     97000   194000         300.04102      63.603366      11851.76       11664.664      7189.8026      4474.8618      2411.8885      2469.3455      8706.7689      0             -9113.141       0              0             -288.17358      201700.29      58.64561       58.64561       58.64561       0.89558808    -12.365476      249.67821     -46.502633    
     98000   196000         300.87747     -177.01925      11198.523      11719.242      7209.8463      4509.3956      2470.2633      2437.6367      8698.0109      0             -9096.5153      0              0             -288.17358      201700.29      58.64561       58.64561       58.64561       0.89558808    -265.75168     -51.492722     -213.81334    
     99000   198000         299.01492      62.333604      11869.629      11686.269      7165.2144      4521.0548      2450.5061      2422.716       8697.7827      0             -9049.95        0              0             -288.17358      201700.29      58.64561       58.64561       58.64561       0.89558808    -157.77251      595.38788     -250.61455    
    100000   200000         300.66064     -151.06352      11241.909      11686.276      7204.6504      4481.6259      2513.755       2332.0089      8686.9057      0             -9051.0437      0              0             -288.17358      201700.29      58.64561       58.64561       58.64561       0.89558808    -755.39536     -216.54616      518.75096    
    101000   202000         303.29864     -294.44447      10708.54       11574.676      7267.8641      4306.8117      2363.1152      2377.0997      8652.7089      0             -9086.112       0              0             -288.17358      201700.29      58.64561       58.64561       58.64561       0.89558808    -116.8468      -551.93032     -214.55628    
    102000   204000         298.07272     -276.95332      10822.83       11637.513      7142.6368      4494.8764      2456.5391      2385.5797      8734.4258      0             -9081.6682      0              0             -288.17358      201700.29      58.64561       58.64561       58.64561       0.89558808    -353.50848     -319.40679     -157.9447     
    103000   206000         298.17984     -456.51797      10235.279      11578.168      7145.2035      4432.9646      2477.2979      2387.8164      8700.7303      0             -9132.88        0              0             -288.17358      201700.29      58.64561       58.64561       58.64561       0.89558808    -340.34789     -813.27038     -215.93563    
    104000   208000         300.4469       145.61231      12113.228      11684.896      7199.5287      4485.3675      2520.0926      2425.0995      8666.5039      0             -9126.3285      0              0             -288.17358      201700.29      58.64561       58.64561       58.64561       0.89558808     64.983523      317.29093      54.56248     
    105000   210000         297.44634      98.065204      11877.718      11589.25       7127.627       4461.6227      2407.3032      2407.594       8750.2734      0             -9103.5479      0              0             -288.17358      201700.29      58.64561       58.64561       58.64561       0.89558808     49.339536      35.996691      208.85938    
    106000   212000         297.05966     -191.28969      11000.46       11563.156      7118.361       4444.7953      2405.8317      2364.6715      8755.283       0             -9080.9908      0              0             -288.17358      201700.29      58.64561       58.64561       58.64561       0.89558808    -313.55998     -191.44907     -68.86002     
    107000   214000         300.79664     -111.1543       11389.222      11716.192      7207.9092      4508.283       2508.3203      2363.3677      8751.8637      0             -9115.2687      0              0             -288.17358      201700.29      58.64561       58.64561       58.64561       0.89558808    -281.38701     -515.58994      463.51405    
    108000   216000         298.28843      238.24654      12338.49       11637.666      7147.8058      4489.8598      2423.133       2367.6518      8731.5601      0             -9032.4851      0              0             -288.17358      201700.29      58.64561       58.64561       58.64561       0.89558808    -226.7924       570.1274       371.40463    
    109000   218000         302.31438     -60.505066      11513.858      11691.839      7244.2785      4447.5606      2406.8601      2352.6651      8759.2283      0             -9071.193       0              0             -288.17358      201700.29      58.64561       58.64561       58.64561       0.89558808    -335.42042      366.89867     -212.99345    
    110000   220000         300.6974      -117.76422      11401.646      11748.06       7205.5311      4542.529       2452.7692      2425.402       8764.4143      0             -9100.0565      0              0             -288.17358      201700.29      58.64561       58.64561       58.64561       0.89558808    -241.4556      -443.14923      331.31217    
    111000   222000         304.97984     -259.40868      10989.414      11752.489      7308.1502      4444.3384      2425.0195      2385.8772      8734.5229      0             -9101.0812      0              0             -288.17358      201700.29      58.64561       58.64561       58.64561       0.89558808    -520.63203     -210.068       -47.526013    
    112000   224000         295.8942      -317.79641      10611.942      11546.769      7090.4335      4456.3359      2426.7207      2392.9287      8717.9026      0             -9081.2161      0              0             -288.17358      201700.29      58.64561       58.64561       58.64561       0.89558808    -238.3609      -846.15968      131.13133    
    113000   226000         298.33391     -322.55466      10611.397      11560.221      7148.8956      4411.3256      2427.0136      2409.1322      8672.3415      0             -9097.1617      0              0             -288.17358      201700.29      58.64561       58.64561       58.64561       0.89558808    -259.93268     -605.5977      -102.1336     
    114000   228000         300.85144     -416.28375      10420.443      11644.98       7209.2225      4435.7576      2456.9519      2389.8186      8658.5512      0             -9069.5641      0              0             -288.17358      201700.29      58.64561       58.64561       58.64561       0.89558808    -314.6129      -351.52058     -582.71776    
    115000   230000         296.14286     -720.85715      9428.6976      11549.165      7096.3919      4452.7733      2425.2859      2469.2467      8700.9903      0             -9142.7496      0              0             -288.17358      201700.29      58.64561       58.64561       58.64561       0.89558808    -981.77518     -591.75089     -589.04539    
    116000   232000         304.26888     -380.57202      10620.139      11739.626      7291.1137      4448.5126      2429.7902      2405.0526      8766.9813      0             -9153.3116      0              0             -288.17358      201700.29      58.64561       58.64561       58.64561       0.89558808    -56.240018     -294.07908     -791.39697    
    117000   234000         301.9758       331.03707      12705.776      11732          7236.1653      4495.8345      2488.7713      2359.6704      8770.1792      0             -9122.7864      0              0             -288.17358      201700.29      58.64561       58.64561       58.64561       0.89558808     332.44465      409.61811      251.04844    
    118000   236000         296.11498     -421.13751      10447.852      11686.667      7095.724       4590.9432      2481.893       2454.8382      8712.1335      0             -9057.9216      0              0             -288.17358      201700.29      58.64561       58.64561       58.64561       0.89558808    -368.58999     -280.62037     -614.20217    
    119000   238000         301.1542      -24.347899      11617.616      11689.237      7216.4773      4472.7598      2487.148       2364.8125      8731.9365      0             -9111.1372      0              0             -288.17358      201700.29      58.64561       58.64561       58.64561       0.89558808    -242.83618     -63.531545      233.32403    
    120000   240000         301.82311     -27.372401      11624.916      11705.434      7232.5064      4472.9277      2466.0591      2390.388       8669.9749      0             -9053.4942      0              0             -288.17358      201700.29      58.64561       58.64561       58.64561       0.89558808    -122.53761      315.46996     -275.04955    
    121000   242000         304.22126     -408.93427      10645.539      11848.457      7289.9726      4558.484       2457.7303      2405.9543      8798.9231      0             -9104.1237      0              0             -288.17358      201700.29      58.64561       58.64561       58.64561       0.89558808    -79.96017      -570.14243     -576.70022    
    122000   244000         299.40004     -187.79992      11116.029      11668.46       7174.4429      4494.0169      2459.121       2400.0917      8702.3951      0             -9067.591       0              0             -288.17358      201700.29      58.64561       58.64561       58.64561       0.89558808    -323.61362      230.23822     -470.02437    
    123000   246000         298.3804      -886.64102      8972.7636      11580.9        7150.0096      4430.89        2405.1898      2410.5621      8714.3196      0             -9099.1816      0              0             -288.17358      201700.29      58.64561       58.64561       58.64561       0.89558808    -747.39016     -699.64422     -1212.8887    
    124000   248000         300.94992     -100.72239      11334.961      11631.245      7211.5822      4419.6628      2429.0718      2367.3942      8702.5509      0             -9079.3541      0              0             -288.17358      201700.29      58.64561       58.64561       58.64561       0.89558808    -92.94509       195.4486      -404.67068    
    125000   250000         299.67369      212.9009       12313.641      11687.374      7181.0002      4506.3736      2466.2131      2378.834       8740.6187      0             -9079.2923      0              0             -288.17358      201700.29      58.64561       58.64561       58.64561       0.89558808     317.96617      40.318703      280.41784    
    126000   252000         299.40733     -181.02596      11176.701      11709.206      7174.6176      4534.5882      2472.2588      2400.8236      8727.283       0             -9065.7772      0              0             -288.17358      201700.29      58.64561       58.64561       58.64561       0.89558808    -251.84081     -71.053868     -220.1832     
    127000   254000         299.25947     -100.06643      11291.362      11585.716      7171.0746      4414.6418      2425.2124      2400.5624      8669.5588      0             -9080.6917      0              0             -288.17358      201700.29      58.64561       58.64561       58.64561       0.89558808    -44.063216     -85.653807     -170.48226    
    128000   256000         300.6546      -322.06676      10676.249      11623.638      7204.5056      4419.1322      2349.7255      2396.4094      8725.8404      0             -9052.8432      0              0             -288.17358      201700.29      58.64561       58.64561       58.64561       0.89558808    -230.93911     -537.88177     -197.37939    
    129000   258000         297.61334      373.52569      12668.026      11569.266      7131.6287      4437.6374      2464.4043      2325.2933      8711.6813      0             -9063.7415      0              0             -288.17358      201700.29      58.64561       58.64561       58.64561       0.89558808     258.20903      435.27545      427.0926     
    130000   260000         298.69685     -674.538        9623.1026      11607.318      7157.5925      4449.7256      2505.2931      2379.6407      8718.3067      0             -9153.515       0              0             -288.17358      201700.29      58.64561       58.64561       58.64561       0.89558808    -1077.5611     -524.2642      -421.78867    
    131000   262000         298.16858      150.80073      12067.06       11623.466      7144.9337      4478.5319      2480.1801      2366.6845      8719.9249      0             -9088.2576      0              0             -288.17358      201700.29      58.64561       58.64561       58.64561       0.89558808    -266.3489       138.26098      580.4901     
    132000   264000         299.85006      134.58461      12066.876      11670.983      7185.2266      4485.7564      2442.3982      2348.292       8744.445       0             -9049.3788      0              0             -288.17358      201700.29      58.64561       58.64561       58.64561       0.89558808     128.70277     -692.8037       967.85475    
    133000   266000         301.46426     -289.73458      10976.308      11828.589      7223.9072      4604.6816      2496.2574      2412.6819      8745.1158      0             -9049.3735      0              0             -288.17358      201700.29      58.64561       58.64561       58.64561       0.89558808    -469.97635      333.58894     -732.81632    
    134000   268000         299.49673      50.27197       11913.84       11765.961      7176.7598      4589.2009      2482.3754      2430.7025      8691.1088      0             -9014.9858      0              0             -288.17358      201700.29      58.64561       58.64561       58.64561       0.89558808     177.26656     -454.43515      427.98451    
    135000   270000         292.63476     -118.40663      11062.058      11410.362      7012.3284      4398.0335      2466.8799      2354.372       8684.2964      0             -9107.5148      0              0             -288.17358      201700.29      58.64561       58.64561       58.64561       0.89558808    -63.473507     -577.29176      285.54538    
    136000   272000         297.01568      184.93575      12215.593      11671.587      7117.3072      4554.2799      2479.3667      2382.0432      8745.1107      0             -9052.2408      0              0             -288.17358      201700.29      58.64561       58.64561       58.64561       0.89558808    -231.22078      418.20071      367.82732    
    137000   274000         302.09619     -145.83801      11303.699      11732.694      7239.0501      4493.6443      2446.9926      2379.6578      8752.5472      0             -9085.5533      0              0             -288.17358      201700.29      58.64561       58.64561       58.64561       0.89558808    -227.42407      127.98201     -338.07195    
    138000   276000         300.26275     -361.50587      10691.435      11754.837      7195.1158      4559.7214      2494.0608      2449.3267      8717.2954      0             -9100.9614      0              0             -288.17358      201700.29      58.64561       58.64561       58.64561       0.89558808    -314.79964     -825.83321      56.115235    
    139000   278000         300.52743      714.70174      13752.671      11650.311      7201.4582      4448.8524      2441.7842      2436.9172      8677.9156      0             -9107.7646      0              0             -288.17358      201700.29      58.64561       58.64561       58.64561       0.89558808     669.33003      838.29183      636.48336    
    140000   280000         305.23568      28.939569      11890.057      11804.928      7314.2807      4490.6475      2432.1608      2430.1224      8695.8377      0             -9067.4734      0              0             -288.17358      201700.29      58.64561       58.64561       58.64561       0.89558808    -128.15552     -139.82802      354.80225    
    141000   282000         298.82681     -607.6629       9826.7085      11614.205      7160.7068      4453.498       2453.5574      2391.5829      8708.717       0             -9100.3593      0              0             -288.17358      201700.29      58.64561       58.64561       58.64561       0.89558808    -743.25506     -672.17082     -407.56282    
    142000   284000         301.32259      21.658992      11960.256      11896.544      7220.5126      4676.0313      2562.878       2389.8228      8759.6022      0             -9036.2718      0              0             -288.17358      201700.29      58.64561       58.64561       58.64561       0.89558808     430.20088     -47.057956     -318.16595    
    143000   286000         295.11383     -51.435236      11441.108      11592.41       7071.7336      4520.6764      2442.8554      2433.9185      8697.2158      0             -9053.3132      0              0             -288.17358      201700.29      58.64561       58.64561       58.64561       0.89558808     483.0362       310.97588     -948.31779    
    144000   288000         298.59828     -376.2829       10551.358      11658.228      7155.2307      4502.9977      2474.3488      2362.9679      8765.271       0             -9099.59        0              0             -288.17358      201700.29      58.64561       58.64561       58.64561       0.89558808    -469.36067     -687.55391      28.065888    
    145000   290000         298.4418      -212.14989      11007.386      11631.444      7151.4809      4479.9635      2430.2965      2381.7667      8783.1067      0             -9115.2065      0              0             -288.17358      201700.29      58.64561       58.64561       58.64561       0.89558808    -72.782765     -215.40045     -348.26644    
    146000   292000         299.18275     -75.131736      11411.99       11632.997      7169.236       4463.7613      2471.5535      2421.4226      8671.4541      0             -9100.6689      0              0             -288.17358      201700.29      58.64561       58.64561       58.64561       0.89558808     23.925257     -140.46439     -108.85607    
    147000   294000         302.89946      157.474        12111.352      11648.128      7258.2986      4389.8293      2395.6398      2354.3336      8732.5593      0             -9092.7034      0              0             -288.17358      201700.29      58.64561       58.64561       58.64561       0.89558808     151.36332      143.8335       177.2252     
    148000   296000         299.99146     -304.39354      10845.53       11740.931      7188.6151      4552.3164      2455.9564      2466.1263      8742.6755      0             -9112.4418      0              0             -288.17358      201700.29      58.64561       58.64561       58.64561       0.89558808    -174.33583     -477.63669     -261.20809    
    149000   298000         298.0124      -167.95823      11171.817      11665.882      7141.1912      4524.6908      2471.512       2364.7447      8749.244       0             -9060.8098      0              0             -288.17358      201700.29      58.64561       58.64561       58.64561       0.89558808    -254.73988     -291.91475      42.779924    
    150000   300000         301.73041     -137.61173      11343.712      11748.509      7230.2851      4518.2241      2455.8611      2415.2515      8750.6971      0             -9103.5856      0              0             -288.17358      201700.29      58.64561       58.64561       58.64561       0.89558808    -116.95617     -337.48546      41.60644     
    151000   302000         295.93527      16.394382      11666.189      11617.964      7091.4174      4526.5463      2501.7409      2389.1829      8690.5893      0             -9054.9668      0              0             -288.17358      201700.29      58.64561       58.64561       58.64561       0.89558808     41.234077      265.72758     -257.77851    
    152000   304000         299.16761     -406.59745      10362.863      11558.907      7168.8732      4390.0339      2396.6094      2383.0347      8757.5939      0             -9147.2043      0              0             -288.17358      201700.29      58.64561       58.64561       58.64561       0.89558808    -116.04661     -202.28479     -901.46093    
    153000   306000         298.43756      21.039201      11694.034      11632.145      7151.3792      4480.7659      2428.9183      2429.8756      8694.1026      0             -9072.1306      0              0             -288.17358      201700.29      58.64561       58.64561       58.64561       0.89558808    -161.46893      19.47172       205.11482    
    154000   308000         293.43096     -284.4483       10632.845      11469.576      7031.4074      4438.1686      2421.0383      2371.4199      8724.4975      0             -9078.787       0              0             -288.17358      201700.29      58.64561       58.64561       58.64561       0.89558808    -827.10226     -418.51719      392.27455    
    155000   310000         296.00196      366.34457      12676.879      11599.243      7093.0155      4506.2274      2459.5723      2355.2303      8757.419       0             -9065.9943      0              0             -288.17358      201700.29      58.64561       58.64561       58.64561       0.89558808     472.24073      803.81115     -177.01816    
    156000   312000         300.59405      150.05376      12072.109      11630.712      7203.0548      4427.6575      2431.4212      2337.3499      8716.2969      0             -9057.4104      0              0             -288.17358      201700.29      58.64561       58.64561       58.64561       0.89558808    -77.232371      327.64556      199.74808    
    157000   314000         293.63934     -525.41181      9982.3724      11527.92       7036.4008      4491.5188      2393.2788      2431.3044      8749.9706      0             -9083.0351      0              0             -288.17358      201700.29      58.64561       58.64561       58.64561       0.89558808    -471.24611     -536.59815     -568.39116    
    158000   316000         298.61042      401.71248      12792.023      11610.349      7155.5214      4454.8276      2405.9338      2393.5125      8745.1726      0             -9089.7912      0              0             -288.17358      201700.29      58.64561       58.64561       58.64561       0.89558808    -119.42673      492.75596      831.8082     
    159000   318000         294.6334      -140.3788       11238.711      11651.648      7060.2213      4591.4264      2440.9791      2439.018       8816.2124      0             -9104.7831      0              0             -288.17358      201700.29      58.64561       58.64561       58.64561       0.89558808     388.93084     -1060.4579      250.39064    
    160000   320000         304.09483     -186.82313      11247.824      11797.382      7286.9429      4510.4387      2474.6542      2392.1533      8736.5619      0             -9092.9307      0              0             -288.17358      201700.29      58.64561       58.64561       58.64561       0.89558808    -239.53661      126.96873     -447.90153    
    161000   322000         295.89331     -227.91971      10938.665      11609.112      7090.4121      4518.7001      2479.1074      2325.879       8799.8723      0             -9086.1586      0              0             -288.17358      201700.29      58.64561       58.64561       58.64561       0.89558808     118.87476     -586.73176     -215.90214    
    162000   324000         301.01326      183.83788      12267.136      11726.36       7213.1001      4513.2595      2429.0516      2429.1692      8724.3053      0             -9069.2666      0              0             -288.17358      201700.29      58.64561       58.64561       58.64561       0.89558808     716.78937     -26.530659     -138.74508    
    163000   326000         305.52132     -74.586443      11621.557      11840.96       7321.1254      4519.8349      2460.1656      2363.4913      8776.352       0             -9080.174       0              0             -288.17358      201700.29      58.64561       58.64561       58.64561       0.89558808    -240.74719      345.65425     -328.66639    
    164000   328000         299.8677       54.845259      11866.911      11705.579      7185.6493      4519.9296      2467.4549      2395.2954      8757.9253      0             -9100.746       0              0             -288.17358      201700.29      58.64561       58.64561       58.64561       0.89558808    -37.306042     -658.9393       860.78112    
    165000   330000         298.10821      93.616678      11915.983      11640.601      7143.4872      4497.1141      2507.8487      2381.3677      8702.0266      0             -9094.129       0              0             -288.17358      201700.29      58.64561       58.64561       58.64561       0.89558808     83.915582      7.3068253      189.62763    
    166000   332000         300.71216     -511.90533      10213.838      11719.655      7205.885       4513.7698      2429.4071      2385.6978      8742.7492      0             -9044.0844      0              0             -288.17358      201700.29      58.64561       58.64561       58.64561       0.89558808    -578.0982      -897.3602      -60.257604    
    167000   334000         294.41318     -560.792        9914.7022      11564.323      7054.9441      4509.3793      2479.7477      2368.801       8724.8501      0             -9064.0195      0              0             -288.17358      201700.29      58.64561       58.64561       58.64561       0.89558808    -798.04379     -385.64197     -498.69025    
    168000   336000         301.58919      352.37308      12832.607      11796.069      7226.9009      4569.1679      2504.8076      2386.3311      8741.9354      0             -9063.9062      0              0             -288.17358      201700.29      58.64561       58.64561       58.64561       0.89558808     423.82241      477.21926      156.07757    
    169000   338000         303.8426      -370.64067      10731.166      11821.439      7280.8987      4540.5407      2372.3253      2436.7461      8791.8742      0             -9060.4049      0              0             -288.17358      201700.29      58.64561       58.64561       58.64561       0.89558808    -289.87582     -330.96735     -491.07884    
    170000   340000         291.98243      93.231833      11664.783      11390.533      6996.6968      4393.836       2422.7608      2301.464       8701.3824      0             -9031.7713      0              0             -288.17358      201700.29      58.64561       58.64561       58.64561       0.89558808     167.41762      188.33866     -76.060781    
    171000   342000         302.34405     -224.81051      11108.087      11769.387      7244.9894      4524.398       2440.4753      2336.2388      8787.9048      0             -9040.221       0              0             -288.17358      201700.29      58.64561       58.64561       58.64561       0.89558808     77.703128     -283.42244     -468.71221    
    172000   344000         299.89685     -146.33052      11214.573      11645.018      7186.3477      4458.6702      2483.9239      2414.602       8691.9937      0             -9131.8495      0              0             -288.17358      201700.29      58.64561       58.64561       58.64561       0.89558808    -94.597717      333.98752     -678.38135    
    173000   346000         299.14384     -149.07959      11316.207      11754.739      7168.3036      4586.4349      2458.0793      2487.258       8727.9464      0             -9086.8489      0              0             -288.17358      201700.29      58.64561       58.64561       58.64561       0.89558808    -128.53303      48.046437     -366.75216    
    174000   348000         297.3907      -463.94492      10314.642      11679.378      7126.2936      4553.0848      2450.6693      2457.8844      8753.2776      0             -9108.7466      0              0             -288.17358      201700.29      58.64561       58.64561       58.64561       0.89558808    -465.95726     -889.71566     -36.161839    
    175000   350000         299.95634      231.54019      12210.315      11529.218      7187.7733      4341.4451      2386.1705      2365.8625      8672.1879      0             -9082.7759      0              0             -288.17358      201700.29      58.64561       58.64561       58.64561       0.89558808     423.70301      526.85631     -255.93874    
    176000   352000         300.96992      152.17258      12237.642      11790.013      7212.0615      4577.9513      2440.1966      2497.8635      8726.6812      0             -9086.7899      0              0             -288.17358      201700.29      58.64561       58.64561       58.64561       0.89558808     315.60804     -9.6306911      150.54038    
    177000   354000         301.27629     -150.43088      11461.748      11904.255      7219.4029      4684.8519      2508.7263      2436.9136      8822.1502      0             -9082.9383      0              0             -288.17358      201700.29      58.64561       58.64561       58.64561       0.89558808    -260.81552     -588.51063      398.03351    
    178000   356000         302.03785      496.64561      13151.609      11690.68       7237.652       4453.028       2452.2718      2402.2075      8719.648       0             -9121.0993      0              0             -288.17358      201700.29      58.64561       58.64561       58.64561       0.89558808     570.75821      509.98664      409.19198    
    179000   358000         299.33029     -196.12247      11000.171      11577.083      7172.7716      4404.3114      2408.4599      2378.0473      8707.7018      0             -9089.8976      0              0             -288.17358      201700.29      58.64561       58.64561       58.64561       0.89558808    -66.848475     -463.7495      -57.769436    
    180000   360000         299.89868      34.603203      11766.479      11664.69       7186.3917      4478.2986      2449.3183      2408.3189      8703.413       0             -9082.7515      0              0             -288.17358      201700.29      58.64561       58.64561       58.64561       0.89558808     166.37352     -466.70679      404.14287    
    181000   362000         297.87822      411.4279       12846.353      11636.1        7137.9759      4498.1245      2450.1983      2333.1649      8794.5248      0             -9079.7636      0              0             -288.17358      201700.29      58.64561       58.64561       58.64561       0.89558808     131.37811      814.18319      288.72239    
    182000   364000         300.39847     -141.0909       11190.797      11605.829      7198.3681      4407.4604      2436.0273      2365.7463      8673.0594      0             -9067.3726      0              0             -288.17358      201700.29      58.64561       58.64561       58.64561       0.89558808    -241.4878      -78.405369     -103.37951    
    183000   366000         300.53082     -317.04909      10788.793      11721.422      7201.5396      4519.8826      2492.0811      2357.3533      8747.1024      0             -9076.6542      0              0             -288.17358      201700.29      58.64561       58.64561       58.64561       0.89558808    -708.83941      476.98443     -719.29228    
    184000   368000         299.8524       279.08521      12541.103      11720.148      7185.2827      4534.8657      2474.6873      2427.191       8709.2769      0             -9076.2894      0              0             -288.17358      201700.29      58.64561       58.64561       58.64561       0.89558808    -194.21059      294.856        736.61021    
    185000   370000         296.62774     -693.55866      9532.2169      11572.383      7108.0112      4464.3723      2448.5333      2459.6031      8641.3824      0             -9085.1465      0              0             -288.17358      201700.29      58.64561       58.64561       58.64561       0.89558808    -639.37692     -1104.9425     -336.35657    
    186000   372000         299.52702     -87.046486      11453.917      11709.972      7177.4857      4532.4866      2494.1112      2422.4242      8694.2039      0             -9078.2527      0              0             -288.17358      201700.29      58.64561       58.64561       58.64561       0.89558808     4.5196902     -235.02826     -30.630883    
    187000   374000         303.98599     -464.96746      10296.14       11663.884      7284.3347      4379.5493      2437.6598      2340.6913      8710.8865      0             -9109.6883      0              0             -288.17358      201700.29      58.64561       58.64561       58.64561       0.89558808    -843.29002     -332.51126     -219.10108    
    188000   376000         300.74312      172.91567      12094.026      11585.379      7206.6268      4378.7524      2412.2001      2373.9423      8674.9222      0             -9082.3122      0              0             -288.17358      201700.29      58.64561       58.64561       58.64561       0.89558808    -306.27771      88.533937      736.49077    
    189000   378000         303.01656      72.28453       12028.081      11815.449      7261.1047      4554.3447      2459.1824      2419.5103      8718.7303      0             -9043.0784      0              0             -288.17358      201700.29      58.64561       58.64561       58.64561       0.89558808    -211.84021      141.81736      286.87643    
    190000   380000         301.05383      170.02365      12220.702      11720.562      7214.0723      4506.4896      2440.3264      2338.8464      8799.4573      0             -9072.1404      0              0             -288.17358      201700.29      58.64561       58.64561       58.64561       0.89558808     264.61836      470.47724     -225.02466    
    191000   382000         299.25461     -125.43838      11329.839      11698.828      7170.9581      4527.8696      2454.6916      2445.782       8742.7931      0             -9115.3971      0              0             -288.17358      201700.29      58.64561       58.64561       58.64561       0.89558808    -313.34703     -651.79409      588.826      
    192000   384000         298.528       -585.09788      9986.2303      11707.349      7153.5464      4553.803       2445.5136      2435.5233      8778.5687      0             -9105.8026      0              0             -288.17358      201700.29      58.64561       58.64561       58.64561       0.89558808    -324.0699      -1167.5715     -263.65226    
    193000   386000         299.77111     -48.579303      11467.295      11610.196      7183.3347      4426.8608      2413.9727      2401.0237      8695.0698      0             -9083.2054      0              0             -288.17358      201700.29      58.64561       58.64561       58.64561       0.89558808    -86.662608      221.32938     -280.40468    
    194000   388000         299.96974      3.586309       11726.326      11715.776      7188.0946      4527.6819      2483.8362      2408.7175      8742.5722      0             -9107.4441      0              0             -288.17358      201700.29      58.64561       58.64561       58.64561       0.89558808    -16.769189      24.487015      3.0411007    
    195000   390000         304.12178      154.00521      12218.518      11765.497      7287.5888      4477.9084      2446.5777      2361.3378      8753.7843      0             -9083.7913      0              0             -288.17358      201700.29      58.64561       58.64561       58.64561       0.89558808    -533.63031      769.369        226.27695    
    196000   392000         299.2081       11.041867      11722.464      11689.984      7169.8436      4520.1399      2415.0611      2447.439       8703.0934      0             -9045.4535      0              0             -288.17358      201700.29      58.64561       58.64561       58.64561       0.89558808    -577.3889       140.99785      469.51665    
    197000   394000         294.61158     -329.75899      10733.023      11703.04       7059.6983      4643.3412      2481.4036      2425.7089      8781.5654      0             -9045.3367      0              0             -288.17358      201700.29      58.64561       58.64561       58.64561       0.89558808    -321.91214     -692.36638      25.001545    
    198000   396000         300.00009      130.27067      12090.908      11707.705      7188.8218      4518.8835      2455.0997      2360.9918      8755.7268      0             -9052.9349      0              0             -288.17358      201700.29      58.64561       58.64561       58.64561       0.89558808     714.33234      9.9088445     -333.42918    
    199000   398000         302.05266     -362.11148      10695.829      11761.013      7238.007       4523.0059      2417.9627      2438.0474      8703.9094      0             -9036.9136      0              0             -288.17358      201700.29      58.64561       58.64561       58.64561       0.89558808    -47.608895     -124.82142     -913.90412    
[...]
   1958000   3916000        297.29292     -379.63012      10489.876      11606.593      7123.9507      4482.6423      2433.577       2446.001       8714.3942      0             -9111.3299      0              0             -288.17358      201700.29      58.64561       58.64561       58.64561       0.89558808    -350.88881      133.1938      -921.19534    
   1959000   3918000        300.75355     -111.5767       11359.942      11688.155      7206.8768      4481.278       2441.3104      2425.6532      8683.2108      0             -9068.8964      0              0             -288.17358      201700.29      58.64561       58.64561       58.64561       0.89558808    -209.96866     -475.37452      350.61308    
   1960000   3920000        298.21908     -165.68233      11120.137      11607.507      7146.1438      4461.3629      2406.6305      2417.4912      8746.5069      0             -9109.2657      0              0             -288.17358      201700.29      58.64561       58.64561       58.64561       0.89558808    -449.72596     -120.89286      73.571811    
   1961000   3922000        302.2698       35.389539      11766.572      11662.471      7243.2102      4419.2604      2411.8609      2424.6679      8707.527       0             -9124.7954      0              0             -288.17358      201700.29      58.64561       58.64561       58.64561       0.89558808     35.431394      325.69622     -254.95899    
   1962000   3924000        306.38521     -266.93534      10951.454      11736.669      7341.8267      4394.8424      2517.6717      2353.0446      8647.9849      0             -9123.8587      0              0             -288.17358      201700.29      58.64561       58.64561       58.64561       0.89558808     174.11501     -526.00086     -448.92016    
   1963000   3926000        301.83625     -457.30546      10395.452      11740.658      7232.8211      4507.8366      2443.2868      2436.6762      8767.4858      0             -9139.6121      0              0             -288.17358      201700.29      58.64561       58.64561       58.64561       0.89558808     137.48486     -678.92321     -830.47803    
   1964000   3928000        302.76127     -136.45379      11350.677      11752.069      7254.9872      4497.0816      2402.9376      2466.534       8749.6272      0             -9122.0172      0              0             -288.17358      201700.29      58.64561       58.64561       58.64561       0.89558808    -238.59354     -300.10536      129.33754    
   1965000   3930000        297.38747      88.569562      11905.63       11645.094      7126.2163      4518.878       2470.9935      2397.856       8740.5946      0             -9090.5661      0              0             -288.17358      201700.29      58.64561       58.64561       58.64561       0.89558808     348.48523     -63.515427     -19.261113    
   1966000   3932000        298.48063     -257.00324      10798.321      11554.32       7152.4113      4401.9082      2406.5162      2387.7871      8701.0212      0             -9093.4162      0              0             -288.17358      201700.29      58.64561       58.64561       58.64561       0.89558808    -168.70596      34.880933     -637.1847     
   1967000   3934000        295.78337     -67.544178      11360.975      11559.663      7087.7776      4471.8851      2425.8082      2393.8182      8723.0126      0             -9070.7539      0              0             -288.17358      201700.29      58.64561       58.64561       58.64561       0.89558808    -133.31606     -125.54587      56.22939     
   1968000   3936000        296.38194     -60.445072      11403.28       11581.085      7102.1211      4478.9634      2418.4077      2443.6781      8717.2466      0             -9100.369       0              0             -288.17358      201700.29      58.64561       58.64561       58.64561       0.89558808     288.59694     -370.74244     -99.189714    
   1969000   3938000        297.64851     -207.92466      10993.207      11604.836      7132.4714      4472.3647      2447.8574      2359.5958      8757.3534      0             -9092.4419      0              0             -288.17358      201700.29      58.64561       58.64561       58.64561       0.89558808    -396.89945      182.9736      -409.84814    
   1970000   3940000        301.9918       609.90043      13451.636      11657.558      7236.5485      4421.0095      2405.0926      2430.7745      8674.8108      0             -9089.6684      0              0             -288.17358      201700.29      58.64561       58.64561       58.64561       0.89558808     776.45825      436.98559      616.25746    
   1971000   3942000        298.84102     -514.58035      10125.243      11638.928      7161.0472      4477.881       2368.5532      2382.2814      8791.4087      0             -9064.3623      0              0             -288.17358      201700.29      58.64561       58.64561       58.64561       0.89558808    -510.39764     -194.35133     -838.99207    
   1972000   3944000        295.11364      38.057587      11644.204      11532.255      7071.7291      4460.5254      2407.5447      2383.2357      8743.0408      0             -9073.2958      0              0             -288.17358      201700.29      58.64561       58.64561       58.64561       0.89558808     45.530524     -7.3110559      75.953293    
   1973000   3946000        300.73761      334.49882      12628.677      11644.718      7206.4948      4438.2232      2374.6775      2374.2522      8746.7694      0             -9057.4759      0              0             -288.17358      201700.29      58.64561       58.64561       58.64561       0.89558808     670.60989      144.44222      188.44434    
   1974000   3948000        300.62199     -176.8875       11164.801      11685.132      7203.7241      4481.408       2360.9048      2426.1393      8750.4698      0             -9056.1059      0              0             -288.17358      201700.29      58.64561       58.64561       58.64561       0.89558808     214.06635     -329.87346     -414.85538    
   1975000   3950000        298.75662     -44.69022       11658.889      11790.35       7159.0249      4631.3248      2444.874       2429.5997      8805.1038      0             -9048.2527      0              0             -288.17358      201700.29      58.64561       58.64561       58.64561       0.89558808     47.984859      221.87455     -403.93007    
   1976000   3952000        301.19131      10.974365      11714.805      11682.523      7217.3667      4465.1558      2411.6302      2368.3434      8773.354       0             -9088.1719      0              0             -288.17358      201700.29      58.64561       58.64561       58.64561       0.89558808     457.27104      53.334134     -477.68208    
   1977000   3954000        296.34755     -308.19798      10722.202      11628.795      7101.297       4527.4979      2381.6709      2434.9771      8787.5872      0             -9076.7373      0              0             -288.17358      201700.29      58.64561       58.64561       58.64561       0.89558808    -175.60235     -597.6445      -151.34711    
   1978000   3956000        302.9578      -418.09385      10483.007      11712.869      7259.6965      4453.1723      2423.8748      2376.3852      8771.7563      0             -9118.844       0              0             -288.17358      201700.29      58.64561       58.64561       58.64561       0.89558808    -426.81452     -312.92805     -514.539      
   1979000   3958000        300.69234     -590.34196      10033.152      11769.697      7205.41        4564.2868      2443.3343      2476.8674      8722.3705      0             -9078.2854      0              0             -288.17358      201700.29      58.64561       58.64561       58.64561       0.89558808    -19.69873      -360.92432     -1390.4028    
   1980000   3960000        299.52566      370.86153      12746.884      11655.961      7177.4531      4478.5075      2467.5674      2368.3356      8720.2723      0             -9077.6678      0              0             -288.17358      201700.29      58.64561       58.64561       58.64561       0.89558808    -42.652176      744.13016      411.10661    
   1981000   3962000        301.72576     -110.20976      11449.887      11774.08       7230.1735      4543.9061      2484.2444      2375.4102      8740.765       0             -9056.5135      0              0             -288.17358      201700.29      58.64561       58.64561       58.64561       0.89558808    -13.03808      -438.27167      120.68048    
   1982000   3964000        303.27698     -79.249863      11482.34       11715.46       7267.3449      4448.1155      2437.7501      2367.1262      8709.9288      0             -9066.6896      0              0             -288.17358      201700.29      58.64561       58.64561       58.64561       0.89558808     292.69107     -258.20365     -272.23701    
   1983000   3966000        298.48029      198.68545      12232.178      11647.726      7152.4032      4495.3231      2488.541       2338.8832      8720.9531      0             -9053.0541      0              0             -288.17358      201700.29      58.64561       58.64561       58.64561       0.89558808     292.93229      172.55418      130.56988    
   1984000   3968000        301.48155     -34.613279      11706.026      11807.845      7224.3215      4583.5231      2459.8797      2402.7258      8786.2395      0             -9065.3219      0              0             -288.17358      201700.29      58.64561       58.64561       58.64561       0.89558808     479.23208      32.710662     -615.78258    
   1985000   3970000        301.38891     -368.91417      10648.616      11733.811      7222.1016      4511.7091      2389.9846      2390.0243      8802.5623      0             -9070.8621      0              0             -288.17358      201700.29      58.64561       58.64561       58.64561       0.89558808    -890.77673     -80.727989     -135.23779    
   1986000   3972000        297.47858     -48.858082      11583.342      11727.062      7128.3994      4598.663       2460.843       2419.1994      8806.2817      0             -9087.6612      0              0             -288.17358      201700.29      58.64561       58.64561       58.64561       0.89558808     457.43906     -106.77562     -497.23768    
   1987000   3974000        298.3611      -27.555471      11544.148      11625.205      7149.547       4475.658       2433.5449      2408.1396      8742.7882      0             -9108.8147      0              0             -288.17358      201700.29      58.64561       58.64561       58.64561       0.89558808     352.16744      54.583255     -489.41711    
   1988000   3976000        297.64318     -397.62659      10439.833      11609.488      7132.3438      4477.1445      2449.0558      2408.2063      8689.0997      0             -9069.2172      0              0             -288.17358      201700.29      58.64561       58.64561       58.64561       0.89558808    -178.83476     -1098.2324      84.187406    
   1989000   3978000        297.61675      219.04508      12283.778      11639.436      7131.7104      4507.726       2432.8501      2433.8645      8716.8222      0             -9075.8108      0              0             -288.17358      201700.29      58.64561       58.64561       58.64561       0.89558808     473.75192     -76.698651      260.08198    
   1990000   3980000        300.06003     -211.03447      11178.468      11799.245      7190.258       4608.9869      2469.7939      2442.2449      8760.4703      0             -9063.5222      0              0             -288.17358      201700.29      58.64561       58.64561       58.64561       0.89558808    -278.83323      272.48615     -626.75634    
   1991000   3982000        300.80656      107.84951      12021.231      11703.982      7208.1471      4495.8346      2458.2686      2375.914       8744.0261      0             -9082.3741      0              0             -288.17358      201700.29      58.64561       58.64561       58.64561       0.89558808    -311.4992       483.59971      151.44802    
   1992000   3984000        299.22235     -398.50329      10559.264      11731.499      7170.1851      4561.3135      2483.1265      2376.4234      8770.9749      0             -9069.2113      0              0             -288.17358      201700.29      58.64561       58.64561       58.64561       0.89558808    -816.83344     -286.95794     -91.7185      
   1993000   3986000        298.89112     -257.12658      10869.82       11626.182      7162.2477      4463.9341      2455.3555      2353.3835      8729.4489      0             -9074.2539      0              0             -288.17358      201700.29      58.64561       58.64561       58.64561       0.89558808    -289.97686     -124.64592     -356.75695    
   1994000   3988000        298.89987     -431.1764       10342.567      11610.912      7162.4575      4448.4545      2413.5242      2413.032       8680.5575      0             -9058.6592      0              0             -288.17358      201700.29      58.64561       58.64561       58.64561       0.89558808    -363.6305      -880.31828     -49.580412    
   1995000   3990000        298.49401      22.251038      11652.821      11587.367      7152.732       4434.6355      2394.7719      2404.8752      8728.9006      0             -9093.9122      0              0             -288.17358      201700.29      58.64561       58.64561       58.64561       0.89558808     249.56529      466.91794     -649.73011    
   1996000   3992000        304.24903      436.43727      13008.501      11724.681      7290.6381      4434.0424      2363.6962      2431.0605      8703.1556      0             -9063.8698      0              0             -288.17358      201700.29      58.64561       58.64561       58.64561       0.89558808     461.74202      822.73092      24.838856    
   1997000   3994000        297.54192     -329.0613       10742.237      11710.201      7129.9174      4580.2835      2462.4707      2456.11        8742.6857      0             -9080.9829      0              0             -288.17358      201700.29      58.64561       58.64561       58.64561       0.89558808    -266.5175      -157.59838     -563.06803    
   1998000   3996000        300.95821      208.82705      12339.322      11725.038      7211.7808      4513.2573      2439.9337      2369.4971      8801.1822      0             -9097.3557      0              0             -288.17358      201700.29      58.64561       58.64561       58.64561       0.89558808     328.41064      163.86061      134.2099     
   1999000   3998000        297.90024      366.94286      12753.213      11673.817      7138.5036      4535.3135      2451.5595      2369.2103      8772.5953      0             -9058.0516      0              0             -288.17358      201700.29      58.64561       58.64561       58.64561       0.89558808     542.74575     -100.78715      658.86997    
   2000000   4000000        301.41508     -303.13172      10858.603      11750.293      7222.7287      4527.5638      2442.7976      2379.3045      8756.9274      0             -9051.4657      0              0             -288.17358      201700.29      58.64561       58.64561       58.64561       0.89558808    -247.12463     -274.44931     -387.82122    
Loop time of 2894.41 on 1 procs for 2000000 steps with 8040 atoms

Performance: 119.403 ns/day, 0.201 hours/ns, 690.987 timesteps/s, 5.556 Matom-step/s
99.5% CPU use with 1 MPI tasks x 1 OpenMP threads

MPI task timing breakdown:
Section |  min time  |  avg time  |  max time  |%varavg| %total
---------------------------------------------------------------
Pair    | 361.91     | 361.91     | 361.91     |   0.0 | 12.50
Bond    | 2030.1     | 2030.1     | 2030.1     |   0.0 | 70.14
Neigh   | 1.0777     | 1.0777     | 1.0777     |   0.0 |  0.04
Comm    | 214.08     | 214.08     | 214.08     |   0.0 |  7.40
Output  | 33.287     | 33.287     | 33.287     |   0.0 |  1.15
Modify  | 162.61     | 162.61     | 162.61     |   0.0 |  5.62
Other   |            | 91.3       |            |       |  3.15

Nlocal:           8040 ave        8040 max        8040 min
Histogram: 1 0 0 0 0 0 0 0 0 0
Nghost:          21610 ave       21610 max       21610 min
Histogram: 1 0 0 0 0 0 0 0 0 0
Neighs:              0 ave           0 max           0 min
Histogram: 1 0 0 0 0 0 0 0 0 0

Total # of neighbors = 0
Ave neighs/atom = 0
Ave special neighs/atom = 5.9701493
Neighbor list builds = 52609
Dangerous builds = 0

# --- Cleanup ---
unfix nvt_fix

undump dump_nvt

# --- Write Output ---
write_dump all custom nvt_production_last.dump id type mol x y z xu yu zu vx vy vz modify sort id
write_data /home/arz2/PolyJarvis/data/cis-PBD3/lammps/nvt_production/nvt_production_out.data
System init for write_data ...
Generated 3 of 3 mixed pair_coeff terms from arithmetic mixing rule

print "STAGE COMPLETE: NVT T=300.0->300.0K steps=2000000"
STAGE COMPLETE: NVT T=300.0->300.0K steps=2000000
quit
70.14
Neigh   | 1.0777     | 1.0777     | 1.0777     |   0.0 |  0.04
Comm    | 214.08     | 214.08     | 214.08     |   0.0 |  7.40
Output  | 33.287     | 33.287     | 33.287     |   0.0 |  1.15
Modify  | 162.61     | 162.61     | 162.61     |   0.0 |  5.62
Other   |            | 91.3       |            |       |  3.15

Nlocal:           8040 ave        8040 max        8040 min
Histogram: 1 0 0 0 0 0 0 0 0 0
Nghost:          21610 ave       21610 max       21610 min
Histogram: 1 0 0 0 0 0 0 0 0 0
Neighs:              0 ave           0 max           0 min
Histogram: 1 0 0 0 0 0 0 0 0 0

Total # of neighbors = 0
Ave neighs/atom = 0
Ave special neighs/atom = 5.9701493
Neighbor list builds = 52609
Dangerous builds = 0
System init for write_data ...


---------------------------------------------------------------------
      Device Time Info (average): 
---------------------------------------------------------------------
Data Transfer:   195.4731 s.
Neighbor copy:   8.5176 s.
Neighbor build:  39.6802 s.
Force calc:      523.3677 s.
Device Overhead: 63.1040 s.
CPU Neighbor:    17.2664 s.
CPU Cast/Pack:   152.5626 s.
CPU Driver_Time: 26.3876 s.
CPU Idle_Time:   37.5577 s.
Average split:   1.0000.
Max Mem / Proc:  94.83 MB.
Prefetch mode:   None.
Vector width:    32.
Lanes / atom:    4.
Pair block:      256.
Neigh block:     128.
Neigh mode:      Hybrid (binning on host) with subgroup support.
Neigh sorting:   Unavailable or disabled.
---------------------------------------------------------------------


--------------------------------------------------------------------------
- Using acceleration for lj/cut:
-  with 1 proc(s) per device.
-  with 1 thread(s) per proc.
-  Horizontal vector operations: ENABLED
-  Shared memory system: No
--------------------------------------------------------------------------
Device 0: Quadro RTX 6000, 72 CUs, 12/24 GB, 1.8 GHZ (Mixed Precision)
--------------------------------------------------------------------------

Initializing Device and compiling on process 0...Done.
Initializing Device 0 on core 0...Done.

Generated 3 of 3 mixed pair_coeff terms from arithmetic mixing rule
STAGE COMPLETE: NVT T=300.0->300.0K steps=2000000
Cuda driver error 4 in call at file '/home/arz2/lammps/lib/gpu/geryon/nvd_timer.h' in line 98.
Cuda driver error 4 in call at file '/home/arz2/lammps/lib/gpu/geryon/nvd_timer.h' in line 99.
Cuda driver error 4 in call at file '/home/arz2/lammps/lib/gpu/geryon/nvd_timer.h' in line 98.
Cuda driver error 4 in call at file '/home/arz2/lammps/lib/gpu/geryon/nvd_timer.h' in line 99.
Cuda driver error 4 in call at file '/home/arz2/lammps/lib/gpu/geryon/nvd_timer.h' in line 98.
Cuda driver error 4 in call at file '/home/arz2/lammps/lib/gpu/geryon/nvd_timer.h' in line 99.
