units real
atom_style full
boundary p p p

# --- Force Field Styles ---
pair_style lj/class2/coul/long 9.5 9.5
kspace_style pppm 1e-6
dielectric 1.000000
bond_style class2
angle_style class2
dihedral_style class2
improper_style class2
special_bonds lj/coul 0 0 1
pair_modify mix sixthpower tail yes
neighbor 2.0 bin
neigh_modify delay 0 every 1 check yes
neigh_modify one 4000
# KOKKOS: package loaded via -pk kokkos on the command line

read_data /home/arz2/PolyJarvis/data/PEG1/lammps/equil/npt_production/npt_production_out.data
Reading data file ...
  orthogonal box = (4.1378782 4.1378782 4.1378782) to (45.183255 45.183255 45.183255)
  1 by 1 by 1 MPI processor grid
  reading atoms ...
  7020 atoms
  reading velocities ...
  7020 velocities
  scanning bonds ...
  4 = max bonds/atom
  scanning angles ...
  10 = max angles/atom
  scanning dihedrals ...
  16 = max dihedrals/atom
  scanning impropers ...
  7 = max impropers/atom
  orthogonal box = (4.1378782 4.1378782 4.1378782) to (45.183255 45.183255 45.183255)
  1 by 1 by 1 MPI processor grid
  reading bonds ...
  7010 bonds
  reading angles ...
  13000 angles
  reading dihedrals ...
  14970 dihedrals
  reading impropers ...
  8000 impropers
Finding 1-2 1-3 1-4 neighbors ...
  special bond factors lj:    0        0        1       
  special bond factors coul:  0        0        1       
     4 = max # of 1-2 neighbors
     6 = max # of 1-3 neighbors
     8 = max # of special neighbors
  special bonds CPU = 0.004 seconds
  read_data CPU = 0.279 seconds


# --- Thermo Output ---
thermo_style custom step time temp press enthalpy etotal ke pe ebond eangle edihed eimp evdwl ecoul elong etail vol lx ly lz density pxx pyy pzz
thermo_modify flush yes
thermo 100

# --- Trajectory ---
dump dump_npt all custom 1000 /home/arz2/PolyJarvis/data/PEG1/lammps/mechanical/bm_series/bm_P3000/bm_P3000.dump id type mol x y z ix iy iz vx vy vz

# --- Restart Checkpointing ---
restart 10000 npt_1.rst npt_2.rst

# --- Initial Velocities (optional) ---
# Velocities read from data file

# --- SHAKE Constraints ---
fix shake_fix all shake 1e-4 1000 0 m 1.008
Finding SHAKE clusters ...
      10 = # of size 2 clusters
    1990 = # of size 3 clusters
      10 = # of size 4 clusters
       0 = # of frozen angles
  find clusters CPU = 0.003 seconds

# --- NPT Thermostat + Barostat (Nose-Hoover) ---
# T_damp = 100.0 fs  (heat bath coupling)
# P_damp = 1000.0 fs  (pressure bath coupling, ~10x T_damp typical)
# Ramp: T=300.0->300.0K  P=3000.0->3000.0atm
timestep 1.0
fix npt_fix all npt temp 300.0 300.0 100.0 iso 3000.0 3000.0 1000.0

run 500000
PPPM Kokkos initialization ...
  using 12-bit tables for long-range coulomb
  G vector (1/distance) = 0.30305103
  grid = 30 30 30
  stencil order = 5
  estimated absolute RMS force accuracy = 0.00030548329
  estimated relative force accuracy = 9.1995386e-07
  using double precision cuFFT
  3d grid and FFT values/proc = 50653 27000
Generated 10 of 10 mixed pair_coeff terms from sixthpower/sixthpower mixing rule
Neighbor list info ...
  update: every = 1 steps, delay = 0 steps, check = yes
  max neighbors/atom: 4000, page size: 100000
  master list distance cutoff = 11.5
  ghost atom cutoff = 11.5
  binsize = 11.5, bins = 4 4 4
  1 neighbor lists, perpetual/occasional/extra = 1 0 0
  (1) pair lj/class2/coul/long/kk, perpetual
      attributes: full, newton off, kokkos_device
      pair build: full/bin/kk/device
      stencil: full/bin/3d
      bin: kk/device
Per MPI rank memory allocation (min/avg/max) = 34.17 | 34.17 | 34.17 Mbytes
   Step          Time           Temp          Press         Enthalpy        TotEng         KinEng         PotEng         E_bond        E_angle        E_dihed        E_impro         E_vdwl         E_coul         E_long         E_tail         Volume           Lx             Ly             Lz          Density          Pxx            Pyy            Pzz      
         0   0              371.04646      5666.3653      8484.6663      2770.2328      6281.082      -3510.8492      1022.0476      4891.5415     -8492.8744     -52.649088     -2958.3912      6962.8611     -4883.3847     -464.2469       69150.087      41.045377      41.045377      41.045377      1.0583668      7086.5346      5277.1599      4635.4013    
       100   100            296.92847      1075.5713      2738.5882      1662.9309      5026.4111     -3363.4802      1026.9003      4935.3264     -8429.0479     -51.183716     -2922.2306      6963.7738     -4887.0186     -468.14773      68573.896      40.931055      40.931055      40.931055      1.0672598      1053.0425      1635.8355      537.83592    
       200   200            296.5291       2777.7563      4320.7093      1587.8085      5019.6506     -3431.8421      1001.8799      4995.4599     -8487.6595     -51.058502     -2958.858       6956.8315     -4888.4373     -475.86954      67461.165      40.708454      40.708454      40.708454      1.0848636      3669.1302      1693.1178      2971.0209    
       300   300            297.50787      3428.2787      4853.9079      1519.1603      5036.2193     -3517.059       1000.1842      4968.7719     -8506.9651     -49.912972     -3005.6124      6964.1342     -4887.6589     -481.31654      66697.715      40.554307      40.554307      40.554307      1.0972814      4239.0912      3143.7652      2901.9797    
       400   400            299.7212       3373.1674      4807.5423      1550.2431      5073.6865     -3523.4434      1010.7566      4881.7211     -8448.2198     -49.21195      -3005.5012      6973.4854     -4886.4735     -484.83936      66213.093      40.455846      40.455846      40.455846      1.1053125      2504.0694      4064.2857      3551.1469    
       500   500            301.87993      2869.4261      4297.5861      1538.2584      5110.2296     -3571.9711      989.36173      4967.7932     -8490.8825     -51.125368     -3060.1817      6959.3647     -4886.3012     -486.86595      65937.48       40.399636      40.399636      40.399636      1.1099326      3521.7501      2774.0003      2312.5278    
       600   600            300.81581      3258.0839      4633.3068      1510.4445      5092.2162     -3581.7717      988.16298      4877.5718     -8424.9704     -50.417415     -3043.4739      6956.3012     -4884.9459     -488.45781      65722.592      40.355701      40.355701      40.355701      1.1135617      2654.6063      2479.2038      4640.4418    
       700   700            296.73075      3810.2478      5066.2349      1421.2688      5023.0642     -3601.7954      981.66267      4892.3717     -8467.2564     -47.911272     -3037.8079      6962.8095     -4885.6638     -489.4151       65594.039      40.329372      40.329372      40.329372      1.1157441      2976.1475      3870.9464      4583.6495    
       800   800            293.66088      2495.9777      3712.347       1322.6431      4971.0974     -3648.4543      966.06369      4894.6013     -8484.248      -50.310428     -3059.7286      6967.2039     -4882.0361     -489.00606      65648.907      40.340614      40.340614      40.340614      1.1148115      3315.7998      1772.3271      2399.8061    
       900   900            294.29654      3278.9329      4516.3032      1371.8265      4981.8578     -3610.0313      916.01208      4903.0448     -8448.1938     -49.444057     -3001.3521      6951.3439     -4881.442      -488.20451      65756.692      40.362679      40.362679      40.362679      1.1129842      2258.7732      3341.0203      4237.0052    
      1000   1000           300.48625      2898.2951      4295.3896      1508.4192      5086.6373     -3578.2182      980.23618      4935.0937     -8459.8996     -53.397231     -3052.5388      6956.5523     -4884.2647     -486.88666      65934.675      40.399063      40.399063      40.399063      1.1099798      2855.6886      3092.5424      2746.6542    
      1100   1100           303.89784      2875.349       4299.3292      1531.3712      5144.3888     -3613.0175      977.34115      4894.9582     -8485.2196     -50.05862      -3035.6643      6971.6011     -4885.9755     -486.34977      66007.461      40.413923      40.413923      40.413923      1.1087559      2920.2724      4053.3071      1652.4676    
      1200   1200           296.00534      2633.8616      4048.1066      1511.5653      5010.7844     -3499.2191      1020.3324      4853.3886     -8399.3545     -50.091079     -3007.0004      6970.642      -4887.1361     -486.14817      66034.834      40.419509      40.419509      40.419509      1.1082963      3628.2129      2447.9167      1825.4553    
      1300   1300           297.11572      3415.72        4742.0842      1456.3412      5029.581      -3573.2398      994.99921      4937.3859     -8466.1469     -53.278667     -3062.3504      6958.461      -4882.31       -486.70555      65959.21       40.404073      40.404073      40.404073      1.1095669      4204.0744      2433.986       3609.0996    
      1400   1400           296.02973      2881.1382      4148.3484      1382.2975      5011.1973     -3628.8998      995.90762      4868.1881     -8437.6166     -50.022973     -3084.8969      6964.8352     -4885.2942     -487.66495      65829.447      40.37756       40.37756       40.37756       1.1117541      2451.6389      3086.7443      3105.0313    
      1500   1500           297.07675      2729.2897      3956.728       1343.2632      5028.9212     -3685.658       942.50567      4890.8405     -8414.21       -51.459304     -3123.7723      6956.5699     -4886.1324     -488.93443      65658.525      40.342584      40.342584      40.342584      1.1146482      2582.1907      2321.8287      3283.8497    
      1600   1600           300.9255       3328.7036      4620.3445      1440.007       5094.073      -3654.0661      969.97617      4866.9164     -8506.6821     -50.729874     -3016.6144      6966.372      -4883.3043     -490.02647      65512.202      40.312593      40.312593      40.312593      1.1171378      4128.0344      3189.429       2668.6476    
      1700   1700           302.52837      2435.2811      3889.4786      1562.3435      5121.2063     -3558.8628      1002.8788      4961.5459     -8449.1107     -54.191649     -3088.3796      6954.0463     -4885.6518     -489.94254      65523.426      40.314895      40.314895      40.314895      1.1169465      3009.8992      3267.4547      1028.4895    
      1800   1800           303.80634      3817.5394      5216.2519      1566.7614      5142.8399     -3576.0785      984.75844      4854.5049     -8446.9096     -47.125078     -2996.5302      6962.2333     -4887.0102     -489.74377      65550.02       40.320348      40.320348      40.320348      1.1164933      4209.1808      4596.4821      2646.9552    
      1900   1900           298.83275      2685.7596      4055.8135      1481.7515      5058.6469     -3576.8955      951.37499      4996.5919     -8446.5693     -55.017466     -3098.6864      6957.494      -4882.0831     -488.50134      65716.736      40.354502      40.354502      40.354502      1.1136609      1737.8583      3958.7467      2360.6738    
      2000   2000           296.35822      3447.6503      4720.8886      1416.1952      5016.758      -3600.5628      953.59589      4898.3167     -8436.809      -50.443977     -3048.5236      6968.5167     -4885.2155     -488.43825      65725.224      40.35624       40.35624       40.35624       1.1135171      3029.9721      4523.2678      2789.711     
      2100   2100           297.35765      2558.434       3896.4606      1445.7393      5033.6763     -3587.937       951.83396      4988.4333     -8452.5376     -52.573093     -3098.4211      6960.5561     -4885.2286     -488.76256      65681.614      40.347312      40.347312      40.347312      1.1142564      2412.8253      2224.9653      3037.5114    
      2200   2200           301.70567      3240.2824      4690.6339      1591.6252      5107.2798     -3515.6546      1021.5675      4963.7636     -8379.1261     -50.421489     -3135.4976      6953.1495     -4889.0901     -489.52818      65578.888      40.326266      40.326266      40.326266      1.1160018      4103.7688      1834.9006      3782.1779    
      2300   2300           298.12516      3319.9152      4783.1472      1615.2557      5046.6687     -3431.4131      1000.4638      4988.7201     -8429.6965     -53.550092     -3005.257       6954.4525     -4886.5457     -490.65284      65428.57       40.295431      40.295431      40.295431      1.1185658      2509.7915      2708.1102      4741.8438    
      2400   2400           301.03492      3125.2222      4492.6503      1511.1046      5095.9251     -3584.8205      980.86806      4893.6282     -8369.5755     -54.857977     -3117.788       6964.0959     -4881.1912     -490.74633      65416.105      40.292872      40.292872      40.292872      1.1187789      3928.0509      2774.467       2673.1487    
      2500   2500           299.32469      3874.3054      5126.0355      1432.4703      5066.9744     -3634.5041      990.67401      4883.0907     -8463.7723     -49.301417     -3072.6274      6966.6408     -4889.2086     -491.09523      65369.631      40.283328      40.283328      40.283328      1.1195743      3948.736       2415.084       5259.0962    
      2600   2600           297.96404      2716.0284      4021.1158      1428.2351      5043.9412     -3615.7061      945.95357      4972.083      -8441.3118     -50.171231     -3106.7819      6952.8016     -4888.2794     -490.42141      65459.446      40.301769      40.301769      40.301769      1.1180382      1901.7194      4195.8388      2050.5271    
      2700   2700           303.00352      2361.1666      3735.1424      1481.9872      5129.2498     -3647.2626      998.39754      4813.8561     -8419.8383     -52.685574     -3067.3135      6966.8891     -4886.5678     -490.62893      65431.758      40.296086      40.296086      40.296086      1.1185113      2600.9209      2195.1373      2287.4417    
      2800   2800           305.31501      3391.5969      4797.4061      1561.8874      5168.3786     -3606.4912      977.90278      4952.3741     -8426.0596     -54.608137     -3128.0067      6961.6474     -4889.741      -490.76993      65412.959      40.292226      40.292226      40.292226      1.1188327      3172.4296      3888.9901      3113.371     
      2900   2900           307.94184      2989.7798      4550.4914      1695.6516      5212.8457     -3517.1941      1001.7491      4981.1739     -8462.4536     -53.366495     -3048.3067      6951.3897     -4887.38       -490.31492      65473.662      40.304686      40.304686      40.304686      1.1177954      2599.8997      3840.3635      2529.0763    
      3000   3000           305.08186      3426.4836      5030.1625      1752.5978      5164.4319     -3411.8341      1023.5332      4960.3778     -8378.1233     -53.738021     -3030.7804      6956.9036     -4890.0069     -489.45753      65588.354      40.328207      40.328207      40.328207      1.1158408      3936.1462      4008.7968      2334.5077    
      3100   3100           301.3136       1174.8874      2715.1343      1589.8737      5100.6427     -3510.769       1048.2639      4971.0098     -8413.9107     -49.016391     -3110.0538      6932.6766     -4889.7385     -488.83326      65672.114      40.345367      40.345367      40.345367      1.1144176      832.77841      174.9391       2516.9446    
      3200   3200           303.45368      3704.0752      5075.2341      1533.5838      5136.8701     -3603.2863      944.06971      4980.5175     -8467.4773     -53.331343     -3073.2221      6955.3035     -4889.1462     -489.65676      65561.668      40.322737      40.322737      40.322737      1.116295       2829.7188      3818.5627      4463.9441    
      3300   3300           297.41795      1999.4322      3357.1979      1447.0131      5034.6972     -3587.6841      1016.7224      4909.832      -8426.1456     -50.222185     -3095.1283      6945.2736     -4888.0159     -490.05965      65507.768      40.311683      40.311683      40.311683      1.1172135      2665.1666     -153.96983      3487.1       
      3400   3400           300.58886      3699.8853      4945.3323      1410.3934      5088.3744     -3677.981       961.46434      4947.5754     -8500.7654     -52.994263     -3094.4038      6950.6774     -4889.5346     -490.03147      65511.534      40.312456      40.312456      40.312456      1.1171492      4073.1698      3395.2905      3631.1955    
      3500   3500           300.90189      2504.4596      3868.1051      1468.4377      5093.6733     -3625.2355      981.55931      4874.377      -8406.8398     -52.252287     -3081.2495      6948.4292     -4889.2595     -488.63054      65699.36       40.350945      40.350945      40.350945      1.1139554      3322.471       1223.493       2967.4147    
      3600   3600           302.81324      2203.5081      3695.1901      1580.2631      5126.0286     -3545.7655      1006.6712      4947.9974     -8423.8479     -54.900167     -3097.8025      6963.1576     -4887.0411     -487.79451      65811.962      40.373985      40.373985      40.373985      1.1120495      2401.2107      1571.0071      2638.3066    
      3700   3700           305.96548      2809.6415      4270.8154      1577.1656      5179.3898     -3602.2242      989.9692       4875.8994     -8408.9822     -49.7246       -3073.3502      6953.2519     -4889.2877     -488.34576      65737.672      40.358787      40.358787      40.358787      1.1133062      3049.4005      3466.1857      1913.3383    
      3800   3800           302.10037      2093.0211      3528.0218      1526.8587      5113.9612     -3587.1026      1012.2644      4947.3489     -8420.5792     -52.076622     -3138.9846      6953.5938     -4888.6691     -489.67593      65559.101      40.32221       40.32221       40.32221       1.1163387      2809.5872      1632.9644      1836.5118    
      3900   3900           302.20573      3497.3809      4849.4295      1518.646       5115.7447     -3597.0987      977.11781      4940.4362     -8439.6628     -53.411099     -3081.2197      6949.1947     -4889.5539     -491.60259      65302.165      40.269465      40.269465      40.269465      1.120731       3286.7073      3012.7528      4192.6826    
      4000   4000           296.1112       2376.8882      3752.8206      1494.0231      5012.5764     -3518.5533      1031.8526      5005.7378     -8451.641      -52.848176     -3124.5455      6957.1972     -4884.3062     -492.66203      65161.737      40.240579      40.240579      40.240579      1.1231462      2262.3043      2195.1979      2673.1624    
      4100   4100           293.25375      3741.3398      4953.9824      1394.7015      4964.2054     -3569.5039      981.20912      4939.6594     -8389.1413     -51.618258     -3120.9316      6957.2668     -4885.9481     -492.13304      65231.779      40.254992      40.254992      40.254992      1.1219403      3849.9156      3266.9868      4107.1171    
      4200   4200           291.64009      2488.2955      3654.054       1284.4227      4936.8894     -3652.4667      979.10901      5007.7961     -8473.4        -52.863745     -3154.0329      6932.4933     -4891.5685     -491.63049      65298.459      40.268703      40.268703      40.268703      1.1207946      2251.7256      3534.1496      1679.0114    
      4300   4300           296.06838      1609.2985      2883.4291      1349.1527      5011.8516     -3662.6989      1032.4883      4816.0478     -8408.8126     -50.192056     -3122.4848      6957.5448     -4887.2903     -491.0782       65371.897      40.283794      40.283794      40.283794      1.1195355      2698.3482      849.76768      1279.7797    
      4400   4400           300.44009      2722.4158      4055.2561      1461.4546      5085.856      -3624.4014      991.05246      4929.6101     -8425.9867     -52.870241     -3141.2749      6960.1374     -4885.0694     -491.40023      65329.057      40.274992      40.274992      40.274992      1.1202697      2954.6268      2782.9572      2429.6634    
      4500   4500           298.1486       2446.8377      3820.4964      1491.557       5047.0656     -3555.5085      986.72545      5063.3549     -8444.7178     -55.477366     -3175.9441      6955.8025     -4885.2522     -491.88618      65264.516      40.261725      40.261725      40.261725      1.1213775      3081.1277      2152.9785      2106.407     
      4600   4600           300.12271      3117.9911      4498.1543      1533.753       5080.4834     -3546.7304      985.34458      4998.6341     -8403.9395     -52.013612     -3148.9268      6959.7476     -4885.5767     -492.44247      65190.79       40.246558      40.246558      40.246558      1.1226457      2654.4482      3771.045       2928.48      
      4700   4700           299.54092      3086.0774      4487.4918      1556.1168      5070.6348     -3514.518       973.3433       5098.7809     -8465.0972     -50.570045     -3145.2382      6959.6708     -4885.4075     -492.89348      65131.139      40.234279      40.234279      40.234279      1.1236739      3377.435       3385.3463      2495.451     
      4800   4800           297.32142      2825.0424      4135.3443      1454.4861      5033.063      -3578.5768      1048.4746      4947.008      -8470.0719     -52.209191     -3117.0195      6949.4172     -4884.1761     -493.36548      65068.828      40.221444      40.221444      40.221444      1.1247499      2120.7561      2310.298       4044.073     
      4900   4900           298.54936      3576.3808      4755.1427      1359.5341      5053.8496     -3694.3156      976.46519      4811.6557     -8371.2278     -51.002857     -3142.0419      6966.6546     -4884.8185     -493.10994      65102.548      40.228391      40.228391      40.228391      1.1241674      2415.1135      3200.8647      5113.1643    
      5000   5000           295.43794      3127.6424      4368.6109      1391.4222      5001.1794     -3609.7572      996.45785      4933.0296     -8437.8728     -51.490199     -3128.0009      6960.7427     -4882.6233     -491.84513      65269.963      40.262845      40.262845      40.262845      1.1212839      2160.4535      3639.9863      3582.4876    
      5100   5100           299.21577      2941.5478      4295.6089      1488.1124      5065.1305     -3577.0181      1025.3807      4960.2613     -8454.3094     -52.803034     -3120.8853      6954.1549     -4888.8173     -490.53988      65443.637      40.298524      40.298524      40.298524      1.1183083      4615.9971      1523.3513      2685.2951    
      5200   5200           301.17777      1788.2159      3200.6297      1495.8384      5098.3434     -3602.505       1058.587       4907.421      -8484.0739     -53.393566     -3128.2288      6975.6729     -4878.4896     -491.09597      65369.531      40.283308      40.283308      40.283308      1.119576       1204.0173      2676.7869      1483.8436    
      5300   5300           297.9882       4171.0364      5439.4277      1478.7277      5044.3502     -3565.6225      1002.4141      4989.6084     -8439.187      -54.976193     -3123.9584      6949.5777     -4889.1011     -493.04854      65110.656      40.230061      40.230061      40.230061      1.1240274      4629.0475      3930.6872      3953.3746    
      5400   5400           299.3358       1585.5101      2951.5972      1446.9269      5067.1625     -3620.2355      1055.0429      4912.4784     -8407.1506     -53.70394      -3199.3342      6956.0305     -4883.5986     -493.33884      65072.342      40.222168      40.222168      40.222168      1.1246892      579.42655      1914.44        2262.6637    
      5500   5500           291.40569      3596.6843      4761.8298      1349.8718      4932.9214     -3583.0496      1011.1122      4967.9456     -8450.6472     -51.379471     -3131.5689      6958.6026     -4887.1144     -493.53309      65046.73       40.216891      40.216891      40.216891      1.125132       3430.1635      2452.8894      4907.0001    
      5600   5600           296.82348      2956.7354      4145.0021      1337.7529      5024.6339     -3686.881       1044.0612      4836.2493     -8437.0132     -51.106195     -3142.495       6952.3487     -4888.9258     -493.11605      65101.741      40.228225      40.228225      40.228225      1.1241813      3827.5836      3859.6503      1182.9724    
      5700   5700           296.89583      2368.7537      3713.0887      1461.1798      5025.8587     -3564.6789      1038.3254      4939.1575     -8465.0944     -50.102976     -3109.9698      6968.2784     -4885.2731     -492.47786      65186.105      40.245594      40.245594      40.245594      1.1227264      2787.4055      1944.6235      2374.2321    
      5800   5800           299.23876      2899.6243      4266.5035      1505.8445      5065.5198     -3559.6752      1023.9318      4965.8623     -8465.9332     -50.908632     -3117.0283      6971.6611     -4887.2602     -491.75255      65282.252      40.265371      40.265371      40.265371      1.1210728      2253.0802      2853.7068      3592.0861    
      5900   5900           302.15394      3057.5295      4417.7594      1500.5558      5114.8681     -3614.3122      1017.4847      4886.8309     -8399.8161     -52.946978     -3147.9592      6967.8301     -4885.7357     -490.70622      65421.453      40.29397       40.29397       40.29397       1.1186875      4013.1021      2280.7768      2878.7096    
      6000   6000           302.73591      3416.5171      4737.6682      1475.4834      5124.7196     -3649.2362      992.52789      4891.0246     -8460.9937     -51.563643     -3089.5592      6959.1161     -4889.7882     -490.33475      65471.015      40.304143      40.304143      40.304143      1.1178406      3231.4744      2672.2573      4345.8195    
      6100   6100           296.52725      2641.1598      4010.231       1487.4337      5019.6193     -3532.1856      1070.2754      4901.177      -8443.23       -49.973369     -3089.1971      6963.9667     -4885.2043     -490.15106      65495.55       40.309177      40.309177      40.309177      1.1174219      2395.9892      3625.6899      1901.8004    
      6200   6200           297.88685      3515.0653      4889.3312      1532.4103      5042.6346     -3510.2243      1033.0478      5015.5705     -8464.9406     -55.254694     -3114.4194      6963.3623     -4887.5901     -490.24133      65483.491      40.306703      40.306703      40.306703      1.1176276      3170.5401      4048.5407      3326.115     
      6300   6300           302.79911      2614.0958      4032.3117      1539.046       5125.7895     -3586.7435      1022.7907      4925.5021     -8463.0011     -51.86575      -3099.31        6966.0742     -4886.9335     -490.87462      65399.009      40.289362      40.289362      40.289362      1.1190714      2066.1514      3256.6139      2519.5222    
      6400   6400           302.51556      2065.9224      3404.29        1436.119       5120.9896     -3684.8706      1016.7461      4828.3849     -8429.6758     -51.478865     -3131.1224      6964.9919     -4882.7164     -491.43808      65324.026      40.273958      40.273958      40.273958      1.1203559      2523.5345      1915.918       1758.3146    
      6500   6500           293.79884      4408.3822      5575.4949      1383.266       4973.4328     -3590.1668      1029.1603      4897.3679     -8449.9855     -51.106871     -3098.9318      6970.3989     -4887.0696     -492.325        65206.345      40.249759      40.249759      40.249759      1.1223779      3769.0718      5059.1624      4396.9123    
      6600   6600           298.32162      2677.915       3983.0895      1433.694       5049.9944     -3616.3004      1046.0935      4859.2378     -8447.0032     -52.104404     -3107.8967      6968.3003     -4882.9278     -491.78718      65277.655      40.264426      40.264426      40.264426      1.1211518      4053.3249      3183.5333      796.88666    
      6700   6700           301.93548      3698.6484      5051.2654      1524.8717      5111.1699     -3586.2982      1016.9976      4834.5163     -8341.1959     -50.207065     -3120.0322      6962.6318     -4889.0088     -491.0547       65375.026      40.284436      40.284436      40.284436      1.1194819      3570.1362      4971.2379      2554.571     
      6800   6800           304.92398      2480.6795      3912.696       1549.0755      5161.7592     -3612.6838      1041.1485      4964.1043     -8502.7325     -55.110396     -3131.031       6956.4666     -4885.5293     -491.37217      65332.788      40.275759      40.275759      40.275759      1.1202057      3256.9642      2843.9206      1341.1539    
      6900   6900           299.15523      2807.4455      4191.4298      1514.7718      5064.1058     -3549.3339      1047.4521      4966.2117     -8473.2623     -51.218027     -3116.0463      6964.6066     -4887.0778     -491.06173      65374.089      40.284244      40.284244      40.284244      1.119498       3325.6322      2858.123       2238.5813    
      7000   7000           299.25903      2673.8259      4012.8549      1460.2516      5065.8629     -3605.6112      1026.3757      4890.2266     -8444.726      -55.421573     -3087.3199      6954.3296     -4889.0756     -490.41917      65459.744      40.30183       40.30183       40.30183       1.1180331      2157.5618      3068.7954      2795.1204    
      7100   7100           298.98584      2858.3905      4163.7688      1434.4288      5061.2383     -3626.8095      1009.2025      4891.5547     -8394.5231     -52.005652     -3175.7479      6975.7609     -4881.0509     -490.32219      65472.692      40.304487      40.304487      40.304487      1.117812       3508.0406      3341.7096      1725.4211    
      7200   7200           299.35867      2156.2687      3520.1657      1464.583       5067.5496     -3602.9666      1007.0505      4922.6038     -8412.7503     -52.262643     -3142.7372      6961.0301     -4885.9008     -491.11766      65366.645      40.282715      40.282715      40.282715      1.1196255      1322.1434      2334.9115      2811.7512    
      7300   7300           297.175        1814.938       3280.2989      1552.6754      5030.5844     -3477.909       1063.0534      5042.5929     -8399.1954     -50.701807     -3223.6763      6970.9899     -4880.9718     -491.84733      65269.672      40.262785      40.262785      40.262785      1.1212889      1815.1512      1417.0666      2212.5962    
      7400   7400           301.32624      3160.8696      4615.9849      1616.5251      5100.8567     -3484.3316      1078.427       4917.8439     -8412.2208     -50.887076     -3091.3982      6958.8701     -4884.9666     -493.37958      65066.968      40.221061      40.221061      40.221061      1.1247821      3233.0441      2800.5794      3448.9854    
      7500   7500           304.60344      4141.3328      5495.9766      1564.1663      5156.3333     -3592.167       1036.2384      4861.9522     -8427.0078     -51.075516     -3088.6324      6960.9977     -4884.6396     -493.1343       65099.333      40.227729      40.227729      40.227729      1.1242229      4535.7909      4695.4326      3192.7749    
      7600   7600           299.06899      2977.3832      4257.0512      1415.429       5062.6459     -3647.2169      1027.1195      4999.5463     -8519.6584     -54.872534     -3183.9749      6965.9754     -4881.3523     -490.55311      65441.872      40.298162      40.298162      40.298162      1.1183384      3483.7408      3417.7645      2030.6445    
      7700   7700           295.31527      2407.5885      3714.8788      1407.5658      4999.1029     -3591.5371      1015.3494      4882.8503     -8399.239      -52.084048     -3120.5828      6966.7751     -4884.606      -488.5324       65712.558      40.353647      40.353647      40.353647      1.1137317      2802.5175      1155.229       3265.0188    
      7800   7800           303.62237      2492.9516      3861.8171      1472.3474      5139.7256     -3667.3782      996.72284      4859.1654     -8447.8103     -54.693219     -3104.8413      6967.2164     -4883.1381     -488.46105      65722.157      40.355612      40.355612      40.355612      1.1135691      2046.248       3059.5007      2373.106     
      7900   7900           299.91032      3158.5068      4557.0281      1533.0857      5076.888      -3543.8023      983.28883      4949.0546     -8429.04       -51.526702     -3071.6193      6961.3396     -4885.2992     -489.01923      65647.139      40.340251      40.340251      40.340251      1.1148416      2788.3917      3237.5579      3449.5709    
      8000   8000           306.79636      2288.2951      3837.8688      1650.4913      5193.4549     -3542.9636      999.00084      5040.4057     -8441.6919     -51.810725     -3163.562       6960.9225     -4886.228      -489.78551      65544.433      40.319203      40.319203      40.319203      1.1165885      2736.3664      3853.5957      274.92326    
      8100   8100           305.98854      4017.6187      5545.9496      1710.5597      5179.7802     -3469.2205      1001.9109      4975.7884     -8369.4748     -52.462782     -3099.697       6958.2446     -4883.5297     -490.42977      65458.33       40.30154       40.30154       40.30154       1.1180572      3644.5038      5161.5957      3246.7564    
      8200   8200           303.53385      2649.7793      4081.3515      1554.8959      5138.2272     -3583.3313      1004.3464      4948.834      -8437.2603     -52.95307      -3114.5421      6953.4924     -4885.2487     -491.03863      65377.165      40.284876      40.284876      40.284876      1.1194453      2265.046       3051.1924      2633.0994    
      8300   8300           301.65578      4029.2022      5314.0285      1485.3204      5106.4352     -3621.1148      1012.0714      4948.4851     -8460.0673     -54.581324     -3129.3431      6946.3213     -4884.0007     -492.70213      65156.434      40.239487      40.239487      40.239487      1.1232377      4170.8823      4099.3545      3817.3698    
      8400   8400           299.07205      2636.9782      3919.5913      1417.7841      5062.6976     -3644.9135      1029.797       4893.9084     -8440.6597     -54.589262     -3122.3766      6938.1635     -4889.1569     -493.4809       65053.61       40.218308      40.218308      40.218308      1.125013       2744.0821      3683.1313      1483.721     
      8500   8500           295.53026      4268.9886      5416.3707      1370.2922      5002.7422     -3632.45        1007.558       4884.749      -8436.0591     -49.211036     -3090.6081      6942.1215     -4891.0003     -493.97881      64988.038      40.204791      40.204791      40.204791      1.1261482      4588.1163      4207.096       4011.7534    
      8600   8600           295.94246      3125.0781      4392.0541      1422.9211      5009.72       -3586.7988      1039.2175      4904.5798     -8394.8607     -52.157126     -3140.8549      6948.022      -4890.7455     -492.77522      65146.77       40.237497      40.237497      40.237497      1.1234043      3295.2763      3782.8745      2297.0833    
      8700   8700           302.26462      1602.3992      3055.0492      1528.6124      5116.7417     -3588.1293      1001.9719      5045.0012     -8469.0938     -50.30505      -3184.6484      6956.03       -4887.0851     -491.48414      65317.903      40.2727        40.2727        40.2727        1.1204609      2589.0248      1208.0476      1010.1251    
      8800   8800           299.59251      3342.6535      4698.1612      1518.2168      5071.5081     -3553.2912      966.86933      5009.6014     -8405.5497     -50.266632     -3118.5846      6937.5382     -4892.8993     -492.14092      65230.735      40.254777      40.254777      40.254777      1.1219582      2819.085       4370.9477      2837.9279    
      8900   8900           299.87368      2834.4292      4191.6843      1495.8629      5076.2677     -3580.4048      996.53975      4947.6533     -8396.7599     -50.94295      -3143.4334      6955.6831     -4889.1447     -492.25728      65215.315      40.251605      40.251605      40.251605      1.1222235      2573.732       3814.3609      2115.1948    
      9000   9000           300.94303      3853.4929      5120.3918      1456.7365      5094.3697     -3637.6332      955.92013      4961.6343     -8426.0504     -52.506915     -3125.0322      6938.3805     -4889.9785     -492.44484      65190.476      40.246494      40.246494      40.246494      1.1226511      3492.4305      4968.8787      3099.1696    
      9100   9100           297.86635      2200.0229      3475.8753      1383.6171      5042.2875     -3658.6704      1003.6643      4837.9522     -8429.699      -51.171291     -3103.0591      6967.4556     -4883.8132     -492.29969      65209.698      40.250449      40.250449      40.250449      1.1223202      1462.6408      1980.3208      3157.1073    
      9200   9200           296.7942       3366.9759      4464.3387      1259.6946      5024.1382     -3764.4436      967.44553      4771.5648     -8370.8786     -53.551238     -3154.9118      6964.0898     -4888.202      -491.90115      65262.531      40.261316      40.261316      40.261316      1.1214116      4569.6288      2757.093       2774.2057    
      9300   9300           293.6571       1993.8839      3218.0407      1321.247       4971.0334     -3649.7864      994.49786      4914.7478     -8474.8308     -51.069754     -3117.8963      6968.4867     -4883.722      -492.14992      65229.541      40.254531      40.254531      40.254531      1.1219788      1944.3379      2186.4324      1850.8815    
      9400   9400           297.81546      4702.5043      5921.0268      1445.9033      5041.4261     -3595.5228      930.45628      4922.5025     -8392.8935     -55.095691     -3072.5467      6960.7127     -4888.6583     -491.97361      65252.918      40.25934       40.25934       40.25934       1.1215768      6390.0519      3881.6103      3835.8507    
      9500   9500           300.7631       2608.141       3983.9906      1499.8731      5091.3238     -3591.4508      1008.3482      5007.667      -8455.8696     -49.256607     -3175.18        6961.5258     -4888.6855     -491.56003      65307.82       40.270627      40.270627      40.270627      1.1206339      2625.605       2317.3218      2881.4961    
      9600   9600           301.16898      3389.7734      4768.1316      1543.3468      5098.1946     -3554.8478      1042.2899      4868.7003     -8427.8781     -48.263513     -3053.4997      6952.8343     -4889.031      -492.13876      65231.021      40.254836      40.254836      40.254836      1.1219533      3421.2103      3727.3225      3020.7873    
      9700   9700           300.1481       3070.64        4464.2289      1540.5282      5080.9132     -3540.385       992.48986      4932.2649     -8372.6298     -56.228648     -3093.4555      6949.1859     -4892.0117     -491.71518      65287.213      40.266391      40.266391      40.266391      1.1209876      3246.3505      2394.8668      3570.7026    
      9800   9800           298.51314      4522.8531      5720.8377      1411.8254      5053.2365     -3641.4111      963.86706      4834.7399     -8391.968      -49.28208      -3074.6571      6964.1953     -4888.3063     -491.41949      65326.496      40.274466      40.274466      40.274466      1.1203136      4878.0241      5156.5704      3533.9648    
      9900   9900           295.4376       2312.7254      3561.7143      1355.6925      5001.1737     -3645.4812      983.05664      4962.5079     -8437.2379     -54.398486     -3157.0989      6947.1012     -4889.4117     -490.83091      65404.833      40.290558      40.290558      40.290558      1.1189717      2689.3013      2372.9193      1875.9555    
     10000   10000          300.38433      2379.2725      3690.2593      1422.1111      5084.912      -3662.8009      1035.454       4765.1119     -8365.3989     -48.118017     -3107.7711      6948.5826     -4890.6614     -491.12314      65365.916      40.282565      40.282565      40.282565      1.1196379      2450.6833      2447.1759      2239.9584    
     10100   10100          299.92922      3090.0642      4461.4907      1523.6438      5077.2079     -3553.5641      998.67838      4937.6318     -8426.6666     -49.859824     -3083.5639      6955.3795     -4885.1636     -492.44301      65190.719      40.246544      40.246544      40.246544      1.1226469      2694.1152      3875.7952      2700.282     
     10200   10200          305.31165      2293.6413      3725.6411      1543.1059      5168.3218     -3625.2158      1033.2857      4940.9354     -8467.8129     -52.774883     -3131.7031      6941.8261     -4888.972      -492.01899      65246.899      40.258102      40.258102      40.258102      1.1216803      2400.4216      2711.2167      1769.2854    
     10300   10300          297.29287      2700.9657      4070.2993      1500.1199      5032.5797     -3532.4598      984.5607       4966.1132     -8398.1304     -53.12394      -3102.6689      6958.0261     -4887.2366     -492.00926      65248.19       40.258367      40.258367      40.258367      1.1216581      2078.0867      4042.2245      1982.586     
     10400   10400          300.73151      3416.0115      4733.6494      1481.9536      5090.7891     -3608.8355      998.11704      4935.2208     -8446.0718     -48.179945     -3114.5075      6955.0548     -4888.4689     -491.84363      65270.162      40.262886      40.262886      40.262886      1.1212805      3480.5371      3564.8444      3202.6531    
     10500   10500          299.64946      1661.3845      3019.2198      1436.0511      5072.4721     -3636.421       984.03592      4915.4061     -8426.9716     -53.065218     -3117.2665      6951.0833     -4889.643      -491.31564      65340.305      40.277303      40.277303      40.277303      1.1200768      906.62076      2433.8003      1643.7325    
     10600   10600          300.35812      4265.7569      5412.5609      1343.0249      5084.4684     -3741.4435      981.47583      4790.5601     -8459.8834     -49.06055      -3080.9047      6964.6141     -4888.2449     -490.75964      65414.331      40.292508      40.292508      40.292508      1.1188093      3272.0237      6013.2907      3511.9563    
     10700   10700          293.9797       2101.9123      3314.5045      1305.2675      4976.4943     -3671.2268      1003.6244      4882.2525     -8508.4342     -51.936387     -3076.2669      6965.4538     -4885.9201     -489.78001      65545.17       40.319354      40.319354      40.319354      1.1165759      2649.8985      1651.8965      2003.9419    
     10800   10800          299.73176      2046.499       3403.7096      1443.5432      5073.8653     -3630.3221      994.86773      4879.214      -8433.9081     -46.59709      -3097.805       6963.57       -4889.6636     -488.80566      65675.823      40.346126      40.346126      40.346126      1.1143547      1674.5808      3565.2679      899.64825    
     10900   10900          303.4234       2216.5083      3643.4421      1520.1911      5136.3575     -3616.1665      1010.2117      4922.1584     -8473.3696     -54.07245      -3106.2861      6974.0529     -4888.8613     -488.74873      65683.472      40.347692      40.347692      40.347692      1.1142249      3597.0076      530.09806      2522.4192    
     11000   11000          300.20763      3408.0626      4747.3704      1488.9946      5081.9208     -3592.9261      983.74745      4902.5147     -8424.1842     -50.695059     -3091.3658      6973.6249     -4886.5681     -489.69315      65556.795      40.321738      40.321738      40.321738      1.1163779      3369.3199      3692.1385      3162.7293    
     11100   11100          296.25938      2206.1366      3514.0259      1407.9513      5015.0847     -3607.1335      1015.3863      4926.7569     -8475.4376     -51.830556     -3098.9236      6961.9775     -4885.0625     -490.42915      65458.413      40.301557      40.301557      40.301557      1.1180558      2340.192       2255.8991      2022.3187    
     11200   11200          295.92009      3247.2731      4500.9404      1407.975       5009.3412     -3601.3662      1013.1544      4938.2287     -8460.0576     -50.844252     -3122.5018      6968.5791     -4887.9247     -491.54286      65310.101      40.271096      40.271096      40.271096      1.1205948      2679.2467      3556.4052      3506.1672    
     11300   11300          300.88842      3453.7689      4801.2861      1517.3691      5093.4453     -3576.0762      1033.8377      4881.345      -8396.3173     -52.959499     -3120.6793      6966.3979     -4887.7007     -492.40079      65196.308      40.247694      40.247694      40.247694      1.1225507      4177.3423      3860.9227      2323.0417    
     11400   11400          302.83974      2671.9452      4133.7512      1599.5943      5126.4773     -3526.883       995.47092      5016.9085     -8438.7394     -50.628926     -3118.2793      6957.936      -4889.5509     -493.64152      65032.442      40.213946      40.213946      40.213946      1.1253792      1611.856       1938.8321      4465.1475    
     11500   11500          302.23994      4107.4723      5391.2787      1499.6053      5116.3238     -3616.7185      993.4885       4950.1125     -8464.5549     -52.021323     -3118.6528      6964.3374     -4889.4279     -494.14669      64965.959      40.200238      40.200238      40.200238      1.1265309      5146.7928      3772.0477      3403.5764    
     11600   11600          302.78459      2499.9683      3800.1046      1425.2602      5125.5436     -3700.2834      985.07428      4785.4361     -8406.9812     -49.51138      -3100.5798      6972.0285     -4885.7499     -492.85251      65136.554      40.235394      40.235394      40.235394      1.1235805      2851.5928      2640.9019      2007.41      
     11700   11700          301.06052      3880.1766      5088.0658      1395.1864      5096.3586     -3701.1721      997.58496      4882.2974     -8462.5942     -51.277989     -3129.5645      6950.8938     -4888.5115     -491.93079      65258.598      40.260508      40.260508      40.260508      1.1214792      5013.9261      3775.414       2851.1897    
     11800   11800          297.75323      2485.8326      3787.6605      1416.5742      5040.3726     -3623.7984      1012.5749      4876.6984     -8397.9921     -50.541321     -3137.9774      6960.6536     -4887.2144     -490.84251      65403.287      40.29024       40.29024       40.29024       1.1189982      1993.6607      2822.2654      2641.5718    
     11900   11900          305.54325      2334.5299      3780.721       1554.536       5172.2424     -3617.7064      982.97182      4916.7157     -8424.9558     -50.111914     -3104.8221      6951.0266     -4888.5307     -490.97099      65386.172      40.286726      40.286726      40.286726      1.1192911      2518.3955      1629.9536      2855.2406    
     12000   12000          305.96755      2189.9148      3675.1559      1588.0649      5179.4249     -3591.36        990.50643      4926.3567     -8413.7215     -51.836962     -3113.592       6962.0072     -4891.0798     -491.25101      65348.901      40.27907       40.27907       40.27907       1.1199295      588.64824      3630.7072      2350.3888    
     12100   12100          303.17782      2521.4396      3922.7695      1523.9972      5132.2002     -3608.203       994.66006      4956.2337     -8454.6637     -53.049114     -3128.6023      6966.5298     -4889.3115     -492.12697      65232.584      40.255157      40.255157      40.255157      1.1219264      2205.2492      2386.1025      2972.9671    
     12200   12200          299.78819      3609.8249      4882.5276      1460.6525      5074.8205     -3614.168       995.30715      4913.9929     -8439.6128     -47.305714     -3095.5878      6954.8383     -4895.8001     -493.90068      64998.319      40.206911      40.206911      40.206911      1.12597        4009.5389      2520.8692      4299.0667    
     12300   12300          303.59145      3183.5592      4435.1578      1425.6483      5139.2022     -3713.5539      984.237        4790.4431     -8428.5538     -52.112138     -3082.0147      6962.7628     -4888.3161     -495.26182      64819.682      40.170043      40.170043      40.170043      1.1290731      2158.4898      4866.7671      2525.4207    
     12400   12400          298.19566      3199.9426      4426.3886      1401.5728      5047.8621     -3646.2893      993.22822      4997.9931     -8482.7713     -50.939019     -3166.5055      6955.1335     -4892.4283     -495.29153      64815.793      40.16924       40.16924       40.16924       1.1291408      4393.6633      2179.4368      3026.7278    
     12500   12500          299.8416       2772.5418      4037.3286      1413.1113      5075.7247     -3662.6134      1003.3007      4891.5756     -8451.217      -51.8049       -3123.8063      6959.8947     -4890.5562     -494.64763      64900.167      40.186662      40.186662      40.186662      1.1276729      2341.0514      3559.8659      2416.7081    
     12600   12600          301.13678      2354.047       3709.6822      1471.8764      5097.6495     -3625.7731      1031.7543      4960.5433     -8477.733      -53.353181     -3159.2957      6960.8486     -4888.5374     -492.50469      65182.554      40.244863      40.244863      40.244863      1.1227875      2773.7133      1319.1021      2969.3258    
     12700   12700          302.64477      2970.41        4362.7428      1533.6092      5123.1768     -3589.5676      1005.8198      4932.0798     -8426.5249     -50.815007     -3116.2399      6956.7924     -4890.6799     -491.56457      65307.216      40.270503      40.270503      40.270503      1.1206443      3090.4938      3530.2584      2290.4778    
     12800   12800          304.4454       2546.7195      3969.8197      1541.2607      5153.6579     -3612.3971      1016.3843      4931.109      -8447.8635     -51.528917     -3116.8644      6948.6094     -4892.243      -490.96451      65387.035      40.286903      40.286903      40.286903      1.1192763      1840.9845      3114.1255      2685.0487    
     12900   12900          300.19622      2744.2661      4093.4898      1476.2829      5081.7277     -3605.4448      1006.8871      4990.8239     -8474.7124     -52.219905     -3146.6977      6961.1821     -4890.7079     -490.91444      65393.705      40.288273      40.288273      40.288273      1.1191622      3780.0499      2814.81        1637.9384    
     13000   13000          299.40027      3541.4772      4748.8729      1378.8092      5068.2538     -3689.4446      988.33363      4909.7613     -8425.9033     -50.412465     -3173.5986      6957.1474     -4894.7725     -491.99872      65249.588      40.258655      40.258655      40.258655      1.121634       3135.4219      4142.2113      3346.7985    
     13100   13100          294.77951      3019.2301      4247.39        1385.7622      4990.0335     -3604.2713      1009.069       4894.3442     -8399.5436     -50.826503     -3120.5198      6955.0533     -4891.848      -493.97015      64989.177      40.205026      40.205026      40.205026      1.1261284      2623.2936      2492.0698      3942.3271    
     13200   13200          301.49874      3260.8123      4581.1706      1496.6396      5103.7768     -3607.1371      998.30258      4920.4261     -8405.9489     -54.517837     -3133.0523      6960.7033     -4893.05       -494.94199      64861.568      40.178694      40.178694      40.178694      1.128344       4000.4188      2947.813       2834.2051    
     13300   13300          305.48204      3196.3557      4637.2003      1612.8147      5171.2061     -3558.3915      1026.7067      4962.4735     -8469.2428     -52.314032     -3084.2542      6949.6167     -4891.3774     -494.80669      64879.303      40.182356      40.182356      40.182356      1.1280355      3643.1452      3095.8181      2850.1039    
     13400   13400          306.64941      2448.9911      3877.586       1552.1255      5190.9674     -3638.8418      986.23829      4922.4365     -8441.3696     -50.406948     -3112.6844      6947.8515     -4890.9071     -493.0556       65109.724      40.229869      40.229869      40.229869      1.1240435      3308.1461      2415.7992      1623.0281    
     13500   13500          299.95612      2701.8487      4042.7656      1466.1716      5077.6633     -3611.4917      987.8067       4946.5222     -8419.0685     -52.991848     -3153.7667      6967.5033     -4887.4969     -490.9448       65389.66       40.287442      40.287442      40.287442      1.1192314      1836.8621      3564.6698      2704.0141    
     13600   13600          298.01423      2698.2743      3992.1465      1416.5341      5044.7908     -3628.2567      978.94698      4994.2681     -8464.1569     -53.374664     -3166.6743      6973.472      -4890.7379     -490.48218      65451.335      40.300104      40.300104      40.300104      1.1181767      1511.3192      4585.7992      1997.7046    
     13700   13700          297.79858      2236.3058      3536.69        1406.4067      5041.1403     -3634.7336      1053.0027      4897.6683     -8483.7239     -51.1588       -3119.9819      6961.0763     -4891.6163     -491.48638      65317.606      40.272639      40.272639      40.272639      1.120466       3398.5036      1646.1789      1664.235     
     13800   13800          302.45047      4318.0219      5600.0909      1500.0944      5119.8877     -3619.7933      950.32659      4939.3206     -8420.9287     -50.420609     -3117.1686      6970.6599     -4891.5824     -493.08182      65106.261      40.229156      40.229156      40.229156      1.1241032      4244.9144      5117.3006      3591.8506    
     13900   13900          302.84499      2638.2238      4085.9571      1584.5472      5126.5661     -3542.0189      1030.4077      5042.2531     -8457.228      -57.797291     -3172.6821      6961.2121     -4888.1843     -493.79241      65012.57       40.209849      40.209849      40.209849      1.1257232      2907.0986      2288.8713      2718.7015    
     14000   14000          301.58015      3832.5953      5138.8103      1513.2998      5105.1549     -3591.8551      1027.5822      4957.6888     -8462.3748     -51.855998     -3126.4533      6957.0581     -4893.5001     -494.92733      64863.49       40.179091      40.179091      40.179091      1.1283105      4088.1875      3625.4947      3784.1037    
     14100   14100          297.19059      3388.1823      4615.0018      1408.9084      5030.8483     -3621.94        1051.228       4987.548      -8544.428      -49.20255      -3132.4627      6958.4764     -4893.0992     -494.77555      64883.387      40.183199      40.183199      40.183199      1.1279645      2732.5081      4999.1983      2432.8404    
     14200   14200          299.89985      1961.1379      3255.6189      1392.4937      5076.7107     -3684.217       1037.8648      4837.0487     -8418.109      -51.207468     -3153.7428      6955.6523     -4891.7236     -492.8148       65141.537      40.23642       40.23642       40.23642       1.1234945      3079.5308      1216.8603      1587.0226    
     14300   14300          297.54041      3576.4022      4818.4856      1415.2066      5036.7701     -3621.5636      1013.2173      4927.3111     -8458.0378     -51.005473     -3120.9881      6958.0232     -4890.0838     -492.00151      65249.218      40.258579      40.258579      40.258579      1.1216404      1936.9073      3961.2382      4831.0612    
     14400   14400          303.22026      2522.7956      3868.8846      1465.5875      5132.9188     -3667.3313      1007.3365      4866.4966     -8437.0458     -50.57237      -3115.6037      6950.9442     -4888.8866     -491.46462      65320.498      40.273233      40.273233      40.273233      1.1204164      2988.0799      2045.8672      2534.4398    
     14500   14500          303.9723       3295.8099      4733.1868      1593.137       5145.6493     -3552.5123      997.75795      4930.67       -8402.6989     -54.43492      -3076.3477      6945.662      -4893.1206     -491.40916      65327.87       40.274748      40.274748      40.274748      1.12029        2452.5192      3755.4571      3679.4533    
     14600   14600          304.10443      2749.4741      4250.0673      1628.2213      5147.886      -3519.6646      1003.2925      4967.3996     -8405.0242     -53.929366     -3082.3197      6942.7566     -4891.8401     -490.97582      65385.529      40.286594      40.286594      40.286594      1.1193021      3720.0205      1760.0341      2768.3678    
     14700   14700          298.74541      2289.4831      3693.8991      1513.1137      5057.1684     -3544.0547      1024.9298      4864.7845     -8340.2699     -50.456915     -3109.2182      6954.3929     -4888.217      -491.52109      65312.993      40.271691      40.271691      40.271691      1.1205452      3163.551       1639.0464      2065.8519    
     14800   14800          299.5924       2780.6303      4109.7656      1468.9675      5071.5063     -3602.5388      1007.2192      4965.5322     -8465.2152     -52.381654     -3117.1479      6948.324      -4888.8694     -492.97589      65120.251      40.232037      40.232037      40.232037      1.1238618      2453.936       4023.6313      1864.3236    
     14900   14900          297.89084      4363.7336      5586.7968      1454.0153      5042.7021     -3588.6868      1027.5978      4968.9137     -8467.1102     -54.122586     -3112.6711      6941.4027     -4892.6973     -494.34873      64939.408      40.19476       40.19476       40.19476       1.1269915      4361.0109      4274.8289      4455.361     
     15000   15000          301.72034      3168.3116      4416.3712      1418.1752      5107.5281     -3689.3529      1003.6594      4905.4436     -8454.3462     -51.891312     -3140.4792      6937.8375     -4889.5767     -494.74965      64886.784      40.1839        40.1839        40.1839        1.1279055      1559.5177      3410.5675      4534.8496    
     15100   15100          293.29269      3959.2613      5080.1539      1329.9299      4964.8646     -3634.9347      977.26261      4897.7447     -8435.9865     -50.182671     -3086.6636      6949.9298     -4887.039      -494.28176      64948.206      40.196575      40.196575      40.196575      1.1268388      4333.6031      4668.5714      2875.6093    
     15200   15200          294.21354      2466.0937      3629.1219      1285.0449      4980.4528     -3695.4078      1009.2324      4835.0004     -8423.0963     -50.308348     -3124.6783      6947.638      -4889.1957     -492.55569      65175.806      40.243475      40.243475      40.243475      1.1229038      2100.6943      2996.7326      2300.8541    
     15300   15300          299.27351      1888.9465      3235.8687      1435.2081      5066.1081     -3630.9         1059.2452      4933.5983     -8455.2857     -52.609386     -3174.318       6948.2763     -4889.8067     -491.14014      65363.653      40.2821        40.2821        40.2821        1.1196767      2106.1305      2351.2043      1209.5048    
     15400   15400          304.41018      3007.5466      4365.8174      1496.3701      5153.0617     -3656.6915      1038.582       4888.6014     -8472.494      -50.042044     -3132.8672      6959.8289     -4888.3006     -490.71773      65419.918      40.293655      40.293655      40.293655      1.1187137      3327.5614      2718.2652      2976.8133    
     15500   15500          301.32729      1357.2258      2766.5833      1473.5977      5100.8744     -3627.2767      1002.8887      5010.915      -8468.8496     -48.89671      -3173.7027      6943.6831     -4893.3145     -491.44631      65322.931      40.273733      40.273733      40.273733      1.1203747      1470.9326      2243.8403      356.90456    
     15600   15600          300.94056      4350.129       5554.9073      1425.7238      5094.3279     -3668.6041      971.38232      4926.6085     -8422.33       -52.619938     -3152.1126      6956.1098     -4895.6422     -493.23693      65085.786      40.224938      40.224938      40.224938      1.1244569      3799.5071      4802.7894      4448.0906    
     15700   15700          295.82628      2932.4248      4131.5994      1356.4055      5007.7533     -3651.3477      1017.5726      4872.4395     -8451.362      -50.266138     -3097.77        6949.0459     -4891.0076     -494.71058      64891.908      40.184958      40.184958      40.184958      1.1278164      3678.262       2382.0026      2737.0099    
     15800   15800          293.89556      3270.2322      4407.3141      1315.3298      4975.07       -3659.7401      982.5299       4915.8922     -8443.2567     -50.422898     -3139.9829      6959.8073     -4884.307      -495.17528      64831.01       40.172383      40.172383      40.172383      1.1288758      2611.0776      4729.4516      2470.1675    
     15900   15900          300.286        2530.9908      3744.012       1349.1471      5083.2474     -3734.1003      996.17386      4807.7303     -8363.5963     -52.343177     -3194.4248      6958.0775     -4885.7179     -494.79715      64880.555      40.182614      40.182614      40.182614      1.1280138      2506.9508      2912.1878      2173.8338    
     16000   16000          297.71147      3093.131       4410.5476      1483.6069      5039.6658     -3556.059       1019.3371      5026.6895     -8468.6278     -53.519998     -3138.0044      6947.4928     -4889.4261     -494.76847      64884.316      40.18339       40.18339       40.18339       1.1279484      2874.2273      3819.897       2585.2686    
     16100   16100          300.15497      3486.3278      4820.968       1515.6142      5081.0295     -3565.4153      1009.5796      4989.8191     -8474.2721     -53.610543     -3109.7603      6962.4614     -4889.6325     -493.81912      65009.054      40.209124      40.209124      40.209124      1.1257841      3622.6047      3592.5921      3243.7868    
     16200   16200          303.20681      2888.8998      4221.6691      1470.9989      5132.691      -3661.6921      972.52743      4994.5736     -8494.4307     -51.951244     -3156.8357      6959.1502     -4884.7257     -491.71289      65287.517      40.266454      40.266454      40.266454      1.1209824      1683.1117      4220.5843      2763.0035    
     16300   16300          296.96123      1373.8439      2652.9596      1342.4163      5026.9657     -3684.5494      968.30018      4957.9993     -8420.1479     -56.235375     -3195.093       6952.7085     -4892.0812     -490.79898      65409.087      40.291431      40.291431      40.291431      1.118899       227.72923      2786.014       1107.7884    
     16400   16400          297.68183      3269.4642      4416.2415      1304.7305      5039.1641     -3734.4336      956.17238      4941.9258     -8519.9984     -48.711997     -3133.3324      6957.4713     -4887.9603     -491.95217      65255.761      40.259924      40.259924      40.259924      1.1215279      3432.1238      3150.8105      3225.4583    
     16500   16500          297.90674      2204.7182      3454.1311      1360.1521      5042.9714     -3682.8193      968.28683      4957.5131     -8467.6693     -50.577032     -3155.6284      6953.6899     -4888.4344     -492.94492      65124.342      40.23288       40.23288       40.23288       1.1237912      3455.5723      732.59476      2425.9875    
     16600   16600          301.69625      4451.8847      5647.3362      1425.7986      5107.1202     -3681.3216      999.43684      4882.3457     -8479.8528     -51.360414     -3112.7224      6966.7197     -4885.8883     -493.73154      65020.585      40.211502      40.211502      40.211502      1.1255845      4604.5077      5510.4282      3240.7181    
     16700   16700          298.34608      2544.6798      3845.0112      1428.504       5050.4084     -3621.9044      999.95746      4903.6093     -8452.4504     -51.822958     -3089.858       6955.8382     -4887.178      -493.0179       65114.701      40.230894      40.230894      40.230894      1.1239575      2736.6617      1562.9644      3334.4134    
     16800   16800          302.23038      2630.6329      3903.2908      1404.0259      5116.1621     -3712.1362      996.02101      4843.624      -8449.8664     -51.529073     -3131.0308      6968.8174     -4888.1724     -492.79421      65144.259      40.236981      40.236981      40.236981      1.1234476      2223.1219      4169.3301      1499.4467    
     16900   16900          298.22149      2726.7723      3961.0649      1367.6183      5048.2995     -3680.6812      991.22673      4932.0435     -8466.7478     -52.360338     -3156.1837      6959.0606     -4887.7202     -492.25394      65215.757      40.251696      40.251696      40.251696      1.1222159      1865.923       2117.687       4196.707     
     17000   17000          297.68128      2536.7198      3788.211       1373.4996      5039.1547     -3665.6551      1007.2672      4931.4917     -8436.1539     -52.500051     -3188.9082      6960.3337     -4887.1857     -491.8412       65270.485      40.262952      40.262952      40.262952      1.121275       3485.7448      1148.4394      2975.9751    
     17100   17100          301.58286      2723.7763      4038.9122      1450.3566      5105.2008     -3654.8442      992.30914      4860.3782     -8464.292      -54.444755     -3051.8017      6950.3071     -4887.3002     -492.64216      65164.365      40.24112       40.24112       40.24112       1.1231009      1948.546       3395.9138      2826.8691    
     17200   17200          303.25805      4225.8241      5541.045       1531.9842      5133.5585     -3601.5743      984.54904      4997.2052     -8475.2102     -54.897917     -3127.2735      6962.0965     -4888.0435     -493.49914      65051.205      40.217813      40.217813      40.217813      1.1250546      3496.3974      4257.417       4923.6579    
     17300   17300          303.80532      2562.8869      3948.7884      1520.2405      5142.8226     -3622.5821      997.78299      4982.8139     -8477.4417     -54.163057     -3143.6555      6961.0335     -4888.9522     -494.08357      64974.259      40.201949      40.201949      40.201949      1.126387       4821.8029      1568.2335      1298.6244    
     17400   17400          299.20863      4137.5923      5282.8515      1363.4291      5065.0097     -3701.5806      982.76535      4900.6005     -8486.6004     -52.109443     -3122.5244      6962.2789     -4885.9911     -494.24611      64952.891      40.197542      40.197542      40.197542      1.1267575      4127.4602      4614.1996      3671.1171    
     17500   17500          298.802        3072.4798      4232.3796      1321.5022      5058.1263     -3736.6241      984.11681      4846.2482     -8460.9511     -50.303529     -3119.7122      6952.3678     -4888.3901     -494.17727      64961.939      40.199408      40.199408      40.199408      1.1266006      4077.7921      2384.7747      2754.8726    
     17600   17600          297.09624      2062.2623      3318.8234      1361.615       5029.2512     -3667.6363      1017.9353      4895.9436     -8422.038      -52.539264     -3172.0922      6953.2328     -4888.0785     -493.31515      65075.467      40.222812      40.222812      40.222812      1.1246352      1652.8395      2217.123       2316.8243    
     17700   17700          301.66177      4379.8242      5613.0677      1457.3092      5106.5365     -3649.2273      1016.2533      4917.3803     -8506.6764     -51.446964     -3090.4228      6955.95       -4890.2648     -493.42824      65060.551      40.219739      40.219739      40.219739      1.124893       5221.8868      4764.3409      3153.245     
     17800   17800          302.07798      1556.9196      2946.7846      1464.9593      5113.5822     -3648.6229      987.59301      4990.6254     -8487.8313     -50.519939     -3156.629       6957.8394     -4889.7005     -491.91133      65261.179      40.261038      40.261038      40.261038      1.1214348      1203.5883      2157.9198      1309.2508    
     17900   17900          304.74551      3484.7202      4721.8634      1407.2267      5158.7382     -3751.5115      955.65107      4880.3893     -8466.2994     -50.767825     -3137.5205      6955.7303     -4888.6946     -492.20906      65221.704      40.252919      40.252919      40.252919      1.1221136      3292.0161      4078.1833      3083.9613    
     18000   18000          296.06264      3965.7911      5010.7661      1242.1578      5011.7543     -3769.5966      989.50882      4824.1248     -8471.2561     -49.61389      -3137.0577      6959.7191     -4885.0216     -492.68174      65159.131      40.240042      40.240042      40.240042      1.1231912      4738.3784      3666.1181      3492.8769    
     18100   18100          299.89466      2727.8941      3842.6601      1254.5995      5076.6229     -3822.0234      972.18896      4856.3858     -8487.9193     -50.744919     -3177.8533      6953.0312     -4887.1118     -493.48131      65053.556      40.218297      40.218297      40.218297      1.125014       2732.817       3460.1716      1990.6936    
     18200   18200          298.04105      2312.7931      3532.96        1343.1824      5045.2449     -3702.0625      967.17955      4864.5251     -8400.6377     -51.762555     -3135.4453      6943.4996     -4889.4211     -494.48649      64921.316      40.191027      40.191027      40.191027      1.1273055      3381.2598      1525.7094      2031.4102    
     18300   18300          304.91992      3465.591       4740.6091      1462.8306      5161.6906     -3698.8601      966.53226      4887.4345     -8415.1433     -53.494427     -3151.4444      6957.4339     -4890.1786     -495.01156      64852.452      40.176812      40.176812      40.176812      1.1285026      2088.2838      6074.1083      2234.381     
     18400   18400          301.43396      3029.8549      4372.0154      1507.6137      5102.6802     -3595.0665      1023.9647      4830.5956     -8345.9365     -51.994806     -3109.157       6947.9888     -4890.5274     -495.22841      64824.055      40.170946      40.170946      40.170946      1.1289969      3158.0469      2879.8704      3051.6476    
     18500   18500          302.04219      3062.5846      4382.1101      1483.2893      5112.9763     -3629.687       989.54184      4936.5032     -8459.1171     -55.85172      -3109.5918      6954.8238     -4885.9953     -494.63444      64901.897      40.18702       40.18702       40.18702       1.1276428      3098.6171      4089.2195      1999.917     
     18600   18600          296.68815      2526.6351      3747.0296      1352.0982      5022.3431     -3670.2449      1007.9781      5009.5769     -8513.8659     -52.447028     -3192.7929      6959.9684     -4888.6624     -493.9319       64994.21       40.206064      40.206064      40.206064      1.1260412      2536.3739      2554.6914      2488.8399    
     18700   18700          295.6211       3092.4062      4262.3341      1323.0766      5004.28       -3681.2035      1018.8604      4898.6214     -8457.0577     -53.092935     -3159.9996      6958.3837     -4886.9187     -492.57972      65172.626      40.24282       40.24282       40.24282       1.1229586      4039.151       3029.9225      2208.145     
     18800   18800          300.2419       2702.3108      3943.4649      1368.3116      5082.501      -3714.1893      995.82944      4905.9508     -8455.9766     -57.247664     -3164.9383      6950.9316     -4888.7387     -491.30349      65341.92       40.277635      40.277635      40.277635      1.1200491      2204.4469      3387.2754      2515.2101    
     18900   18900          300.37789      1160.6783      2522.9899      1417.6407      5084.803      -3667.1622      1015.3583      4946.9914     -8461.6766     -53.482901     -3163.9802      6939.9653     -4890.3375     -491.62052      65299.783      40.268975      40.268975      40.268975      1.1207719      672.32447      1756.5197      1053.1906    
     19000   19000          299.84356      3858.3305      5107.4598      1448.2864      5075.7579     -3627.4714      1025.1532      4879.5866     -8400.3957     -51.685026     -3141.2145      6951.5627     -4890.4787     -493.66697      65029.09       40.213255      40.213255      40.213255      1.1254372      4994.757       4528.552       2051.6823    
     19100   19100          296.23481      2731.66        4034.6549      1456.2273      5014.6689     -3558.4416      1054.1941      4886.4642     -8384.5789     -52.472165     -3119.7397      6946.8481     -4889.1573     -496.00875      64722.071      40.149869      40.149869      40.149869      1.1307759      1394.7296      3140.1035      3660.147     
     19200   19200          302.57926      4118.5814      5384.2269      1508.967       5122.0678     -3613.1009      1003.3718      4901.5556     -8410.8892     -50.52666      -3108.8141      6944.7499     -4892.5483     -497.58175      64517.465      40.107516      40.107516      40.107516      1.134362       4351.3589      4271.2236      3733.1617    
     19300   19300          304.4199       3015.5891      4411.643       1567.8396      5153.2262     -3585.3865      1029.4255      4911.7209     -8398.5736     -50.083323     -3132.0566      6940.7851     -4886.6045     -496.46683      64662.353      40.137517      40.137517      40.137517      1.1318202      2343.2284      3900.9486      2802.5902    
     19400   19400          302.01328      2800.5307      4147.7329      1493.5177      5112.487      -3618.9693      998.88846      5020.4662     -8473.5129     -50.706413     -3177.6585      6953.0213     -4889.4674     -493.99418      64986.016      40.204374      40.204374      40.204374      1.1261832      2514.3237      3600.4861      2286.7823    
     19500   19500          295.75769      2334.0078      3591.8455      1371.8533      5006.5922     -3634.7389      1019.7379      4927.9776     -8426.251      -57.042096     -3165.1749      6954.22       -4888.2064     -492.23047      65218.867      40.252335      40.252335      40.252335      1.1221624      2673.3451      2520.6334      1808.045     
     19600   19600          296.71257      3284.6051      4455.8042      1328.7441      5022.7565     -3694.0123      991.24852      4943.5532     -8485.5746     -54.514646     -3159.044       6957.1577     -4886.8385     -491.77289      65279.552      40.264816      40.264816      40.264816      1.1211192      2053.1577      2533.4387      5267.219     
     19700   19700          299.6843       3088.4525      4325.0596      1387.9182      5073.0619     -3685.1436      980.24034      4911.0445     -8434.7318     -53.888184     -3149.9031      6949.9442     -4887.8496     -492.30439      65209.074      40.250321      40.250321      40.250321      1.1223309      2640.2749      3486.0362      3139.0464    
     19800   19800          302.5491       2851.5785      4222.9652      1515.0294      5121.5573     -3606.5279      1015.0971      4973.9203     -8517.9927     -49.076981     -3107.5235      6965.8511     -4886.8033     -493.02007      65114.415      40.230835      40.230835      40.230835      1.1239625      3235.025       2640.2341      2679.4765    
     19900   19900          303.23458      2914.8559      4276.8813      1509.872       5133.1612     -3623.2892      1007.0576      4976.8609     -8473.7506     -53.550715     -3149.7092      6959.125      -4889.3222     -493.20118      65090.505      40.22591       40.22591       40.22591       1.1243754      2458.2417      4553.088       1733.238     
     20000   20000          303.57846      3062.7945      4365.4173      1460.6499      5138.9823     -3678.3324      987.16532      4916.2477     -8464.3876     -50.00348      -3153.0858      6975.1694     -4889.438      -493.65567      65030.578      40.213562      40.213562      40.213562      1.1254115      3912.0558      2180.7152      3095.6126    
     20100   20100          299.23646      3004.706       4240.755       1392.486       5065.4809     -3672.9949      1009.4867      4882.81       -8438.8046     -51.038198     -3153.9662      6964.3245     -4885.8071     -493.89953      64998.47       40.206942      40.206942      40.206942      1.1259674      1864.4336      4136.4458      3013.2386    
     20200   20200          300.42362      1551.3017      2855.0902      1386.5958      5085.5771     -3698.9813      1016.7597      4974.8873     -8458.6164     -52.092966     -3237.5554      6946.5007     -4888.8642     -494.58577      64908.284      40.188338      40.188338      40.188338      1.1275319      1330.5276      1647.0309      1676.3466    
     20300   20300          300.44577      2865.7899      4150.896       1449.1979      5085.9521     -3636.7543      991.17347      4961.8535     -8464.7632     -53.179935     -3127.8175      6946.3053     -4890.3259     -496.62109      64642.269      40.133361      40.133361      40.133361      1.1321719      3012.5208      3523.9526      2060.8963    
     20400   20400          305.73148      3059.4169      4426.084       1546.0984      5175.4287     -3629.3303      1035.5289      4939.388      -8445.7145     -52.448845     -3170.858       6953.1521     -4888.378      -497.35442      64546.955      40.113626      40.113626      40.113626      1.1338437      2788.6689      3909.5303      2480.0515    
     20500   20500          306.77012      3582.3144      4859.5349      1487.3053      5193.0108     -3705.7055      1003.3206      4957.7201     -8494.5235     -53.463893     -3184.0432      6955.2501     -4889.9657     -497.35237      64547.221      40.113681      40.113681      40.113681      1.133839       2612.3622      4171.4443      3963.1366    
     20600   20600          296.40364      3198.2404      4381.1434      1366.2319      5017.5268     -3651.2949      1001.2582      4998.0897     -8505.9885     -52.894448     -3160.3062      6955.6231     -4887.0767     -496.65426      64637.95       40.132467      40.132467      40.132467      1.1322475      3869.0173      3528.5246      2197.1794    
     20700   20700          298.45712      3299.08        4457.3302      1335.2786      5052.2882     -3717.0096      991.69225      5008.5454     -8498.5821     -54.297518     -3226.7855      6953.4233     -4891.0055     -494.73246      64889.038      40.184365      40.184365      40.184365      1.1278663      3633.4274      2740.4315      3523.3813    
     20800   20800          302.84202      3006.5281      4231.8768      1382.1312      5126.5159     -3744.3847      957.54092      4942.6213     -8478.2786     -51.079035     -3183.1793      6955.9212     -4887.9311     -493.94296      64992.754      40.205764      40.205764      40.205764      1.1260664      2198.2448      3423.7331      3397.6065    
     20900   20900          300.95087      3383.5989      4709.2994      1501.5164      5094.5024     -3592.986       1021.8706      5041.9358     -8522.1408     -55.370514     -3143.0099      6951.173      -4887.4441     -493.84598      65005.518      40.208395      40.208395      40.208395      1.1258453      3466.3587      3998.0761      2686.3617    
     21000   21000          306.53364      3877.8194      5179.6508      1505.826       5189.0076     -3683.1816      1033.0758      4827.7731     -8432.171      -47.373719     -3130.456       6955.4257     -4889.4556     -494.18182      64961.34       40.199285      40.199285      40.199285      1.126611       3655.4018      3564.6649      4413.3914    
     21100   21100          304.06942      2534.0964      3851.7235      1452.3321      5147.2933     -3694.9612      998.36378      4971.523      -8503.9863     -51.504001     -3166.7978      6947.4131     -4889.9729     -494.46969      64923.522      40.191482      40.191482      40.191482      1.1272672      1492.9987      3646.8979      2462.3928    
     21200   21200          301.21179      2763.3676      4025.2239      1412.813       5098.9193     -3686.1063      993.07393      5037.8405     -8523.915      -49.154106     -3211.2255      6956.5097     -4889.2358     -495.23898      64822.672      40.170661      40.170661      40.170661      1.129021       2265.6792      2699.5797      3324.8439    
[...]
    495200   495200         296.11208      2414.3906      3609.2463      1328.4597      5012.5913     -3684.1315      1019.5212      5093.9461     -8553.3859     -55.380779     -3215.1141      6916.5561     -4890.2742     -495.61052      64774.076      40.16062       40.16062       40.16062       1.1298681      2384.2532      2911.2881      1947.6304    
    495300   495300         302.95194      2827.0663      4130.6061      1457.9153      5128.3765     -3670.4612      1037.0191      4926.4283     -8414.5271     -51.092081     -3211.5797      6935.419      -4892.1288     -495.22768      64824.15       40.170966      40.170966      40.170966      1.1289953      1692.3673      3840.4276      2948.4041    
    495400   495400         300.95017      4022.6881      5313.9147      1511.9063      5094.4906     -3582.5842      1019.749       5033.5883     -8452.0331     -52.010299     -3170.5365      6928.9452     -4890.2869     -495.35999      64806.836      40.167389      40.167389      40.167389      1.1292969      5006.109       3234.2808      3827.6743    
    495500   495500         298.70871      1997.7799      3385.661       1496.1675      5056.5471     -3560.3796      1057.1726      5022.5493     -8372.5259     -53.093078     -3250.7791      6927.9189     -4891.6223     -495.01672      64851.776      40.176672      40.176672      40.176672      1.1285143      1911.796       2300.5062      1781.0375    
    495600   495600         304.25063      4062.9852      5293.2107      1460.5293      5150.3609     -3689.8315      1025.3928      4966.4529     -8484.8296     -52.329888     -3178.7832      6927.6652     -4893.3998     -496.31816      64681.723      40.141524      40.141524      40.141524      1.1314813      3151.3335      4724.0318      4313.5903    
    495700   495700         303.12893      2634.0032      3882.0235      1400.7797      5131.3726     -3730.5929      1011.6475      4909.3099     -8474.2755     -49.516994     -3176.6599      6936.8466     -4887.9445     -497.00928      64591.78       40.122909      40.122909      40.122909      1.1330569      1766.3552      3483.9151      2651.7392    
    495800   495800         301.93007      3422.0092      4614.748       1390.5603      5111.0783     -3720.518       993.19176      4995.4987     -8490.8694     -53.857952     -3204.3676      6928.2206     -4888.3341     -496.91087      64604.571      40.125558      40.125558      40.125558      1.1328325      3373.9159      2892.6935      3999.4182    
    495900   495900         300.68315      3365.7801      4557.7501      1381.7079      5089.9704     -3708.2626      1018.4755      4974.0461     -8468.5119     -50.811664     -3229.8732      6936.4389     -4888.0263     -496.15469      64703.034      40.145932      40.145932      40.145932      1.1311086      2564.1339      3374.9974      4158.2091    
    496000   496000         296.39004      2673.946       3893.0331      1367.9246      5017.2966     -3649.372       1063.8741      4994.5422     -8471.2574     -50.268266     -3243.5178      6944.5521     -4887.2971     -495.7814       64751.751      40.156006      40.156006      40.156006      1.1302576      2015.8395      3141.7173      2864.2812    
    496100   496100         299.98155      3681.4585      4890.1352      1417.5024      5078.0937     -3660.5913      1002.5462      4979.485      -8454.429      -52.989476     -3175.5027      6931.0813     -4890.7826     -496.33932      64678.965      40.140954      40.140954      40.140954      1.1315295      3889.4568      3480.9562      3673.9624    
    496200   496200         307.00163      1893.4787      3333.1805      1548.8493      5196.9298     -3648.0805      1030.6011      5044.2153     -8479.3962     -52.037692     -3241.4173      6939.5106     -4889.5563     -496.824        64615.867      40.127896      40.127896      40.127896      1.1326345      1580.9833      2955.0555      1144.3973    
    496300   496300         303.19909      3465.1243      4794.4825      1534.0757      5132.5603     -3598.4846      1000.7561      4948.235      -8392.9503     -48.133452     -3165.5387      6945.9691     -4886.8224     -497.582        64517.433      40.107509      40.107509      40.107509      1.1343625      2468.3413      3532.3616      4394.67      
    496400   496400         302.36573      3087.3671      4330.5268      1423.074       5118.4532     -3695.3792      954.10887      5043.4598     -8453.6049     -52.264621     -3228.1297      6929.4851     -4888.4338     -497.15663      64572.635      40.118945      40.118945      40.118945      1.1333928      3731.1377      3931.3571      1599.6066    
    496500   496500         300.50592      2788.379       4014.4458      1387.3242      5086.9703     -3699.6461      1002.6067      4946.4356     -8454.2255     -54.307368     -3194.5883      6941.11       -4886.6773     -496.92319      64602.969      40.125226      40.125226      40.125226      1.1328606      2764.1755      3392.8145      2208.1472    
    496600   496600         300.45826      3892.9754      5057.9235      1384.2296      5086.1635     -3701.9338      1006.9695      4951.2446     -8470.7707     -52.246008     -3202.8839      6951.9587     -4886.2059     -496.13096      64706.129      40.146572      40.146572      40.146572      1.1310545      4936.8899      4052.4473      2689.589     
    496700   496700         302.24236      2684.2612      3965.1935      1429.3847      5116.3649     -3686.9801      1023.4135      4931.0531     -8429.756      -52.302146     -3208.3453      6936.6675     -4887.7108     -495.59385      64776.255      40.16107       40.16107       40.16107       1.1298301      3074.594       3033.7629      1944.4266    
    496800   496800         300.8298       3055.7708      4459.3182      1574.1874      5092.4529     -3518.2655      1054.3499      4981.3923     -8350.5578     -54.017805     -3193.7996      6930.7797     -4886.4123     -495.87579      64739.425      40.153457      40.153457      40.153457      1.1304728      3327.2674      3395.8755      2444.1696    
    496900   496900         303.84482      3488.1026      4880.1318      1590.877       5143.4913     -3552.6143      1049.8719      4993.9523     -8443.3961     -51.92264      -3163.1374      6949.6743     -4887.6566     -496.4887       64659.505      40.136928      40.136928      40.136928      1.1318701      4055.0356      3157.0447      3252.2274    
    497000   497000         301.96638      2900.5503      4255.2554      1518.9967      5111.693      -3592.6963      1058.6839      4979.1965     -8443.7427     -49.102507     -3180.4987      6931.8657     -4889.0984     -496.29612      64684.595      40.142118      40.142118      40.142118      1.1314311      1046.5317      3649.254       4005.8652    
    497100   497100         307.8203       4073.0111      5294.0951      1446.6628      5210.7883     -3764.1256      979.76018      4897.8025     -8414.6282     -54.105347     -3216.3844      6935.1299     -4891.7002     -495.63531      64770.837      40.159951      40.159951      40.159951      1.1299246      4596.1971      5289.6224      2333.2136    
    497200   497200         299.46515      3314.1115      4510.6714      1378.1785      5069.3521     -3691.1735      998.32425      4924.0911     -8413.4427     -53.386327     -3203.0932      6945.5878     -4889.2544     -495.33004      64810.755      40.168199      40.168199      40.168199      1.1292286      3019.9929      2711.3145      4211.0272    
    497300   497300         297.58636      1805.577       3108.6143      1402.9605      5037.548      -3634.5874      1041.5552      4964.5681     -8427.5075     -51.618193     -3207.0125      6936.7118     -4891.2844     -495.61309      64773.74       40.160551      40.160551      40.160551      1.1298739      2326.3075      2730.1526      360.27075    
    497400   497400         300.65121      3678.2578      4923.6189      1461.9801      5089.4297     -3627.4496      1022.3852      4956.0808     -8425.0969     -50.846501     -3180.4817      6944.2633     -4893.7539     -497.48277      64530.302      40.110176      40.110176      40.110176      1.1341363      3927.712       3367.6296      3739.4317    
    497500   497500         304.26442      3388.0432      4734.6362      1551.66        5150.5942     -3598.9342      1007.7517      4946.8384     -8372.8971     -54.01907      -3182.7412      6947.9444     -4891.8114     -498.34854      64418.196      40.086935      40.086935      40.086935      1.1361101      4950.0546      2527.4107      2686.6644    
    497600   497600         305.91907      2668.7258      4145.7941      1635.171       5178.6042     -3543.4332      1055.5317      5057.9169     -8421.8791     -57.615547     -3221.9662      6936.5435     -4891.9646     -497.66839      64506.233      40.105188      40.105188      40.105188      1.1345595      2375.2729      3455.7764      2175.1281    
    497700   497700         300.52462      3151.6589      4479.5438      1510.775       5087.2869     -3576.5119      1004.3107      4990.9445     -8400.9701     -49.175713     -3172.6258      6941.4652     -4890.4606     -497.02755      64589.405      40.122418      40.122418      40.122418      1.1330985      3419.4496      3014.7774      3020.7495    
    497800   497800         302.80997      2818.7104      4087.7711      1426.4856      5125.9733     -3699.4877      986.29436      4983.0177     -8463.9819     -54.283068     -3185.0237      6930.075      -4895.5861     -495.88003      64738.871      40.153343      40.153343      40.153343      1.1304825      2212.543       4211.2976      2032.2905    
    497900   497900         300.69111      2219.7292      3496.6081      1397.7023      5090.1052     -3692.4029      1041.5235      4879.4604     -8401.9353     -53.121184     -3206.5288      6942.2884     -4894.0898     -495.13621      64836.126      40.17344       40.17344       40.17344       1.1287867      3098.2033      1977.1537      1583.8306    
    498000   498000         299.19274      2143.536       3452.3927      1427.1051      5064.7407     -3637.6356      1025.8408      4918.0117     -8405.7816     -50.294599     -3184.3386      6948.7185     -4889.7918     -495.5206       64785.831      40.163049      40.163049      40.163049      1.1296631      1376.2956      2350.0171      2704.2953    
    498100   498100         303.20481      4227.0317      5560.6439      1566.6996      5132.6571     -3565.9575      1009.5557      5027.1552     -8480.6095     -55.513648     -3123.0795      6946.5018     -4889.9676     -495.50852      64787.41       40.163375      40.163375      40.163375      1.1296355      3978.2662      2803.3894      5899.4393    
    498200   498200         305.4414       1308.7684      2818.8676      1579.568       5170.5182     -3590.9502      1045.5318      4983.8567     -8416.5227     -55.436833     -3202.5329      6943.5158     -4889.3621     -494.42919      64928.84       40.19258       40.19258       40.19258       1.1271749      768.36481      1931.1994      1226.7409    
    498300   498300         296.84136      3267.0008      4596.6446      1507.4326      5024.9365     -3517.5039      1031.4408      5039.7441     -8435.2715     -50.737861     -3158.3566      6942.5003     -4886.8231     -495.12992      64836.95       40.17361       40.17361       40.17361       1.1287724      3319.5014      3021.6693      3459.8316    
    498400   498400         299.35074      2559.6558      3869.5168      1449.1397      5067.4154     -3618.2758      1041.587       4970.0688     -8447.7441     -51.798723     -3172.7488      6935.8552     -4893.4951     -495.12649      64837.399      40.173703      40.173703      40.173703      1.1287646      1797.0053      4392.486       1489.4761    
    498500   498500         300.0162       2761.5245      4019.0825      1411.2097      5078.6803     -3667.4707      975.3873       4932.207      -8395.2071     -49.953272     -3187.5005      6947.1853     -4889.5894     -495.76985      64753.259      40.156317      40.156317      40.156317      1.1302313      2577.1391      2954.3811      2753.0532    
    498600   498600         300.00211      2627.7771      3860.1457      1381.4131      5078.4417     -3697.0287      1003.1308      4974.17       -8461.3494     -51.333966     -3219.1904      6948.9815     -4891.4371     -496.3368       64679.294      40.141022      40.141022      40.141022      1.1315238      2999.8515      2942.4261      1941.0536    
    498700   498700         302.07087      3382.4882      4587.158       1396.8863      5113.4618     -3716.5754      1021.9758      4872.1663     -8423.5074     -52.574526     -3192.2107      6947.3363     -4889.7611     -496.39368      64671.882      40.139488      40.139488      40.139488      1.1316535      4882.1116      2654.4773      2610.8756    
    498800   498800         299.66978      2724.9465      4076.4295      1508.9924      5072.8162     -3563.8238      1041.5094      4964.7438     -8390.0009     -51.386408     -3175.8707      6939.1521     -4891.971      -496.90779      64604.972      40.125641      40.125641      40.125641      1.1328255      3238.6792      2172.0044      2764.1559    
    498900   498900         306.57583      2667.6689      4070.2609      1558.4807      5189.7218     -3631.2411      986.40698      4971.0829     -8407.7508     -51.662042     -3170.4566      6933.1127     -4891.9742     -497.24215      64561.53       40.116645      40.116645      40.116645      1.1335878      2132.3495      4079.0485      1791.6087    
    499000   499000         302.70768      3423.8143      4707.8968      1486.1723      5124.2418     -3638.0694      1055.2561      4979.8013     -8445.7988     -48.752109     -3231.2396      6943.447      -4890.7832     -497.5531       64521.181      40.108286      40.108286      40.108286      1.1342967      3343.465       3232.607       3695.3708    
    499100   499100         296.98491      3470.5832      4637.929       1371.7061      5027.3667     -3655.6606      1029.698       4906.4102     -8382.4166     -51.891475     -3198.9972      6932.4689     -4890.9323     -497.47845      64530.863      40.110292      40.110292      40.110292      1.1341265      3549.4942      3639.5574      3222.6981    
    499200   499200         303.53845      2361.8786      3587.5541      1364.4943      5138.305      -3773.8107      1019.774       4882.8636     -8457.8624     -52.880058     -3213.9017      6936.9297     -4888.7338     -497.42094      64538.324      40.111838      40.111838      40.111838      1.1339954      2538.7542      2943.7565      1603.125     
    499300   499300         296.57557      3677.3211      4837.7315      1374.8265      5020.4372     -3645.6107      1041.7088      4941.3346     -8444.0128     -54.682432     -3182.6887      6943.7843     -4891.0546     -497.17422      64570.35       40.118472      40.118472      40.118472      1.1334329      4237.2454      3620.503       3174.215     
    499400   499400         304.0703       2949.0284      4234.6689      1458.6484      5147.3083     -3688.6599      970.21333      4957.814      -8457.8261     -54.421317     -3153.0394      6939.1582     -4890.5586     -497.36352      64545.775      40.113381      40.113381      40.113381      1.1338645      1808.3449      3945.0179      3093.7225    
    499500   499500         307.71915      2239.2067      3688.2464      1581.7048      5209.076      -3627.3713      1053.9776      4983.0153     -8471.711      -49.935127     -3189.9781      6938.3094     -4891.0494     -497.67036      64505.979      40.105136      40.105136      40.105136      1.134564       2366.436       2318.1682      2033.0158    
    499600   499600         301.88711      3999.273       5305.1864      1546.0066      5110.3512     -3564.3445      1024.7396      5034.2952     -8486.6817     -51.135122     -3147.422       6952.8093     -4890.9498     -498.08744      64451.964      40.093938      40.093938      40.093938      1.1355148      3695.0451      3494.8334      4807.9405    
    499700   499700         300.11598      2255.0303      3587.8539      1464.523       5080.3694     -3615.8464      1048.1242      4948.2285     -8387.8481     -51.921676     -3231.9169      6951.7401     -4892.2525     -497.22428      64563.85       40.117125      40.117125      40.117125      1.133547       3069.5415      1694.8735      2000.676     
    499800   499800         295.17718      3376.0183      4573.0893      1395.7606      4996.7653     -3601.0047      1030.3389      4991.4049     -8441.7813     -52.591439     -3180.9618      6942.3031     -4889.7171     -497.46242      64532.942      40.110723      40.110723      40.110723      1.1340899      2774.3548      2945.0493      4408.6509    
    499900   499900         298.49335      2308.4529      3551.7638      1377.4321      5052.9014     -3675.4693      1002.0455      4976.0442     -8406.1024     -52.25497      -3251.5557      6945.3793     -4889.0253     -497.06461      64584.589      40.12142       40.12142       40.12142       1.133183       2513.8274      2262.3988      2149.1325    
    500000   500000         298.4563       3931.7459      5143.5383      1439.742       5052.2742     -3612.5322      1010.4749      4995.2611     -8457.2278     -53.130758     -3170.5512      6951.8756     -4889.234      -496.99955      64593.044      40.123171      40.123171      40.123171      1.1330347      3570.6097      4159.0969      4065.5312    
Loop time of 4477.03 on 1 procs for 500000 steps with 7020 atoms

Performance: 9.649 ns/day, 2.487 hours/ns, 111.681 timesteps/s, 784.003 katom-step/s
100.0% CPU use with 1 MPI tasks x 1 OpenMP threads

MPI task timing breakdown:
Section |  min time  |  avg time  |  max time  |%varavg| %total
---------------------------------------------------------------
Pair    | 1155.6     | 1155.6     | 1155.6     |   0.0 | 25.81
Bond    | 542.25     | 542.25     | 542.25     |   0.0 | 12.11
Kspace  | 1715.6     | 1715.6     | 1715.6     |   0.0 | 38.32
Neigh   | 200.76     | 200.76     | 200.76     |   0.0 |  4.48
Comm    | 24.016     | 24.016     | 24.016     |   0.0 |  0.54
Output  | 9.3499     | 9.3499     | 9.3499     |   0.0 |  0.21
Modify  | 740        | 740        | 740        |   0.0 | 16.53
Other   |            | 89.53      |            |       |  2.00

Nlocal:           7020 ave        7020 max        7020 min
Histogram: 1 0 0 0 0 0 0 0 0 0
Nghost:          20385 ave       20385 max       20385 min
Histogram: 1 0 0 0 0 0 0 0 0 0
Neighs:              0 ave           0 max           0 min
Histogram: 1 0 0 0 0 0 0 0 0 0
FullNghs:  4.84964e+06 ave 4.84964e+06 max 4.84964e+06 min
Histogram: 1 0 0 0 0 0 0 0 0 0

Total # of neighbors = 4849644
Ave neighs/atom = 690.83248
Ave special neighs/atom = 5.7008547
Neighbor list builds = 14520
Dangerous builds = 0

# --- Cleanup ---
unfix npt_fix
unfix shake_fix
undump dump_npt

# --- Write Output ---
write_dump all custom /home/arz2/PolyJarvis/data/PEG1/lammps/mechanical/bm_series/bm_P3000/bm_P3000_last.dump id type mol x y z xu yu zu vx vy vz modify sort id
write_data /home/arz2/PolyJarvis/data/PEG1/lammps/mechanical/bm_series/bm_P3000/bm_P3000_out.data
System init for write_data ...
PPPM Kokkos initialization ...
  using 12-bit tables for long-range coulomb
  G vector (1/distance) = 0.30490725
  grid = 30 30 30
  stencil order = 5
  estimated absolute RMS force accuracy = 0.00028532097
  estimated relative force accuracy = 8.5923561e-07
  using double precision cuFFT
  3d grid and FFT values/proc = 50653 27000
Generated 10 of 10 mixed pair_coeff terms from sixthpower/sixthpower mixing rule

print "STAGE COMPLETE: NPT T=300.0->300.0K P=3000.0->3000.0atm steps=500000"
STAGE COMPLETE: NPT T=300.0->300.0K P=3000.0->3000.0atm steps=500000
quit
