units real
atom_style full
boundary p p p

# --- Force Field Styles ---
pair_style lj/class2/coul/long 9.5 9.5
kspace_style pppm 1e-6
dielectric 1.000000
bond_style class2
angle_style class2
dihedral_style class2
improper_style class2
special_bonds lj/coul 0 0 1
pair_modify mix sixthpower tail yes
neighbor 2.0 bin
neigh_modify delay 0 every 1 check yes
neigh_modify one 4000
# KOKKOS: package loaded via -pk kokkos on the command line

read_data /home/alexzhao/PolyJarvis/data/PEG3/lammps/equil/npt_compress/npt_compress_out.data
Reading data file ...
  orthogonal box = (6.0200363 6.0200363 6.0200363) to (43.301097 43.301097 43.301097)
  1 by 1 by 1 MPI processor grid
WARNING: Pair style lj/class2/coul/cut/kk in data file differs from currently defined pair style lj/class2/coul/long/kk (src/read_data.cpp:811)
  reading atoms ...
  7020 atoms
  reading velocities ...
  7020 velocities
  scanning bonds ...
  4 = max bonds/atom
  scanning angles ...
  10 = max angles/atom
  scanning dihedrals ...
  16 = max dihedrals/atom
  scanning impropers ...
  7 = max impropers/atom
  orthogonal box = (6.0200363 6.0200363 6.0200363) to (43.301097 43.301097 43.301097)
  1 by 1 by 1 MPI processor grid
  reading bonds ...
  7010 bonds
  reading angles ...
  13000 angles
  reading dihedrals ...
  14970 dihedrals
  reading impropers ...
  8000 impropers
Finding 1-2 1-3 1-4 neighbors ...
  special bond factors lj:    0        0        1       
  special bond factors coul:  0        0        1       
     4 = max # of 1-2 neighbors
     6 = max # of 1-3 neighbors
     8 = max # of special neighbors
  special bonds CPU = 0.003 seconds
  read_data CPU = 0.182 seconds
include /home/alexzhao/PolyJarvis/data/PEG3/lammps/cell/emc_build.params
# LAMMPS parameters created by EMC v9.4.4, build Jul 31 2025 20:33:44

# Variables

variable	seed		index	830011
variable	ntotal		index	7020
variable	fshape		index	1
variable	output		index	emc_build
variable	field		index	pcff/pcff
variable	location1	index	~/emc/field/
variable	nav		index	0.6022141179
variable	temperature	index	300
variable	radius		index	5
variable	nrelax		index	100
variable	weight_nonbond	index	0.0001
variable	weight_bond	index	0.0001
variable	weight_focus	index	1
variable	cutoff		index	9.5
variable	charge_cutoff	index	9.5
variable	kappa		index	4
variable	density1	index	0.61
variable	lprevious	index	0
variable	lphase		index	49.3211329242
variable	f_poly		index	10
variable	chem_repeat	index	*CCO*
variable	chem_cap	index	*[H]
variable	lg_repeat	index	7
variable	lg_cap		index	1
variable	norm_poly	index	100
variable	l_poly		index	702
variable	mg_repeat	index	16.04303
variable	mg_cap		index	0
variable	m_poly		index	1604.303
variable	n_poly		index	10
variable	mtotal		index	44073.7394
variable	nphase1		index	7020
variable	mphase1		index	44073.7394
variable	vphase1		index	119977.313144
variable	lbox		index	49.3211329242
variable	lphase1		index	49.3211329242
variable	lxx		index	49.3211329242
variable	lyy		index	49.3211329242
variable	lzz		index	49.3211329242
variable	lzy		index	0
variable	lzx		index	0
variable	lyx		index	0
variable	vtotal		index	119977.313144
variable	nl_poly		index	10

# Types

variable	type_c		index	1
variable	type_hc		index	2
variable	type_ho		index	3
variable	type_oc		index	4
variable	type_oh		index	5

variable	type_bond_c_c	index	1
variable	type_bond_c_hc	index	2
variable	type_bond_c_oc	index	3
variable	type_bond_c_oh	index	4
variable	type_bond_ho_oh	index	5

variable	type_angle_c_c_hc index	1
variable	type_angle_c_c_oc index	2
variable	type_angle_c_c_oh index	3
variable	type_angle_c_oc_c index	4
variable	type_angle_c_oh_ho index	5
variable	type_angle_hc_c_hc index	6
variable	type_angle_hc_c_oc index	7
variable	type_angle_hc_c_oh index	8

# Clusters

variable	n0_poly		index	1
variable	n1_poly		index	10
variable	nl_poly		index	10

# Flags

variable	flag_charged	index	1

# Masses

mass		1    12.01115  # c
mass		2     1.00797  # hc
mass		3     1.00797  # ho
mass		4    15.99940  # oc
mass		5    15.99940  # oh

# Potentials

pair_modify	mix sixthpower tail yes
special_bonds	lj/coul 0 0 1

# Pair Coeffs

pair_coeff	 1  1    0.05400    4.01000  # c,c
pair_coeff	 2  2    0.02000    2.99500  # hc,hc
pair_coeff	 3  3    0.01300    1.09800  # ho,ho
pair_coeff	 4  4    0.24000    3.53500  # oc,oc
pair_coeff	 5  5    0.24000    3.53500  # oh,oh

# Bond Coeffs

bond_coeff	1    1.53000  299.67000 -501.77000  679.81000  # c,c
bond_coeff	2    1.10100  345.00000 -691.89000  844.60000  # c,hc
bond_coeff	3    1.42000  400.39540 -835.19510 1313.01420  # c,oc
bond_coeff	4    1.42000  400.39540 -835.19510 1313.01420  # c,oh
bond_coeff	5    0.96500  532.50620 -1282.90500 2004.76580  # ho,oh

# Angle Coeffs

angle_coeff	1  110.77000   41.45300  -10.60400    5.12900  # c,c,hc
angle_coeff	2  111.27000   54.53810   -8.36420  -13.08380  # c,c,oc
angle_coeff	3  111.27000   54.53810   -8.36420  -13.08380  # c,c,oh
angle_coeff	4  104.50000   35.74540  -10.00670   -6.27290  # c,oc,c
angle_coeff	5  105.80000   52.70610  -12.10900   -9.86810  # c,oh,ho
angle_coeff	6  107.66000   39.64100  -12.92100   -2.43180  # hc,c,hc
angle_coeff	7  108.72800   58.54460  -10.80880  -12.40060  # hc,c,oc
angle_coeff	8  108.72800   58.54460  -10.80880  -12.40060  # hc,c,oh

# BondBond Coeffs

angle_coeff	1 bb    3.38720    1.53000    1.10100  # c,c,hc
angle_coeff	2 bb   11.43180    1.53000    1.42000  # c,c,oc
angle_coeff	3 bb   11.43180    1.53000    1.42000  # c,c,oh
angle_coeff	4 bb   -7.11310    1.42000    1.42000  # c,oc,c
angle_coeff	5 bb   -9.68790    1.42000    0.96500  # c,oh,ho
angle_coeff	6 bb    5.33160    1.10100    1.10100  # hc,c,hc
angle_coeff	7 bb   23.19790    1.10100    1.42000  # hc,c,oc
angle_coeff	8 bb   23.19790    1.10100    1.42000  # hc,c,oh

# BondAngle Coeffs

angle_coeff	1 ba   20.75400   11.42100    1.53000    1.10100  # c,c,hc
angle_coeff	2 ba    2.68680   20.40330    1.53000    1.42000  # c,c,oc
angle_coeff	3 ba    2.68680   20.40330    1.53000    1.42000  # c,c,oh
angle_coeff	4 ba   -2.81120   -2.81120    1.42000    1.42000  # c,oc,c
angle_coeff	5 ba   28.58000   18.92770    1.42000    0.96500  # c,oh,ho
angle_coeff	6 ba   18.10300   18.10300    1.10100    1.10100  # hc,c,hc
angle_coeff	7 ba    4.61890   55.32700    1.10100    1.42000  # hc,c,oc
angle_coeff	8 ba    4.61890   55.32700    1.10100    1.42000  # hc,c,oh

# Dihedral Coeffs

dihedral_coeff	1   -0.52030    0.00000   -0.30280    0.00000   -0.34500    0.00000  # c,c,oc,c
dihedral_coeff	2   -0.67320    0.00000   -0.47780    0.00000   -0.16700    0.00000  # c,c,oh,ho
dihedral_coeff	3    0.53020    0.00000    0.00000    0.00000   -0.39660    0.00000  # c,oc,c,hc
dihedral_coeff	4   -0.14320    0.00000    0.06170    0.00000   -0.10830    0.00000  # hc,c,c,hc
dihedral_coeff	5   -0.14350    0.00000    0.25300    0.00000   -0.09050    0.00000  # hc,c,c,oc
dihedral_coeff	6   -0.14350    0.00000    0.25300    0.00000   -0.09050    0.00000  # hc,c,c,oh
dihedral_coeff	7    0.18630    0.00000   -0.43380    0.00000   -0.21210    0.00000  # hc,c,oh,ho
dihedral_coeff	8   -0.18200    0.00000   -0.10840    0.00000   -0.70470    0.00000  # oc,c,c,oc
dihedral_coeff	9   -0.18200    0.00000   -0.10840    0.00000   -0.70470    0.00000  # oc,c,c,oh

# MiddleBondTorsion Coeffs

dihedral_coeff	1 mbt   -5.92880   -2.70070   -0.31750    1.42000  # c,c,oc,c
dihedral_coeff	2 mbt    1.24720    0.00000    0.74850    1.42000  # c,c,oh,ho
dihedral_coeff	3 mbt   -6.80070   -4.65460   -1.41010    1.42000  # c,oc,c,hc
dihedral_coeff	4 mbt  -14.26100   -0.53220   -0.48640    1.53000  # hc,c,c,hc
dihedral_coeff	5 mbt  -16.79750   -1.22960   -0.27500    1.53000  # hc,c,c,oc
dihedral_coeff	6 mbt  -16.79750   -1.22960   -0.27500    1.53000  # hc,c,c,oh
dihedral_coeff	7 mbt    0.00000    0.92410   -0.58890    1.42000  # hc,c,oh,ho
dihedral_coeff	8 mbt  -17.25850   -3.61570   -0.83640    1.53000  # oc,c,c,oc
dihedral_coeff	9 mbt  -17.25850   -3.61570   -0.83640    1.53000  # oc,c,c,oh

# EndBondTorsion Coeffs

dihedral_coeff	1 ebt   -0.24560    1.05170   -0.77950    0.47410    1.26350    0.55760    1.53000    1.42000  # c,c,oc,c
dihedral_coeff	2 ebt   -0.58000    0.90040    0.00000    0.00000    0.53430    0.90250    1.53000    0.96500  # c,c,oh,ho
dihedral_coeff	3 ebt   -0.16200    0.15640   -1.14080   -0.60540    1.33390    0.96480    1.42000    1.10100  # c,oc,c,hc
dihedral_coeff	4 ebt    0.21300    0.31200    0.07770    0.21300    0.31200    0.07770    1.10100    1.10100  # hc,c,c,hc
dihedral_coeff	5 ebt    0.96810    0.95510    0.04360    0.59030    0.66690    0.85840    1.10100    1.42000  # hc,c,c,oc
dihedral_coeff	6 ebt    0.96810    0.95510    0.04360    0.59030    0.66690    0.85840    1.10100    1.42000  # hc,c,c,oh
dihedral_coeff	7 ebt   -1.75540    1.31450    0.22630    0.24930    0.68030    0.00000    1.10100    0.96500  # hc,c,oh,ho
dihedral_coeff	8 ebt    1.01650    0.75530   -0.46090    1.01650    0.75530   -0.46090    1.42000    1.42000  # oc,c,c,oc
dihedral_coeff	9 ebt    1.01650    0.75530   -0.46090    1.01650    0.75530   -0.46090    1.42000    1.42000  # oc,c,c,oh

# AngleTorsion Coeffs

dihedral_coeff	1 at   -2.74660    1.48770   -0.89550    0.56760    0.94500    0.07030  111.27000  104.50000  # c,c,oc,c
dihedral_coeff	2 at   -3.59030    2.52250    0.48880    0.87260   -0.35770    0.38880  111.27000  105.80000  # c,c,oh,ho
dihedral_coeff	3 at   -0.77770    0.43400   -0.66530   -1.82340    1.63930    0.51440  104.50000  108.72800  # c,oc,c,hc
dihedral_coeff	4 at   -0.80850    0.55690   -0.24660   -0.80850    0.55690   -0.24660  110.77000  110.77000  # hc,c,c,hc
dihedral_coeff	5 at    2.36680    2.49200   -1.01220   -0.18920    0.49180    0.72730  110.77000  111.27000  # hc,c,c,oc
dihedral_coeff	6 at    2.36680    2.49200   -1.01220   -0.18920    0.49180    0.72730  110.77000  111.27000  # hc,c,c,oh
dihedral_coeff	7 at   -3.40600    1.63960    0.07370    0.00000   -0.28100   -0.59440  108.72800  105.80000  # hc,c,oh,ho
dihedral_coeff	8 at    0.55110    0.97370   -0.66730    0.55110    0.97370   -0.66730  111.27000  111.27000  # oc,c,c,oc
dihedral_coeff	9 at    0.55110    0.97370   -0.66730    0.55110    0.97370   -0.66730  111.27000  111.27000  # oc,c,c,oh

# AngleAngleTorsion Coeffs

dihedral_coeff	1 aat  -19.00590  111.27000  104.50000  # c,c,oc,c
dihedral_coeff	2 aat  -12.10380  111.27000  105.80000  # c,c,oh,ho
dihedral_coeff	3 aat  -16.44380  104.50000  108.72800  # c,oc,c,hc
dihedral_coeff	4 aat  -12.56400  110.77000  110.77000  # hc,c,c,hc
dihedral_coeff	5 aat  -20.20060  110.77000  111.27000  # hc,c,c,oc
dihedral_coeff	6 aat  -20.20060  110.77000  111.27000  # hc,c,c,oh
dihedral_coeff	7 aat  -10.50930  108.72800  105.80000  # hc,c,oh,ho
dihedral_coeff	8 aat  -14.04840  111.27000  111.27000  # oc,c,c,oc
dihedral_coeff	9 aat  -14.04840  111.27000  111.27000  # oc,c,c,oh

# BondBond13 Coeffs

dihedral_coeff	1 bb13    0.00000    1.53000    1.42000  # c,c,oc,c
dihedral_coeff	2 bb13    0.00000    1.53000    0.96500  # c,c,oh,ho
dihedral_coeff	3 bb13    0.00000    1.42000    1.10100  # c,oc,c,hc
dihedral_coeff	4 bb13    0.00000    1.10100    1.10100  # hc,c,c,hc
dihedral_coeff	5 bb13    0.00000    1.10100    1.42000  # hc,c,c,oc
dihedral_coeff	6 bb13    0.00000    1.10100    1.42000  # hc,c,c,oh
dihedral_coeff	7 bb13    0.00000    1.10100    0.96500  # hc,c,oh,ho
dihedral_coeff	8 bb13    0.00000    1.42000    1.42000  # oc,c,c,oc
dihedral_coeff	9 bb13    0.00000    1.42000    1.42000  # oc,c,c,oh

# Improper Coeffs

improper_coeff	1    0.00000    0.00000  # c,c,hc,hc
improper_coeff	2    0.00000    0.00000  # c,c,hc,oc
improper_coeff	3    0.00000    0.00000  # c,c,oc,hc
improper_coeff	4    0.00000    0.00000  # c,c,oh,hc
improper_coeff	5    0.00000    0.00000  # c,hc,hc,hc
improper_coeff	6    0.00000    0.00000  # c,hc,hc,oc
improper_coeff	7    0.00000    0.00000  # c,hc,hc,oh

# AngleAngle Coeffs

improper_coeff	1 aa    0.27380   -0.48250    0.27380  110.77000  110.77000  107.66000  # c,c,hc,hc
improper_coeff	2 aa    3.91770    2.59260    0.16890  110.77000  111.27000  108.72800  # c,c,hc,oc
improper_coeff	3 aa    0.16890    2.59260    3.91770  111.27000  110.77000  108.72800  # c,c,oc,hc
improper_coeff	4 aa    0.16890    2.59260    3.91770  111.27000  110.77000  108.72800  # c,c,oh,hc
improper_coeff	5 aa   -0.31570   -0.31570   -0.31570  107.66000  107.66000  107.66000  # c,hc,hc,hc
improper_coeff	6 aa    2.42590    2.42590    2.12830  107.66000  108.72800  108.72800  # c,hc,hc,oc
improper_coeff	7 aa    2.42590    2.42590    2.12830  107.66000  108.72800  108.72800  # c,hc,hc,oh


# --- Thermo Output ---
thermo_style custom step time temp press enthalpy etotal ke pe ebond eangle edihed eimp evdwl ecoul elong etail vol lx ly lz density pxx pyy pzz
thermo_modify flush yes
thermo 1000

# --- Trajectory ---
dump dump_npt all custom 1000 npt_pppm.dump id type mol x y z ix iy iz vx vy vz

# --- Restart Checkpointing ---
restart 10000 npt_1.rst npt_2.rst

# --- Initial Velocities (optional) ---
# Velocities read from data file

# --- SHAKE Constraints ---
# SHAKE disabled

# --- NPT Thermostat + Barostat (Nose-Hoover) ---
# T_damp = 100.0 fs  (heat bath coupling)
# P_damp = 1000.0 fs  (pressure bath coupling, ~10x T_damp typical)
# Ramp: T=580.0->580.0K  P=50000.0->1.0atm
timestep 1.0
fix npt_fix all npt temp 580.0 580.0 100.0 iso 50000.0 1.0 1000.0

run 500000
PPPM Kokkos initialization ...
  using 12-bit tables for long-range coulomb
  G vector (1/distance) = 0.30199153
  grid = 27 27 27
  stencil order = 5
  estimated absolute RMS force accuracy = 0.00036963269
  estimated relative force accuracy = 1.1131379e-06
  using double precision cuFFT
  3d grid and FFT values/proc = 39304 19683
Generated 10 of 10 mixed pair_coeff terms from sixthpower/sixthpower mixing rule
Neighbor list info ...
  update: every = 1 steps, delay = 0 steps, check = yes
  max neighbors/atom: 4000, page size: 100000
  master list distance cutoff = 11.5
  ghost atom cutoff = 11.5
  binsize = 11.5, bins = 4 4 4
  1 neighbor lists, perpetual/occasional/extra = 1 0 0
  (1) pair lj/class2/coul/long/kk, perpetual
      attributes: full, newton off, kokkos_device
      pair build: full/bin/kk/device
      stencil: full/bin/3d
      bin: kk/device
Per MPI rank memory allocation (min/avg/max) = 34.63 | 34.63 | 34.63 Mbytes
   Step          Time           Temp          Press         Enthalpy        TotEng         KinEng         PotEng         E_bond        E_angle        E_dihed        E_impro         E_vdwl         E_coul         E_long         E_tail         Volume           Lx             Ly             Lz          Density          Pxx            Pyy            Pzz      
         0   0              575.79776      50917.993      56815.056      18337.105      12047.017      6290.0882      4199.4727      8077.2101     -7764.7892     -96.680596     -354.89611      7060.4077     -4830.6363     -619.55088      51816.106      37.28106       37.28106       37.28106       1.4124211      49022.625      51267.255      52464.1      
      1000   1000           576.84088      49267.347      55491.332      18072.909      12068.841      6004.0675      4290.4809      7971.6118     -7787.0563     -97.346973     -580.8859       7045.8295     -4838.5655     -616.44074      52077.534      37.343653      37.343653      37.343653      1.4053307      49643.023      48336.067      49822.952    
      2000   2000           582.839        50707.493      56755.689      18239.887      12194.336      6045.5509      4275.7642      7990.1997     -7707.7945     -93.91336      -611.99411      7034.6206     -4841.3317     -616.38324      52082.392      37.344815      37.344815      37.344815      1.4051997      51124.742      52707.588      48290.147    
      3000   3000           576.33719      50576.519      56798.735      18447.625      12058.303      6389.3225      4226.3912      8155.0495     -7692.5744     -100.97479     -395.52348      7037.4247     -4840.4701     -617.43129      51993.986      37.323673      37.323673      37.323673      1.4075889      50489.623      47977.805      53262.129    
      4000   4000           587.42392      51211.955      57368.306      18712.942      12290.263      6422.6788      4281.7241      8156.1026     -7747.6813     -95.670292     -366.19183      7032.0683     -4837.6727     -620.26777      51756.217      37.266692      37.266692      37.266692      1.4140554      51045.561      51923.04       50667.263    
      5000   5000           587.42993      50967.586      56946.123      18351.065      12290.389      6060.6767      4182.2324      7909.8499     -7692.0846     -96.765681     -427.01281      7021.7699     -4837.3124     -618.27261      51923.234      37.306735      37.306735      37.306735      1.409507       50252.005      52561.892      50088.862    
      6000   6000           581.29997      49818.68       56168.624      18270.303      12162.136      6108.1669      4204.7728      8142.4686     -7718.9327     -95.959003     -627.23472      7042.4526     -4839.4006     -615.44589      52161.716      37.363764      37.363764      37.363764      1.4030627      50053.146      50322.608      49080.287    
      7000   7000           574.41631      48664.846      54912.798      17993.989      12018.114      5975.8757      4166.282       8070.4228     -7747.5464     -94.368969     -600.34089      7024.9476     -4843.5206     -617.14229      52018.333      37.329498      37.329498      37.329498      1.4069301      48741.907      50105.72       47146.912    
      8000   8000           572.1347       46599.049      53551.291      18167.487      11970.377      6197.1099      4257.6584      8101.2568     -7702.0181     -95.842895     -531.06012      7017.2309     -4850.115      -616.58104      52065.684      37.340821      37.340821      37.340821      1.4056506      47693.478      44882.455      47221.213    
      9000   9000           576.60221      48445.238      55013.539      18159.674      12063.848      6095.8264      4262.838       8068.1254     -7720.722      -93.308455     -591.90257      7021.8018     -4851.0057     -615.43996      52162.219      37.363884      37.363884      37.363884      1.4030492      48798.097      46587.879      49949.736    
     10000   10000          574.60221      48186.847      54884.146      18310.573      12022.003      6288.5697      4223.4091      8122.1835     -7711.0721     -94.182712     -446.61186      7036.0189     -4841.1751     -616.84884      52043.08       37.335416      37.335416      37.335416      1.4062611      47360.247      46686.52       50513.774    
     11000   11000          582.26164      50020.226      56301.49       18387.067      12182.256      6204.8106      4165.3946      8165.5393     -7752.3512     -94.549568     -468.78468      7034.1167     -4844.5545     -617.6733       51973.614      37.318797      37.318797      37.318797      1.4081407      50082.035      48627.843      51350.799    
     12000   12000          576.29345      51023.055      56726.999      18092.741      12057.388      6035.3528      4250.0587      7959.8261     -7744.2449     -96.412886     -525.66978      7032.4829     -4840.6872     -618.31745      51919.469      37.305833      37.305833      37.305833      1.4096092      50933.401      54011.778      48123.985    
     13000   13000          576.44266      47779.72       54550.279      18222.947      12060.51       6162.4375      4355.5948      7993.6389     -7687.064      -96.356539     -570.78856      7012.5386     -4845.1257     -615.78307      52133.154      37.356943      37.356943      37.356943      1.4038314      47181.232      48420.576      47737.354    
     14000   14000          591.117        49232.258      55744.663      18328.238      12367.531      5960.7074      4205.1757      7916.2603     -7761.4119     -92.411389     -477.90541      7018.2221     -4847.2221     -616.03459      52111.869      37.351859      37.351859      37.351859      1.4044048      49023.965      49341.539      49331.271    
     15000   15000          581.34064      50691.282      57008.363      18582.893      12162.987      6419.9068      4273.2915      8270.8854     -7657.9342     -95.022874     -560.4463       7040.915      -4851.7817     -617.63476      51976.857      37.319574      37.319574      37.319574      1.4080528      52470.911      51487.032      48115.904    
     16000   16000          574.41323      49734.461      55894.172      18094.745      12018.049      6076.6954      4375.8662      7835.105      -7763.2216     -88.512136     -487.00377      7048.6383     -4844.1766     -616.01293      52113.701      37.352296      37.352296      37.352296      1.4043554      49349.72       47790.964      52062.698    
     17000   17000          578.68684      47157.444      54042.812      18074.974      12107.463      5967.5113      4158.3879      7983.8031     -7682.7318     -93.754707     -595.18916      7048.3408     -4851.3449     -613.8377       52298.374      37.396365      37.396365      37.396365      1.3993965      48428.445      47647.996      45395.891    
     18000   18000          583.7708       45675.484      53002.078      18208.952      12213.831      5995.1213      4172.2069      8039.6982     -7692.2633     -99.848413     -624.50801      7048.8256     -4848.9897     -614.62094      52231.728      37.380473      37.380473      37.380473      1.401182       46127.279      44855.508      46043.666    
     19000   19000          563.46621      48935.762      55322.417      18030.296      11789.012      6241.2836      4299.9807      8120.6551     -7749.5603     -98.145704     -550.11275      7063.6624     -4845.1958     -614.36562      52253.434      37.385651      37.385651      37.385651      1.4006         48940.554      48924.758      48941.972    
     20000   20000          580.10872      49303.039      55772.863      18198.772      12137.212      6061.5605      4158.8889      8136.2552     -7724.5724     -96.638385     -640.11374      7069.1397     -4841.3987     -614.33159      52256.329      37.386341      37.386341      37.386341      1.4005224      50499.559      47968.408      49441.151    
     21000   21000          586.36413      49745.796      56352.891      18431.321      12268.09       6163.2312      4219.2818      8258.672      -7836.1198     -94.816979     -602.28397      7065.1178     -4846.6196     -614.16874      52270.185      37.389645      37.389645      37.389645      1.4001512      52244.454      47741.972      49250.962    
     22000   22000          576.4723       48482.465      54987.13       18107.61       12061.13       6046.4798      4215.573       8098.6039     -7772.7959     -98.288094     -615.39947      7057.8072     -4839.0208     -615.48442      52158.451      37.362985      37.362985      37.362985      1.4031506      47336.888      47468.449      50642.058    
     23000   23000          583.72747      48304.036      55227.53       18442.283      12212.925      6229.3583      4337.372       8117.1589     -7679.7672     -91.478949     -667.87627      7054.3151     -4840.3653     -614.79082      52217.295      37.37703       37.37703       37.37703       1.4015693      46135.949      50342.979      48433.181    
     24000   24000          581.03023      48852.282      55435.548      18268.61       12156.492      6112.1181      4341.7134      8038.1535     -7787.9091     -91.066279     -601.31002      7050.1221     -4837.5855     -615.3833       52167.021      37.365031      37.365031      37.365031      1.4029201      51236.877      47969.817      47350.152    
     25000   25000          583.04097      47746.569      54638.663      18261.961      12198.561      6063.4         4316.8828      8000.6704     -7772.5554     -96.65726      -617.86712      7071.7663     -4838.8397     -614.52066      52240.251      37.382507      37.382507      37.382507      1.4009534      50719.604      45354.098      47166.006    
     26000   26000          580.86512      45949.5        53170.458      18142.742      12153.038      5989.7044      4239.1182      7940.2696     -7724.6978     -96.703511     -572.72707      7047.016      -4842.5711     -614.16718      52270.318      37.389677      37.389677      37.389677      1.4001476      47066.711      42232.202      48549.586    
     27000   27000          572.73926      48789.688      55292.822      18132.834      11983.026      6149.8077      4271.6205      8189.3881     -7767.6366     -93.899579     -662.81685      7059.9611     -4846.8089     -614.70976      52224.181      37.378673      37.378673      37.378673      1.4013845      49998.734      49899.947      46470.384    
     28000   28000          589.06906      50478.484      56832.229      18413.81       12324.683      6089.1266      4291.0097      8100.8602     -7783.5238     -96.014497     -658.30696      7075.1033     -4840.0013     -615.15485      52186.395      37.369656      37.369656      37.369656      1.4023992      48843.279      51263.806      51328.368    
     29000   29000          579.48932      47597.528      54678.34       18448.075      12124.253      6323.822       4304.1906      8252.9904     -7703.5984     -103.62953     -633.67544      7047.3943     -4839.8499     -615.07846      52192.876      37.371203      37.371203      37.371203      1.4022251      47327.963      48982.061      46482.559    
     30000   30000          583.78994      47815.812      54619.379      18122.552      12214.232      5908.3208      4173.4538      8046.5834     -7746.4751     -96.467714     -675.40506      7045.8543     -4839.2228     -613.38629      52336.862      37.405537      37.405537      37.405537      1.3983674      48087.446      47405.971      47954.019    
     31000   31000          577.99217      43293.277      51220.231      18090.027      12092.929      5997.0979      4240.9089      8186.5464     -7802.8828     -102.38821     -729.58106      7044.4898     -4839.9953     -611.80634      52472.019      37.437708      37.437708      37.437708      1.3947655      43996.203      42396.722      43486.905    
     32000   32000          586.08177      50418.591      56926.807      18526.466      12262.182      6264.2839      4190.5376      8225.5542     -7727.3037     -98.074147     -533.46686      7046.9921     -4839.9553     -614.71422      52223.802      37.378583      37.378583      37.378583      1.4013947      48918.592      50019.576      52317.603    
     33000   33000          583.83336      45873.661      53306.365      18247.659      12215.14       6032.5189      4239.5015      8096.557      -7774.8624     -96.931276     -655.70675      7057.6859     -4833.7252     -612.61151      52403.053      37.421299      37.421299      37.421299      1.3966011      47395.306      44823.342      45402.334    
     34000   34000          567.70853      45956.147      52890.094      17780.267      11877.771      5902.4951      4125.1514      8014.8935     -7721.8783     -93.432584     -645.70496      7057.6709     -4834.2048     -612.81946      52385.271      37.417066      37.417066      37.417066      1.3970751      48605.183      46806.675      42456.582    
     35000   35000          581.96599      44320.093      52108.032      18219.398      12176.07       6043.3278      4360.0054      8107.0914     -7742.013      -92.683103     -807.29053      7049.7419     -4831.5244     -612.29996      52429.717      37.427645      37.427645      37.427645      1.3958908      43956.527      45479.255      43524.497    
     36000   36000          576.04202      45508.2        52999.037      18084.188      12052.127      6032.0611      4281.0908      8109.7887     -7716.5137     -94.015821     -758.02777      7042.3002     -4832.5613     -610.23503      52607.13       37.469814      37.469814      37.469814      1.3911833      48072.205      44667.403      43784.993    
     37000   37000          582.79365      47278.259      54287.389      18253.154      12193.387      6059.7674      4252.8712      8004.3278     -7774.4369     -93.815963     -571.47243      7067.2932     -4824.9996     -614.27636      52261.027      37.387462      37.387462      37.387462      1.4003965      48133.822      44743.171      48957.783    
     38000   38000          581.14202      44778.916      52466.223      18146.224      12158.831      5987.3929      4321.2107      8053.9969     -7721.0355     -96.166354     -763.60078      7033.0985     -4840.1106     -610.86317      52553.035      37.456966      37.456966      37.456966      1.3926153      47226.031      41599.749      45510.969    
     39000   39000          587.31085      46497.063      53973.083      18389.812      12287.897      6101.9144      4340.2561      8095.1821     -7713.0353     -100.72441     -731.81045      7045.9885     -4833.9422     -611.78282      52474.036      37.438188      37.438188      37.438188      1.3947118      47919.006      48253.093      43319.088    
     40000   40000          577.22462      45556.536      52888.204      17926.121      12076.87       5849.251       4170.5071      7995.5238     -7684.3134     -93.506078     -737.98401      7041.4027     -4842.379      -610.05787      52622.407      37.473441      37.473441      37.473441      1.3907794      47620.707      45192.58       43856.322    
     41000   41000          579.5474       44145.544      52021.351      18036.36       12125.468      5910.8918      4264.9383      8246.7755     -7757.0553     -98.797823     -959.66803      7057.4236     -4842.7244     -608.15929      52786.686      37.512396      37.512396      37.512396      1.3864511      45261.916      43677.796      43496.918    
     42000   42000          573.66395      45796.433      53092.75       18060.658      12002.373      6058.2857      4211.9672      8200.6752     -7719.3435     -102.20276     -723.1499       7041.4038     -4851.0643     -612.04482      52451.573      37.432845      37.432845      37.432845      1.3953091      47375.007      44239.255      45775.038    
     43000   43000          578.95428      44721.974      52530.169      18250.056      12113.058      6136.9978      4275.9056      8064.812      -7676.1739     -93.763561     -616.22463      7024.3222     -4841.8799     -610.79625      52558.793      37.458334      37.458334      37.458334      1.3924627      45628.323      43043.901      45493.698    
     44000   44000          575.98526      43294.059      51327.888      18041.704      12050.94       5990.764       4300.1477      8055.9531     -7720.5678     -98.923215     -765.7335       7060.2316     -4840.3438     -608.95041      52718.108      37.496144      37.496144      37.496144      1.3882547      44569.71       42379.449      42933.017    
     45000   45000          576.4634       44340.668      51939.018      17878.18       12060.944      5817.2364      4111.6121      8119.6873     -7717.3372     -92.32111      -802.10649      7040.7154     -4843.0137     -609.48713      52671.684      37.485134      37.485134      37.485134      1.3894783      45530.636      42706.811      44784.557    
     46000   46000          580.72073      46869.464      54185.413      18351.031      12150.017      6201.0146      4357.7445      8096.6666     -7677.7723     -99.732151     -666.80238      7032.7561     -4841.8458     -612.36126      52424.469      37.426396      37.426396      37.426396      1.3960305      46745.419      44631.934      49231.04     
     47000   47000          578.07938      44981.823      52741.418      18245.442      12094.753      6150.6882      4248.5999      8243.2348     -7745.695      -93.130528     -713.07744      7046.6694     -4835.913      -610.50081      52584.228      37.464376      37.464376      37.464376      1.3917892      43752.419      45797.008      45396.043    
     48000   48000          582.02201      45120.917      53033.879      18379.145      12177.243      6201.9025      4445.3214      8094.0382     -7709.5969     -97.861678     -719.13547      7035.2113     -4846.0743     -609.5832       52663.383      37.483165      37.483165      37.483165      1.3896973      47077.34       45332.628      42952.784    
     49000   49000          572.85087      43982.909      51855.1        18099.277      11985.361      6113.9155      4299.0702      8120.1319     -7671.4464     -99.014966     -765.82818      7068.8472     -4837.8442     -610.03236      52624.608      37.473963      37.473963      37.473963      1.3907212      43733.548      45055.652      43159.529    
     50000   50000          568.62711      45605.714      52681.454      17625.746      11896.99       5728.756       4225.6411      8022.0329     -7785.4911     -99.078115     -873.61324      7074.0965     -4834.8321     -609.08535      52706.429      37.493375      37.493375      37.493375      1.3885623      46675.615      43444.802      46696.724    
     51000   51000          571.48897      47486.953      54357.666      18030.21       11956.867      6073.3425      4305.419       7922.8583     -7741.5355     -93.740918     -547.10295      7066.2478     -4838.8031     -612.00778      52454.747      37.4336        37.4336        37.4336        1.3952247      45543.121      47172.494      49745.242    
     52000   52000          582.41017      42805.429      51030.641      18227.646      12185.364      6042.2824      4268.977       8166.1763     -7771.8461     -103.73612     -735.94173      7057.8799     -4839.2268     -610.94623      52545.89       37.455269      37.455269      37.455269      1.3928046      43706.026      40804.256      43906.004    
     53000   53000          577.77683      45328.584      52870.688      18046.711      12088.423      5958.2872      4290.7827      8054.2873     -7653.083      -103.82853     -877.79669      7083.642      -4835.7166     -609.41258      52678.128      37.486663      37.486663      37.486663      1.3893083      46226.751      44757.961      45001.039    
     54000   54000          570.40336      43219.92       51253.411      17876.457      11934.153      5942.3035      4345.3801      8052.783      -7774.1766     -92.200747     -816.37905      7068.7141     -4841.8173     -606.25439      52952.547      37.551644      37.551644      37.551644      1.3821084      40565.305      44876.034      44218.419    
     55000   55000          577.81141      43773.27       51665.827      17990.119      12089.147      5900.9718      4380.6932      7856.1222     -7659.007      -93.492111     -821.31185      7072.9963     -4835.0289     -608.56909      52751.141      37.503974      37.503974      37.503974      1.3873853      46350.301      43296.619      41672.89     
     56000   56000          586.5142       42932.188      51377.668      18405.862      12271.229      6134.6324      4359.295       8033.2937     -7711.4464     -94.182046     -677.30649      7060.3129     -4835.3343     -609.61819      52660.36       37.482448      37.482448      37.482448      1.389777       40607.03       41724.118      46465.416    
     57000   57000          577.14682      43645.072      51555.398      17940.873      12075.242      5865.631       4407.7263      7983.1736     -7821.6279     -95.278659     -815.83743      7045.5799     -4838.1048     -607.89124      52809.963      37.517909      37.517909      37.517909      1.38584        43777.657      44551.963      42605.597    
     58000   58000          587.94091      43581.441      51695.235      18122.43       12301.079      5821.3508      4248.4096      8029.587      -7691.9989     -97.870788     -874.10428      7046.1672     -4838.839      -607.75928      52821.429      37.520624      37.520624      37.520624      1.3855392      44965.231      42090.129      43688.965    
     59000   59000          580.78068      44125.466      52245.647      18165.066      12151.271      6013.7948      4339.839       8115.4852     -7674.7188     -96.262497     -880.45124      7046.9805     -4837.0773     -606.1777       52959.245      37.553227      37.553227      37.553227      1.3819336      45334.039      43201.482      43840.878    
     60000   60000          578.5727       43080.738      51377.939      18148.792      12105.075      6043.7172      4379.1851      8065.1812     -7778.7338     -93.543672     -756.51303      7057.9052     -4829.7639     -606.99006      52888.368      37.536467      37.536467      37.536467      1.3837855      42747.364      42734.524      43760.325    
     61000   61000          581.94615      42424.658      50568.136      17922.422      12175.655      5746.7669      4199.8996      7808.621      -7584.7749     -93.037859     -792.52577      7045.5257     -4836.9409     -608.42887      52763.298      37.506854      37.506854      37.506854      1.3870657      43131.124      41794.674      42348.176    
     62000   62000          579.88696      43128.052      51252.58       17934.036      12132.572      5801.4642      4208.3507      8164.8969     -7774.1766     -98.633472     -924.13177      7053.9982     -4828.8398     -606.0263       52972.476      37.556354      37.556354      37.556354      1.3815884      43599.464      41014.265      44770.428    
     63000   63000          585.63983      43773.494      52056.352      18360.394      12252.936      6107.458       4361.5868      8019.4101     -7713.1027     -100.9764      -666.24768      7046.224      -4839.4362     -608.20647      52782.592      37.511426      37.511426      37.511426      1.3865587      42591.769      45306.809      43421.906    
     64000   64000          591.56582      45385.879      53167.029      18214.102      12376.921      5837.1814      4169.0732      8069.7838     -7685.0338     -99.401548     -863.20523      7078.5364     -4832.5715     -607.93177      52806.442      37.517075      37.517075      37.517075      1.3859324      41487.876      46912.59       47757.171    
     65000   65000          575.6182       44217.582      51975.457      17856.009      12043.26       5812.7491      4168.1555      7994.8381     -7642.1966     -97.127003     -815.66302      7043.3177     -4838.5756     -606.75118      52909.19       37.541392      37.541392      37.541392      1.383241       39872.366      46779.366      46001.016    
     66000   66000          589.90001      42536.305      51270.602      18342.154      12342.068      6000.0859      4324.4949      8071.1438     -7668.9157     -100.11333     -838.52309      7053.7914     -4841.7921     -604.79214      53080.573      37.581883      37.581883      37.581883      1.3787749      42606.905      44872.719      40129.291    
     67000   67000          583.45462      42130.607      50474.366      17981.518      12207.216      5774.3026      4336.4763      7920.3399     -7677.653      -92.791885     -901.64163      7021.0193     -4831.4464     -607.05436      52882.766      37.535141      37.535141      37.535141      1.3839321      45657.536      39493.616      41240.669    
     68000   68000          580.92375      44562.176      52595.603      18233.394      12154.264      6079.1293      4399.2657      8173.313      -7699.044      -99.634866     -927.74407      7059.5068     -4826.5333     -607.15971      52873.59       37.53297       37.53297       37.53297       1.3841723      45063.085      45054.634      43568.809    
     69000   69000          572.96848      43533.214      51645.204      17953.621      11987.822      5965.7988      4393.0551      8058.2804     -7647.0286     -99.773954     -928.02764      7022.1814     -4832.8879     -604.94646      53067.033      37.578687      37.578687      37.578687      1.3791267      41106.024      45529.482      43964.136    
     70000   70000          566.49082      41380.693      49525.071      17601.782      11852.294      5749.488       4295.7653      7987.9272     -7700.2124     -101.37327     -941.89515      7037.4985     -4828.2223     -606.8869       52897.358      37.538593      37.538593      37.538593      1.3835504      42800.364      42444.831      38896.886    
     71000   71000          584.98972      43109.152      51445.213      18159.281      12239.334      5919.9476      4307.8291      8092.649      -7669.0173     -101.93008     -925.02264      7043.8975     -4828.458      -606.35421      52943.829      37.549583      37.549583      37.549583      1.382336       44613.557      42228.197      42485.703    
     72000   72000          593.57716      41557.528      49978.232      17866.981      12419.003      5447.9782      4267.2223      7845.9439     -7681.9826     -97.641785     -1101.8997      7044.0118     -4827.6758     -605.91278      52982.401      37.558699      37.558699      37.558699      1.3813296      42343.306      43101.894      39227.384    
     73000   73000          581.11003      43281.524      51391.851      18037.224      12158.162      5879.0623      4292.2465      8038.8119     -7674.6053     -101.0427      -896.82104      7051.2804     -4830.8074     -607.52491      52841.806      37.525448      37.525448      37.525448      1.3850049      44629.226      44563.562      40651.783    
     74000   74000          582.76077      41868.68       50518.59       18105.079      12192.699      5912.3805      4340.7221      8114.5847     -7757.1992     -96.480279     -924.16977      7069.5068     -4834.5839     -604.75691      53083.666      37.582613      37.582613      37.582613      1.3786945      42217.542      41639.628      41748.871    
     75000   75000          584.66751      44265.717      52145.946      17978.724      12232.592      5746.1314      4317.3791      8007.641      -7748.19       -93.542947     -943.05564      7042.8293     -4836.9294     -606.56236      52925.66       37.545287      37.545287      37.545287      1.3828105      45825.538      45035.16       41936.452    
     76000   76000          587.27192      42363.293      50765.229      18001.671      12287.083      5714.5888      4199.393       8174.6422     -7767.1233     -98.289687     -1003.0665      7039.2077     -4830.1745     -605.36358      53030.467      37.570054      37.570054      37.570054      1.3800776      43222.224      44228.765      39638.891    
     77000   77000          575.87866      41953.114      50419.108      17988.436      12048.709      5939.727       4411.2068      8016.2826     -7684.0448     -95.40315      -930.1882       7053.1353     -4831.2615     -605.65581      53004.88       37.56401       37.56401       37.56401       1.3807438      41490.05       43941.255      40428.036    
     78000   78000          577.45549      40246.442      48835.835      17692.439      12081.7        5610.739       4263.9005      7838.8495     -7728.7579     -92.603049     -897.39419      7049.1151     -4822.371      -605.03313      53059.431      37.576892      37.576892      37.576892      1.3793243      41471.176      38861.689      40406.46     
     79000   79000          580.51524      40311.566      49073.737      17861.658      12145.717      5715.9404      4231.8556      8007.2384     -7665.8155     -93.448079     -984.55308      7051.9518     -4831.2888     -604.67861      53090.54       37.584235      37.584235      37.584235      1.378516       43711.447      39261.625      37961.626    
     80000   80000          587.08599      42267.208      50668.657      18010.82       12283.193      5727.627       4306.4968      7942.2205     -7731.7449     -97.636245     -924.20783      7061.5623     -4829.0637     -605.9458       52979.514      37.558017      37.558017      37.558017      1.3814049      40363.653      42612.916      43825.055    
     81000   81000          573.61682      43086.305      51155.526      17730.435      12001.386      5729.0485      4330.21        8006.1907     -7760.3441     -93.596463     -994.27881      7063.3221     -4822.455      -603.50975      53193.364      37.608483      37.608483      37.608483      1.3758513      45023.576      43592.466      40642.874    
     82000   82000          574.89291      39982.414      48860.575      17675.486      12028.085      5647.4012      4199.1352      8184.3412     -7761.2042     -101.08812     -1085.5935      7046.6075     -4834.7967     -600.26036      53481.315      37.676223      37.676223      37.676223      1.3684435      39827.07       39599.774      40520.397    
     83000   83000          581.59148      41497.029      50232.602      18002.573      12168.235      5834.3385      4280.6797      8026.164      -7669.4276     -95.330092     -923.82039      7049.8795     -4833.8066     -602.80098      53255.908      37.623217      37.623217      37.623217      1.3742355      40138.187      42428.177      41924.723    
     84000   84000          577.01051      40503.673      49448.066      18026.634      12072.39       5954.2439      4309.5907      8144.5315     -7714.0394     -96.865002     -911.54374      7052.3844     -4829.8146     -603.51222      53193.146      37.608432      37.608432      37.608432      1.375857       40733.205      39472.819      41304.995    
     85000   85000          583.00385      41043.352      49679.718      17765.592      12197.785      5567.8076      4216.6313      7898.4953     -7619.4112     -96.108132     -1062.9094      7063.6871     -4832.5774     -602.1123       53316.821      37.637556      37.637556      37.637556      1.3726655      41346.458      40455.148      41328.449    
     86000   86000          588.18685      39507.495      48808.77       18132.997      12306.225      5826.7717      4348.9503      8082.9491     -7647.2891     -93.715555     -1053.0543      7027.6669     -4838.7356     -602.97819      53240.256      37.619531      37.619531      37.619531      1.3746395      39498.969      40400.892      38622.623    
     87000   87000          579.01168      40225.959      48918.129      17753.412      12114.259      5639.1523      4322.9236      7917.7904     -7669.9184     -95.507141     -1044.2623      7044.4742     -4836.3481     -604.3115       53122.791      37.591844      37.591844      37.591844      1.3776791      41457.879      39288.601      39931.397    
     88000   88000          580.33197      41809.56       50166.585      17636.582      12141.883      5494.6992      4168.0173      7940.0974     -7625.2773     -94.379648     -1093.9485      7045.7164     -4845.5264     -601.74035      53349.778      37.645309      37.645309      37.645309      1.3718175      42704.256      44898.251      37826.174    
     89000   89000          577.05402      39084.413      48179.096      17766.898      12073.301      5693.5978      4234.7052      8078.6887     -7678.1149     -90.022764     -1056.1536      7041.8495     -4837.3543     -601.69087      53354.164      37.646341      37.646341      37.646341      1.3717047      38836.238      39353.199      39063.802    
     90000   90000          586.43248      40495.023      49477.397      18076.778      12269.52       5807.2588      4272.3068      7987.7278     -7625.8587     -94.32484      -923.4645       7034.0978     -4843.2255     -603.78328      53169.266      37.602803      37.602803      37.602803      1.3764749      39687.298      41080.178      40717.593    
     91000   91000          575.12785      41074.694      49802.515      17835.782      12033.001      5802.7814      4303.4623      8160.5766     -7646.8259     -99.651074     -1101.6863      7036.4921     -4849.5864     -601.58046      53363.957      37.648644      37.648644      37.648644      1.371453       40510.418      40864.683      41848.982    
     92000   92000          580.72915      41486.819      50124.146      17786.609      12150.193      5636.4165      4341.5123      7932.6296     -7654.9457     -100.1566      -1103.8324      7065.4604     -4844.2509     -600.6491       53446.703      37.668093      37.668093      37.668093      1.3693297      41499.932      40514.113      42446.412    
     93000   93000          591.62858      42039.638      50794.45       18066.914      12378.234      5688.6795      4300.5662      8066.1428     -7745.7041     -94.454157     -1050.9225      7051.1181     -4838.0669     -601.39981      53379.987      37.652414      37.652414      37.652414      1.3710412      42892.465      43456.272      39770.176    
     94000   94000          580.73244      39132.693      48164.229      17567.71       12150.262      5417.4483      4398.2229      7918.8286     -7732.8541     -91.851559     -1277.5262      7043.1752     -4840.5465     -598.80491      53611.307      37.706724      37.706724      37.706724      1.3651255      41811.128      37853.739      37733.214    
     95000   95000          586.92056      42243.357      50588.054      17866.062      12279.731      5586.3308      4306.5432      7905.9112     -7731.09       -97.639833     -995.22024      7045.0779     -4847.2515     -604.41653      53113.56       37.589666      37.589666      37.589666      1.3779185      40358.582      42233.826      44137.664    
     96000   96000          574.65067      39524.451      48617.05       17846.405      12023.017      5823.3877      4313.9447      8157.5769     -7750.4555     -94.573624     -1011.8182      7057.9657     -4849.2522     -601.37708      53382.003      37.652888      37.652888      37.652888      1.3709894      39307.75       37560.896      41704.708    
     97000   97000          579.53529      40984.846      49572.958      17748.368      12125.215      5623.1534      4154.8105      8059.9387     -7712.9017     -102.1892      -985.02629      7047.7235     -4839.2021     -602.94558      53243.136      37.620209      37.620209      37.620209      1.3745652      40621.326      40454.572      41878.639    
     98000   98000          585.08162      37934.572      47555.647      17883.033      12241.257      5641.7763      4331.7983      8092.9804     -7680.7251     -101.5887      -1209.3036      7050.2569     -4841.6419     -598.54528      53634.562      37.712175      37.712175      37.712175      1.3645336      34137.384      39465.985      40200.346    
     99000   99000          575.19554      39268.399      48509.138      17853.8        12034.417      5819.383       4477.7297      8124.9974     -7703.4242     -100.38544     -1173.9242      7037.8851     -4843.4954     -599.72854      53528.741      37.687356      37.687356      37.687356      1.3672311      38614.524      39783.63       39407.043    
    100000   100000         582.03261      38795.448      48009.729      17725.862      12177.464      5548.398       4404.3533      7919.7667     -7742.1611     -102.53028     -1132.0126      7045.4474     -4844.4653     -599.77322      53524.753      37.686421      37.686421      37.686421      1.367333       40441.517      37504.042      38440.784    
    101000   101000         590.28094      43293.522      51808.943      18136.286      12350.038      5786.2478      4317.8584      8170.5614     -7725.1457     -97.101061     -1109.2916      7069.5763     -4840.21       -601.9538       53330.859      37.640859      37.640859      37.640859      1.3723042      42424.937      42671.593      44784.037    
    102000   102000         581.07503      41050.688      49915.692      17941.933      12157.429      5784.504       4368.3868      8048.7755     -7623.1389     -98.368163     -1109.2165      7037.135      -4839.0698     -601.09677      53406.898      37.65874       37.65874       37.65874       1.3703503      39625.954      42637.444      40888.666    
    103000   103000         571.54135      40165.08       48999.463      17559.352      11957.963      5601.3887      4376.5383      7953.5329     -7689.9826     -94.528699     -1150.7086      7046.525      -4839.9875     -598.11156      53673.454      37.721288      37.721288      37.721288      1.3635448      40343.931      40224.623      39926.687    
    104000   104000         575.3286       37287.403      46780.236      17642.061      12037.201      5604.8604      4307.5646      8069.7491     -7688.7718     -93.948399     -1157.952       7014.9222     -4846.7034     -599.12497      53582.667      37.700008      37.700008      37.700008      1.3658551      35080.127      39937.484      36844.596    
    105000   105000         585.13956      42716.344      51305.617      17983.053      12242.469      5740.5844      4357.2576      7981.0693     -7645.6334     -93.867306     -1040.2837      7025.6223     -4843.5805     -600.16864      53489.489      37.678142      37.678142      37.678142      1.3682344      41022.546      43407.699      43718.787    
    106000   106000         574.27593      39772.088      48572.551      17541.361      12015.177      5526.1839      4217.0149      7897.7797     -7683.5228     -94.14746      -1022.2245      7054.8887     -4843.6046     -600.06403      53498.814      37.680332      37.680332      37.680332      1.3679959      38196.128      39149.488      41970.648    
    107000   107000         586.73457      36483.785      46618.58       17971.175      12275.84       5695.3348      4269.4439      8242.9597     -7727.1411     -99.088552     -1184.181       7032.9103     -4839.5683     -596.25528      53840.552      37.760393      37.760393      37.760393      1.359313       38106.91       37219.195      34125.251    
    108000   108000         579.8031       40450.35       49338.474      17820.734      12130.818      5689.9162      4379.7847      7892.1675     -7668.2746     -87.364741     -1017.7269      7034.9298     -4843.5995     -600.87598      53426.522      37.663352      37.663352      37.663352      1.369847       39420.17       41107.489      40823.39     
    109000   109000         587.16723      37938.593      47544.041      17761.025      12284.892      5476.1324      4227.3824      8023.8257     -7699.9486     -95.570282     -1174.0784      7039.1331     -4844.6115     -596.38975      53828.413      37.757555      37.757555      37.757555      1.3596195      37437.853      35889.099      40488.826    
    110000   110000         575.33961      37693.663      47288.613      17712.022      12037.431      5674.5908      4359.3313      8061.39       -7723.6029     -95.17909      -1110.222       7031.4184     -4848.5449     -596.67502      53802.677      37.751536      37.751536      37.751536      1.3602699      37905.135      37535.733      37640.123    
    111000   111000         589.73154      38369.55       48032.926      18012.004      12338.544      5673.4604      4235.6648      8024.0224     -7629.8129     -96.738657     -1023.7682      7009.388      -4845.2951     -598.38447      53648.975      37.715553      37.715553      37.715553      1.364167       38113.326      36881.332      40113.991    
    112000   112000         574.46878      37963.92       47430.884      17673.957      12019.211      5654.7458      4348.6297      8121.7518     -7690.5486     -99.94111      -1211.608       7030.8735     -4844.4115     -597.31114      53745.379      37.73813       37.73813       37.73813       1.36172        38167.967      37249.808      38473.985    
    113000   113000         579.03616      36711.222      46446.066      17616.583      12114.772      5501.8118      4339.2971      8090.5973     -7816.2669     -95.280681     -1203.2269      7029.4863     -4842.7944     -596.18305      53847.075      37.761918      37.761918      37.761918      1.3591483      36454.5        35562.301      38116.865    
    114000   114000         579.56188      38823.232      48086.537      17607.414      12125.771      5481.6426      4315.9719      7948.2933     -7742.0811     -92.52504      -1149.0825      7040.1344     -4839.0683     -596.35773      53831.303      37.75823       37.75823       37.75823       1.3595465      39506.68       40225.773      36737.244    
    115000   115000         583.51683      38321.152      47909.851      17904.27       12208.518      5695.7522      4433.1175      8043.4293     -7801.4546     -102.54949     -1083.5363      7048.8027     -4842.0569     -597.93524      53689.282      37.724996      37.724996      37.724996      1.3631428      38923.524      37472.116      38567.818    
    116000   116000         587.7945       35688.428      46102.6        18071.422      12298.016      5773.4063      4423.7758      8119.7859     -7699.7865     -95.702827     -1174.0655      7038.3181     -4838.9188     -596.07886      53856.488      37.764118      37.764118      37.764118      1.3589107      35005.9        35592.945      36466.44     
    117000   117000         585.61772      39706.247      48878.547      17777.406      12252.473      5524.9326      4179.0899      7985.0486     -7677.8081     -94.08713      -1050.384       7027.893      -4844.8197     -597.72325      53708.324      37.729455      37.729455      37.729455      1.3626595      39460.442      38560.062      41098.236    
    118000   118000         585.1669       35080.446      45566.662      17921.473      12243.041      5678.4321      4325.9877      8145.7273     -7646.7632     -97.455642     -1218.2536      7015.1818     -4845.9923     -594.10496      54035.424      37.805895      37.805895      37.805895      1.3544108      35791.363      33021.99       36427.986    
    119000   119000         588.12138      34789.846      45230.482      17859.428      12304.855      5554.5724      4288.1441      8150.7428     -7833.1588     -89.660555     -1154.6392      7033.4769     -4840.3329     -595.08448      53946.481      37.78514       37.78514       37.78514       1.3566438      35910.739      32156.155      36302.645    
    120000   120000         593.34879      38446.726      48267.814      18061.745      12414.225      5647.5206      4361.5269      8158.7228     -7781.9174     -94.226639     -1204.3213      7049.2341     -4841.498      -595.91291      53871.485      37.767623      37.767623      37.767623      1.3585324      36375.437      39833.786      39130.956    
    121000   121000         574.99478      37114.572      46779.621      17627.087      12030.217      5596.8708      4390.3524      8059.5606     -7786.5922     -93.65672      -1179.5301      7047.4342     -4840.6973     -596.05424      53858.712      37.764638      37.764638      37.764638      1.3588546      36391.914      37054.336      37897.466    
    122000   122000         579.92654      39737.693      48984.254      17843.737      12133.4        5710.3368      4376.9723      8005.529      -7775.1985     -86.271759     -995.41538      7031.9684     -4847.2473     -597.44023      53733.766      37.735412      37.735412      37.735412      1.3620143      38540.486      40746.468      39926.124    
    123000   123000         582.02807      36948.051      46944.087      17773.379      12177.369      5596.0096      4296.0801      8139.004      -7654.974      -95.734865     -1274.4484      7030.3816     -4844.2989     -593.01025      54135.175      37.829144      37.829144      37.829144      1.3519151      34510.127      37761.526      38572.501    
    124000   124000         579.71254      38747.421      48134.483      17598.459      12128.923      5469.5358      4221.3684      8169.216      -7797.3233     -100.18343     -1224.9024      7037.3209     -4835.9603     -594.08413      54037.319      37.806337      37.806337      37.806337      1.3543633      38641.664      40159.758      37440.84     
    125000   125000         583.68242      38057.576      47682.55       17768.304      12211.982      5556.3222      4180.0161      8137.862      -7721.4982     -87.225807     -1160.822       7047.5742     -4839.5842     -595.63568      53896.559      37.773481      37.773481      37.773481      1.3579004      38210.733      40848.559      35113.435    
    126000   126000         573.70925      37409.164      47100.082      17626.367      12003.32       5623.0467      4271.5467      8151.4366     -7767.721      -93.623786     -1144.589       7044.2221     -4838.2249     -594.23846      54023.285      37.803064      37.803064      37.803064      1.3547151      38168.096      37193.99       36865.404    
    127000   127000         573.15841      38595.315      48043.526      17638.478      11991.795      5646.6828      4376.1981      8043.9281     -7728.9744     -94.766634     -1170.7231      7051.1012     -4830.0805     -594.30111      54017.59       37.801735      37.801735      37.801735      1.3548579      39421.917      38304.59       38059.439    
    128000   128000         585.64184      37868.521      47871.658      17935.301      12252.978      5682.3234      4357.7223      8149.9189     -7683.5508     -102.66666     -1229.6492      7028.5295     -4837.9806     -592.23904      54205.67       37.845557      37.845557      37.845557      1.3501569      39229.443      36449.062      37927.057    
    129000   129000         571.61286      37639.979      47154.421      17436.453      11959.459      5476.9939      4199.6116      8184.3736     -7699.2661     -95.709273     -1289.1449      7024.3721     -4847.2432     -592.99071      54136.959      37.82956       37.82956       37.82956       1.3518705      36970.08       38454.59       37495.266    
    130000   130000         581.63364      36966.04       46764.831      17633.938      12169.117      5464.8214      4233.8309      8059.2196     -7601.1481     -96.450725     -1332.4676      7044.2416     -4842.4042     -594.10987      54034.977      37.805791      37.805791      37.805791      1.354422       38302.208      37190.816      35405.096    
    131000   131000         593.74354      34459.848      45129.485      17962.851      12422.484      5540.3667      4300.4         8124.3782     -7760.4438     -97.674441     -1197.5398      7013.0464     -4841.7997     -593.87515      54056.334      37.810771      37.810771      37.810771      1.3538868      32794.872      34115.029      36469.642    
    132000   132000         574.19758      36391.581      46513.302      17719.654      12013.537      5706.1167      4533.0145      7959.2819     -7700.8373     -95.527674     -1182.3346      7038.5031     -4845.9833     -591.72764      54252.516      37.856457      37.856457      37.856457      1.3489911      35912.397      35215.289      38047.056    
    133000   133000         577.09569      36223.198      46094.423      17484.955      12074.172      5410.7829      4257.049       8114.2422     -7747.8218     -97.768717     -1307.6241      7034.3743     -4841.668      -592.78152      54156.064      37.834009      37.834009      37.834009      1.3513936      36760.58       35548.993      36360.021    
    134000   134000         580.92541      36676.056      46730.026      17698.816      12154.299      5544.5169      4456.0656      7993.0078     -7784.2076     -91.965393     -1228.2023      7044.6788     -4844.8601     -591.47327      54275.848      37.861883      37.861883      37.861883      1.3484112      36750.985      36160.439      37116.744    
    135000   135000         570.39803      37478.507      47205.966      17693.293      11934.042      5759.2506      4373.9994      8210.0342     -7777.0689     -99.62828      -1150.9925      7047.5912     -4844.6846     -594.55408      53994.607      37.796373      37.796373      37.796373      1.3554346      36963.389      38639.207      36832.924    
    136000   136000         584.25468      35977.211      46394.701      17850.755      12223.955      5626.8         4471.1504      8235.0312     -7730.5061     -96.603112     -1438.0656      7036.0867     -4850.2934     -590.10749      54401.468      37.89107       37.89107       37.89107       1.3452975      34534.852      33799.178      39597.604    
    137000   137000         579.65085      34152.536      44578.274      17607.201      12127.632      5479.5688      4281.1618      8119.7558     -7735.2831     -101.49345     -1285.463       7041.612      -4840.7213     -592.84665      54150.114      37.832623      37.832623      37.832623      1.3515421      33825.347      34218.24       34414.022    
    138000   138000         574.41015      34073.84       44585.855      17561.291      12017.985      5543.3065      4359.9694      8021.2404     -7653.0691     -90.795804     -1315.2213      7058.7525     -4837.5696     -590.30985      54382.818      37.88674       37.88674       37.88674       1.3457589      31898.141      35794.365      34529.015    
    139000   139000         573.82512      36702.98       46523.539      17599.355      12005.745      5593.6107      4313.0008      8223.8201     -7741.4668     -103.53922     -1309.9339      7049.4618     -4837.7321     -594.09766      54036.088      37.80605       37.80605       37.80605       1.3543941      35972.539      40000.14       34136.261    
    140000   140000         589.35321      35299.252      45622.447      17680.635      12330.628      5350.0065      4242.0109      8028.2712     -7735.0922     -95.420694     -1323.0553      7066.7105     -4833.4179     -591.46433      54276.669      37.862074      37.862074      37.862074      1.3483908      35408.611      36073.968      34415.176    
    141000   141000         586.3421       34506.52       45213.652      17914.309      12267.629      5646.6804      4338.6037      8324.2047     -7761.1772     -100.60355     -1383.6094      7058.8966     -4829.6345     -591.78862      54246.926      37.855156      37.855156      37.855156      1.3491301      33242.509      36811.405      33465.646    
    142000   142000         580.15074      35769.414      46119.359      17807.799      12138.091      5669.7081      4310.7234      8321.4971     -7786.4502     -103.58235     -1287.5522      7054.0696     -4838.9972     -591.51487      54272.032      37.860995      37.860995      37.860995      1.348506       36977.354      35468.483      34862.406    
    143000   143000         574.04348      35337.554      45385.293      17377.97       12010.313      5367.6563      4334.68        8068.4162     -7783.8654     -92.959778     -1382.7148      7059.0587     -4834.9586     -590.72116      54344.953      37.877945      37.877945      37.877945      1.3466965      36214.011      34933.069      34865.583    
    144000   144000         582.56405      34851.435      45373.446      17758.279      12188.583      5569.6959      4344.2589      8134.1888     -7793.3884     -98.979245     -1244.6348      7054.5356     -4826.285      -590.86821      54331.428      37.874802      37.874802      37.874802      1.3470318      36949.348      36299.681      31305.276    
    145000   145000         581.42174      36474.179      46447.064      17611.008      12164.683      5446.3247      4224.097       8209.1836     -7704.0353     -95.869461     -1424.8974      7067.8559     -4830.0097     -592.1985       54209.38       37.846421      37.846421      37.846421      1.3500645      32654.953      39782.329      36985.256    
    146000   146000         565.32529      35054.377      44644.535      16870.383      11827.909      5042.4741      4198.7839      7746.7021     -7613.2433     -89.509986     -1443.3424      7068.033      -4824.9494     -590.90692      54327.868      37.873975      37.873975      37.873975      1.34712        34772.131      34565.492      35825.507    
    147000   147000         580.38444      34400.38       44893.672      17652.029      12142.981      5509.0485      4397.7149      7978.0257     -7745.5115     -100.20979     -1241.2454      7058.4363     -4838.1617     -591.2179       54299.292      37.867333      37.867333      37.867333      1.347829       33652.066      34473.372      35075.702    
    148000   148000         578.66825      33666.719      44358.661      17610.136      12107.074      5503.0624      4381.2291      8056.6481     -7678.8717     -95.586759     -1346.6894      7022.7164     -4836.3833     -589.27578      54478.25       37.908888      37.908888      37.908888      1.3434014      31202.095      36214.982      33583.08     
    149000   149000         573.09959      34684.842      45061.919      17510.995      11990.565      5520.4301      4391.14        8117.6779     -7723.2792     -100.52577     -1355.7207      7029.0339     -4837.8962     -589.41501      54465.382      37.905903      37.905903      37.905903      1.3437188      33710.742      36038.496      34305.288    
    150000   150000         580.41629      34834.262      45162.538      17382.704      12143.647      5239.0567      4358.0283      7869.5733     -7733.4586     -98.710129     -1373.2503      7058.1175     -4841.2435     -587.07636      54682.348      37.95617       37.95617       37.95617       1.3383873      38470.928      33150.574      32881.284    
    151000   151000         590.79111      32769.532      43660.746      17597.784      12360.712      5237.0721      4334.123       8012.8466     -7741.4289     -94.959714     -1468.7032      7026.0484     -4830.8541     -588.65944      54535.29       37.922114      37.922114      37.922114      1.3419963      34225.38       34402.136      29681.081    
    152000   152000         562.15697      33693.769      43974.391      17317.444      11761.62       5555.8241      4499.3132      8005.1247     -7836.5152     -93.441941     -1254.397       7069.2125     -4833.4722     -591.77528      54248.149      37.855441      37.855441      37.855441      1.3490997      34776.493      32263.963      34040.85     
    153000   153000         575.07209      32134.59       43060.336      17426.499      12031.834      5394.6652      4361.2115      8202.5301     -7709.8004     -93.163376     -1585.2983      7051.2134     -4832.0278     -586.91713      54697.183      37.959602      37.959602      37.959602      1.3380243      34251.36       30103.358      32049.052    
    154000   154000         578.7832       35709.356      45790.808      17490.615      12109.479      5381.1356      4287.5649      8095.4592     -7732.5345     -95.766772     -1392.4765      7054.898      -4836.0087     -590.75887      54341.484      37.877139      37.877139      37.877139      1.3467825      37603.477      33740.637      35783.956    
    155000   155000         578.87454      36168.261      46259.161      17576.606      12111.39       5465.2161      4289.834       8082.6205     -7695.3068     -92.447991     -1346.0306      7062.1988     -4835.6519     -590.3743       54376.882      37.885361      37.885361      37.885361      1.3459058      36509.383      36027.356      35968.045    
    156000   156000         585.49512      35157.288      45756.228      17782.15       12249.908      5532.2421      4425.5272      8051.2641     -7664.894      -92.382665     -1377.2542      7021.719      -4831.7373     -588.40617      54558.765      37.927555      37.927555      37.927555      1.3414189      33474.654      34649.254      37347.955    
    157000   157000         591.57274      32716.798      44225.546      18109.318      12377.066      5732.252       4383.6346      8356.9061     -7696.8665     -94.394782     -1434.4215      7051.2863     -4833.8922     -586.51344      54734.83       37.968309      37.968309      37.968309      1.337104       34395.049      31248.614      32506.731    
    158000   158000         578.50827      34532.023      45072.349      17534.322      12103.727      5430.5946      4284.0833      8109.4475     -7700.8639     -93.740528     -1382.891       7046.9961     -4832.4369     -587.0929       54680.807      37.955814      37.955814      37.955814      1.338425       34085.406      33535.287      35975.376    
    159000   159000         588.93036      33855.511      44723.116      17731.891      12321.781      5410.1104      4386.02        8092.4709     -7662.1404     -95.720484     -1533.1996      7056.03       -4833.35       -587.25189      54666.003      37.952388      37.952388      37.952388      1.3387875      33193.693      33074.583      35298.257    
    160000   160000         578.91735      31132.222      42380.696      17526.461      12112.286      5414.175       4362.5184      7930.5216     -7543.1372     -98.084458     -1424.5333      7027.8753     -4840.9853     -586.44507      54741.212      37.969785      37.969785      37.969785      1.3369481      30466.246      28036.546      34893.872    
    161000   161000         574.895        34542.411      45043.829      17447.647      12028.129      5419.5182      4409.6487      8053.4653     -7629.2482     -98.051746     -1507.7306      7035.5137     -4844.0789     -586.03194      54779.802      37.978705      37.978705      37.978705      1.3360063      36229.611      36903.872      30493.749    
    162000   162000         587.79532      36463          46662.607      17616.406      12298.033      5318.3726      4343.3037      7980.983      -7674.742      -93.682306     -1410.448       7017.371      -4844.4128     -587.73383      54621.177      37.942011      37.942011      37.942011      1.3398862      38686.192      35664.857      35037.951    
    163000   163000         580.87945      32231.498      43128.999      17308.694      12153.337      5155.3569      4237.415       8038.2395     -7651.6119     -92.996814     -1546.7763      7017.0353     -4845.948      -584.43572      54929.417      38.01325       38.01325       38.01325       1.3323673      31646.979      34286.928      30760.587    
    164000   164000         577.10593      36383.291      46357.57       17327.266      12074.387      5252.8793      4257.3007      7891.329      -7699.3021     -91.724744     -1303.3281      7041.8907     -4843.2862     -586.77018      54710.881      37.962771      37.962771      37.962771      1.3376893      34360.279      35143.968      39645.627    
    165000   165000         570.42405      32331.056      43027.956      17226.652      11934.586      5292.0661      4269.4413      8058.2596     -7690.2556     -90.367033     -1458.748       7039.9269     -4836.1912     -586.67268      54719.973      37.964874      37.964874      37.964874      1.337467       30871.135      34389.231      31732.8      
    166000   166000         579.90389      33506.494      44460.058      17727.263      12132.927      5594.3361      4416.1756      8182.4536     -7692.4003     -95.107774     -1402.3798      7033.4733     -4847.8785     -586.8164       54706.572      37.961774      37.961774      37.961774      1.3377946      35046.948      31915.602      33556.932    
    167000   167000         573.59947      32147.413      42959.364      17228.477      12001.023      5227.4538      4341.6551      8160.9134     -7740.6419     -94.512175     -1619.4486      7024.8748     -4845.3868     -584.93675      54882.368      38.002393      38.002393      38.002393      1.3335095      30029.778      31995.163      34417.296    
    168000   168000         588.76568      33002.527      44056.815      17604.301      12318.336      5285.9656      4286.0193      8100.8983     -7665.4278     -93.115989     -1515.6359      7017.0614     -4843.8338     -584.11436      54959.637      38.02022       38.02022       38.02022       1.3316347      33661.265      31211.051      34135.267    
    169000   169000         579.96558      35166.126      45698.838      17566.293      12134.217      5432.0754      4401.4177      8148.0801     -7710.7538     -93.044638     -1508.7075      7036.9335     -4841.85       -585.23884      54854.038      37.995853      37.995853      37.995853      1.3341982      32644.996      36007.22       36846.162    
    170000   170000         571.53402      32729.571      43340.828      17195.973      11957.81       5238.1637      4367.536       8053.3959     -7706.9302     -99.58536      -1577.7075      7040.3214     -4838.8665     -586.09998      54773.443      37.977235      37.977235      37.977235      1.3361614      32820.771      32742.899      32625.042    
    171000   171000         584.71427      35127.478      45642.08       17538.929      12233.571      5305.3582      4265.7696      8024.7979     -7664.6538     -92.732336     -1452.765       7057.9622     -4833.0204     -585.20711      54857.012      37.99654       37.99654       37.99654       1.3341259      35672.701      35767.582      33942.152    
    172000   172000         582.33608      29341.974      41002.801      17549.165      12183.813      5365.3518      4327.0282      8138.4555     -7676.3936     -98.880562     -1533.0792      7045.908      -4837.6865     -585.7291       54808.125      37.985249      37.985249      37.985249      1.3353159      29754.174      28213.67       30058.079    
    173000   173000         580.5614       32595.282      43479.929      17306.899      12146.683      5160.2161      4314.0159      8184.8457     -7760.9243     -95.963651     -1685.7896      7042.881      -4838.8488     -583.06688      55058.373      38.042974      38.042974      38.042974      1.3292467      31332.595      32346.976      34106.275    
    174000   174000         570.38448      33949.764      44594.832      17422.172      11933.758      5488.4135      4427.6944      8306.3251     -7790.5603     -96.577382     -1547.0293      7026.7358     -4838.1748     -584.9547       54880.684      38.002004      38.002004      38.002004      1.3335504      31058.519      35428.74       35362.034    
    175000   175000         579.23831      31942.887      43010.509      17475.852      12119.001      5356.8506      4244.0685      8228.2391     -7801.367      -100.78323     -1412.4581      7039.5427     -4840.3914     -585.68186      54812.546      37.986271      37.986271      37.986271      1.3352082      30173.28       31730.173      33925.209    
    176000   176000         579.71733      31342.267      42484.753      17232.576      12129.023      5103.5529      4317.4313      7990.8822     -7694.2371     -92.548973     -1622.7424      7042.4769     -4837.709      -581.09779      55244.941      38.085896      38.085896      38.085896      1.3247577      30832.995      31312.165      31881.641    
    177000   177000         583.90085      31555.399      42922.83       17586.786      12216.552      5370.2338      4387.6945      8102.6966     -7785.3556     -99.526784     -1439.0532      7038.7506     -4834.9722     -583.1127       55054.047      38.041977      38.041977      38.041977      1.3293511      31201.485      30266.1        33198.612    
    178000   178000         573.42603      30793.905      42063.646      17358.131      11997.395      5360.7359      4444.9981      7867.818      -7631.2554     -93.714125     -1433.6924      7041.1534     -4834.5716     -583.56399      55011.471      38.032168      38.032168      38.032168      1.33038        27812.174      32597.86       31971.682    
    179000   179000         581.24329      31364.829      42953.157      17705.146      12160.95       5544.1959      4416.7254      8284.1191     -7681.0473     -103.71454     -1549.2255      7013.3051     -4835.9664     -581.61203      55196.096      38.074668      38.074668      38.074668      1.32593        31094.48       31260.736      31739.27     
    180000   180000         589.33324      31617.229      42997.359      17557.44       12330.21       5227.2301      4250.315       8277.0839     -7788.6495     -98.138217     -1609.8788      7033.9546     -4837.4569     -581.86966      55171.657      38.069047      38.069047      38.069047      1.3265173      32977.369      31198.794      30675.522    
    181000   181000         575.33053      32301.207      43385.461      17367.607      12037.241      5330.3655      4363.8007      8203.8369     -7785.1296     -96.401944     -1524.8254      7012.9217     -4843.8369     -581.2526       55230.228      38.082514      38.082514      38.082514      1.3251106      33947.861      32053.162      30902.598    
    182000   182000         575.97832      32009.038      43172.578      17352.239      12050.794      5301.4446      4358.8397      8151.5169     -7784.6182     -96.544771     -1555.3469      7060.7581     -4833.1603     -580.40124      55311.242      38.101125      38.101125      38.101125      1.3231697      33926.217      31069.703      31031.196    
[...]
    455000   455000         572.37853      3178.7401      20137.35       16924.572      11975.479      4949.0931      4603.0311      8301.5472     -7787.9083     -97.596258     -2321.9029      7076.2606     -4824.3383     -463.22491      69302.65       41.07554       41.07554       41.07554       1.056037       3918.7231      1008.1264      4609.3709    
    456000   456000         574.17238      5061.3798      22134.595      16975.762      12013.01       4962.7522      4438.3798      8425.8313     -7807.1481     -96.215089     -2274.7196      7094.6414     -4818.0175     -459.34085      69888.653      41.190989      41.190989      41.190989      1.0471823      5457.0474      4285.387       5441.7049    
    457000   457000         577.22734      4135.9669      21455.517      17303.116      12076.927      5226.1895      4590.1703      8392.8477     -7670.7532     -101.46508     -2247.9175      7086.2235     -4822.9163     -466.33217      68840.872      40.984105      40.984105      40.984105      1.0631207      3986.1555      2753.5813      5668.1638    
    458000   458000         577.10329      4991.1203      22065.358      17030.04       12074.332      4955.7084      4585.2049      8274.383      -7793.3169     -91.816765     -2267.1585      7067.4402     -4819.0275     -464.07563      69175.607      41.050425      41.050425      41.050425      1.0579764      7017.8266      2230.0832      5725.4511    
    459000   459000         580.89754      3891.5974      21374.849      17415.152      12153.716      5261.4357      4654.1848      8367.4665     -7702.3141     -97.81829      -2224.2914      7089.526      -4825.3178     -460.13322      69768.302      41.167332      41.167332      41.167332      1.0489887      4050.0268      4432.7521      3192.0133    
    460000   460000         581.93195      3367.4061      20449.881      17032.681      12175.358      4857.3233      4591.7521      8095.2029     -7722.3711     -91.626349     -2296.557       7084.7434     -4803.8205     -461.36297      69582.337      41.130722      41.130722      41.130722      1.0517922      3357.1711      3567.3822      3177.665     
    461000   461000         581.43907      3106.7798      20448.017      17290.781      12165.046      5125.7348      4666.6772      8363.352      -7793.7262     -101.95758     -2272.0543      7081.1457     -4817.7021     -460.70297      69682.02       41.150354      41.150354      41.150354      1.0502876      3827.7148      2706.5165      2786.1081    
    462000   462000         577.31695      4116.9095      21242.031      17060.261      12078.802      4981.4597      4598.791       8093.5398     -7662.243      -95.252545     -2228.4889      7092.6092     -4817.4958     -460.92349      69648.682      41.143791      41.143791      41.143791      1.0507903      6508.3266      2220.3089      3622.093     
    463000   463000         577.36424      2806.5602      19903.989      17038.156      12079.791      4958.3645      4605.9         8164.5877     -7753.9766     -93.972752     -2243.5899      7095.8676     -4816.4516     -458.50186      70016.54       41.216099      41.216099      41.216099      1.0452696      1074.9178      5393.5709      1951.1918    
    464000   464000         579.90373      3358.4779      20655.938      17209.689      12132.923      5076.7655      4644.878       8301.7612     -7745.8927     -92.17084      -2319.9328      7104.7212     -4816.5986     -456.26111      70360.399      41.283461      41.283461      41.283461      1.0401612      3529.094       2642.424       3903.9158    
    465000   465000         581.27298      4345.0861      21574.858      17116.296      12161.571      4954.7255      4500.0935      8198.9724     -7751.2581     -100.26626     -2189.3821      7113.1715     -4816.6055     -456.2693       70359.136      41.283214      41.283214      41.283214      1.0401799      3593.007       4950.8089      4491.4424    
    466000   466000         574.14824      5133.6711      22428.593      17194.422      12012.505      5181.9168      4608.2212      8340.0027     -7757.5533     -102.82619     -2178.2501      7097.0784     -4824.7559     -459.19562      69910.757      41.195331      41.195331      41.195331      1.0468512      4597.0192      4881.6648      5922.3293    
    467000   467000         573.20075      4269.1325      21374.469      16981.833      11992.681      4989.1517      4481.2874      8275.9708     -7727.2169     -100.90939     -2191.1639      7077.1071     -4825.9234     -455.02168      70552.054      41.320911      41.320911      41.320911      1.0373356      3306.5604      3881.2929      5619.5442    
    468000   468000         581.46857      2231.8634      19532.074      17223.94       12165.663      5058.2772      4660.9816      8175.905      -7735.5325     -91.452481     -2209.9694      7086.1994     -4827.8544     -452.71433      70911.636      41.390992      41.390992      41.390992      1.0320755      159.63247      3821.7786      2714.179     
    469000   469000         583.14675      4445.7736      22009.526      17414.652      12200.775      5213.8771      4616.4206      8432.4498     -7790.1031     -104.96531     -2175.7393      7069.2343     -4833.4199     -452.99284      70868.038      41.382508      41.382508      41.382508      1.0327104      4592.7823      4953.9115      3790.627     
    470000   470000         583.45449      3633.0945      21042.149      17257.985      12207.213      5050.7714      4541.6417      8286.9046     -7758.839      -92.857353     -2190.1067      7090.4566     -4826.4284     -449.49441      71419.605      41.489591      41.489591      41.489591      1.0247349      1778.1679      4814.5952      4306.5204    
    471000   471000         578.07695      1774.7682      18951.472      17097.852      12094.703      5003.1497      4561.9794      8099.2625     -7679.0411     -94.310865     -2170.1579      7099.8428     -4814.4252     -448.26888      71614.862      41.527366      41.527366      41.527366      1.021941       2900.9931     -246.92262      2670.2341    
    472000   472000         587.54675      3056.3563      20683.498      17459.014      12292.833      5166.1816      4623.0991      8166.2336     -7702.7717     -92.68527      -2124.3805      7107.7111     -4811.0248     -443.77358      72340.299      41.667115      41.667115      41.667115      1.0116928      3632.9812      5048.3207      487.767      
    473000   473000         572.27308      1021.5588      17916.064      16844.887      11973.272      4871.6143      4471.7041      8179.496      -7764.4152     -97.1165       -2218.2556      7118.8503     -4818.6489     -446.49795      71898.905      41.582196      41.582196      41.582196      1.0179037      1525.9975      2754.9887     -1216.3099    
    474000   474000         580.66482      5100.9693      22590.541      17271.626      12148.847      5122.7788      4521.9052      8178.4322     -7703.242      -96.049813     -2079.3428      7110.7013     -4809.6253     -449.00094      71498.1        41.504785      41.504785      41.504785      1.0236099      3755.0799      5980.9592      5566.8688    
    475000   475000         583.78838      2955.2077      20580.134      17466.994      12214.199      5252.7953      4677.3439      8139.6484     -7688.7261     -95.567651     -2076.849       7108.2876     -4811.3418     -444.43373      72232.846      41.646475      41.646475      41.646475      1.0131978      3068.6138      3297.3746      2499.6349    
    476000   476000         578.97143      2389.1612      19845.363      17316.134      12113.417      5202.7172      4564.3885      8304.7406     -7732.3825     -95.336606     -2097.2584      7080.1105     -4821.5451     -442.25739      72588.304      41.714677      41.714677      41.714677      1.0082363      4129.4848      2508.8308      529.1682     
    477000   477000         576.04213      1355.1494      18585.671      17137.378      12052.13       5085.2484      4592.991       8207.5376     -7721.7979     -97.25777      -2177.137       7093.4165     -4812.5039     -438.07496      73281.326      41.847011      41.847011      41.847011      0.99870136     1318.9345      2258.4988      488.01484    
    478000   478000         588.67297      3259.1836      21095.522      17655.774      12316.396      5339.3779      4647.2342      8258.2438     -7661.1148     -98.730709     -2078.0528      7090.1309     -4818.3329     -443.60852      72367.217      41.672283      41.672283      41.672283      1.0113165      4320.7774      1649.0194      3807.7541    
    479000   479000         575.19191      2475.2324      19796.911      17180.665      12034.341      5146.3242      4574.082       8319.4583     -7741.3449     -94.01393      -2230.0249      7126.2028     -4808.035      -442.95041      72474.735      41.69291       41.69291       41.69291       1.0098162      4553.8532      1476.0632      1395.781     
    480000   480000         585.74314      1728.2548      19071.125      17230.349      12255.097      4975.2523      4591.8379      8064.5297     -7683.2993     -94.725209     -2192.164       7104.5918     -4815.5186     -439.56635      73032.691      41.79963       41.79963       41.79963       1.0021014      1406.3486      2411.2292      1367.1866    
    481000   481000         586.29595      620.44321      18174.517      17507.978      12266.663      5241.3148      4736.5726      8225.3318     -7722.9558     -91.629132     -2198.3132      7103.0543     -4810.7458     -435.80654      73662.762      41.919491      41.919491      41.919491      0.99352994     1123.4437      463.56872      274.31722    
    482000   482000         579.21081      1342.5408      18790.592      17336.085      12118.426      5217.6589      4638.1125      8387.8476     -7757.1323     -97.882664     -2238.1853      7101.2147     -4816.3155     -432.14473      74286.949      42.037561      42.037561      42.037561      0.98518193     1739.9485      1003.5405      1284.1336    
    483000   483000         576.33045      1773.2705      19107.364      17211.664      12058.162      5153.5025      4609.2447      8191.4648     -7705.8255     -95.094475     -2103.8408      7084.0939     -4826.54       -437.94846      73302.492      41.851039      41.851039      41.851039      0.99841299     131.70718      2386.1734      2801.9309    
    484000   484000         578.83436     -383.67474      16955.111      17372.466      12110.549      5261.9169      4680.665       8257.4665     -7766.5408     -93.96271      -2086.2663      7088.724      -4818.1688     -430.40245      74587.664      42.094207      42.094207      42.094207      0.98120997    -253.12383     -531.56013     -366.34026    
    485000   485000         589.94987      2427.4292      20150.434      17515.217      12343.112      5172.1052      4661.9499      8148.3635     -7749.2711     -89.655856     -2081.4436      7102.2988     -4820.1365     -431.26857      74437.869      42.066009      42.066009      42.066009      0.98318451     3789.4239      1642.4448      1850.4188    
    486000   486000         578.36812      1625.6659      19092.109      17304.119      12100.795      5203.3243      4652.4522      8032.9115     -7735.6185     -89.797417     -1939.8342      7092.313      -4809.1023     -425.68057      75415.032      42.249279      42.249279      42.249279      0.97044526     1203.7688      1757.9972      1915.2316    
    487000   487000         585.95877      1296.8431      18955.763      17538.059      12259.609      5278.4503      4677.5104      8229.0695     -7731.046      -99.25011      -2042.0934      7067.0772     -4822.8174     -428.27168      74958.758      42.163902      42.163902      42.163902      0.97635235     2494.5699      1708.8451     -312.88567    
    488000   488000         584.95631      2773.2014      20456.259      17384.361      12238.635      5145.7259      4542.9252      8193.8695     -7720.8466     -91.229951     -2058.0733      7092.2417     -4813.1607     -422.66108      75953.797      42.34965       42.34965       42.34965       0.96356157     2566.199       2969.6443      2783.7609    
    489000   489000         588.99029      1445.928       19580.184      17965.514      12323.035      5642.4786      4579.8114      8588.8877     -7749.8686     -103.24124     -1967.2743      7104.4004     -4810.2368     -419.25715      76570.461      42.463953      42.463953      42.463953      0.95580147     956.31561      1721.3921      1660.0763    
    490000   490000         575.84127      1645.5305      19455.282      17610.03       12047.927      5562.1032      4605.4152      8379.5157     -7761.5484     -99.224517     -1827.9774      7080.5446     -4814.622      -417.51103      76890.695      42.523068      42.523068      42.523068      0.95182076     1771.5008      913.93962      2251.1511    
    491000   491000         579.17124      1556.1324      19131.34       17403.12       12117.598      5285.5218      4542.6114      8342.7852     -7757.2488     -102.78356     -1987.2385      7066.4208     -4819.0248     -421.56548      76151.192      42.386306      42.386306      42.386306      0.96106388     2341.2709      1683.3016      643.82473    
    492000   492000         580.87189      651.14529      18441.733      17711.669      12153.179      5558.4899      4705.5787      8295.3356     -7670.3264     -103.30545     -1910.8931      7060.3052     -4818.2046     -417.57544      76878.835      42.520882      42.520882      42.520882      0.95196759     231.78188      116.63616      1605.0178    
    493000   493000         565.68107     -137.85435      17202.982      17358.044      11835.352      5522.6912      4758.3053      8273.6054     -7746.7702     -94.511743     -1926.0256      7076.9299     -4818.8418     -416.22931      77127.47       42.566672      42.566672      42.566672      0.94889874    -1246.8899      237.49238      595.83444    
    494000   494000         580.52339     -54.925629      17644.456      17707.122      12145.888      5561.2342      4708.7826      8295.7757     -7672.7851     -98.076125     -1930.5385      7073.0364     -4814.9609     -410.35552      78231.465      42.768809      42.768809      42.768809      0.93550798    -888.30441      1086.6604     -363.1329     
    495000   495000         583.00519      358.76085      18200.003      17787.833      12197.813      5590.0196      4695.7226      8127.0423     -7642.8998     -104.64231     -1761.7917      7092.3796     -4815.7911     -407.51667      78776.442      42.867891      42.867891      42.867891      0.92903612     725.27872      166.75514      184.24868    
    496000   496000         591.73809      966.3359       18816.799      17718.682      12380.525      5338.1569      4717.0905      8177.2998     -7750.7332     -94.690398     -1983.3621      7087.6902     -4815.138      -412.00012      77919.184      42.711825      42.711825      42.711825      0.93925726    -1522.2747      2926.3586      1494.9238    
    497000   497000         567.80961     -664.1818       16759.938      17527.194      11879.886      5647.3078      4679.6706      8337.4876     -7683.5164     -99.846379     -1842.2383      7072.3903     -4816.6395     -405.28846      79209.542      42.946308      42.946308      42.946308      0.92395635    -1765.7948      665.48871     -892.23926    
    498000   498000         577.35202     -287.30363      17289.41       17623.647      12079.535      5544.1119      4559.3486      8351.3946     -7739.8372     -94.076679     -1798.5651      7078.6254     -4812.7776     -402.44253      79769.684      43.047304      43.047304      43.047304      0.91746834     121.85226     -997.37825      13.615095    
    499000   499000         576.48477     -1250.6753      16175.206      17658.842      12061.391      5597.4511      4620.1889      8265.0259     -7703.1856     -90.070899     -1747.0395      7067.6204     -4815.0881     -394.67068      81340.508      43.328032      43.328032      43.328032      0.89975046    -2312.6443     -377.63461     -1061.7469    
    500000   500000         578.64496      672.59388      18558.155      17776.452      12106.587      5669.8653      4655.815       8212.6014     -7578.9496     -96.173458     -1758.6156      7057.9679     -4822.7804     -402.83626      79691.719      43.033275      43.033275      43.033275      0.91836593     1072.7644      1514.5416     -569.52436    
Loop time of 1012.59 on 1 procs for 500000 steps with 7020 atoms

Performance: 42.663 ns/day, 0.563 hours/ns, 493.783 timesteps/s, 3.466 Matom-step/s
99.8% CPU use with 1 MPI tasks x 1 OpenMP threads

MPI task timing breakdown:
Section |  min time  |  avg time  |  max time  |%varavg| %total
---------------------------------------------------------------
Pair    | 141.16     | 141.16     | 141.16     |   0.0 | 13.94
Bond    | 107.25     | 107.25     | 107.25     |   0.0 | 10.59
Kspace  | 443.83     | 443.83     | 443.83     |   0.0 | 43.83
Neigh   | 126.34     | 126.34     | 126.34     |   0.0 | 12.48
Comm    | 20.152     | 20.152     | 20.152     |   0.0 |  1.99
Output  | 4.9669     | 4.9669     | 4.9669     |   0.0 |  0.49
Modify  | 149.2      | 149.2      | 149.2      |   0.0 | 14.73
Other   |            | 19.69      |            |       |  1.94

Nlocal:           7020 ave        7020 max        7020 min
Histogram: 1 0 0 0 0 0 0 0 0 0
Nghost:          18322 ave       18322 max       18322 min
Histogram: 1 0 0 0 0 0 0 0 0 0
Neighs:              0 ave           0 max           0 min
Histogram: 1 0 0 0 0 0 0 0 0 0
FullNghs:  3.94124e+06 ave 3.94124e+06 max 3.94124e+06 min
Histogram: 1 0 0 0 0 0 0 0 0 0

Total # of neighbors = 3941240
Ave neighs/atom = 561.4302
Ave special neighs/atom = 5.7008547
Neighbor list builds = 24135
Dangerous builds = 0

# --- Cleanup ---
unfix npt_fix

undump dump_npt

# --- Write Output ---
write_dump all custom npt_pppm_last.dump id type mol x y z xu yu zu vx vy vz modify sort id
write_data /home/alexzhao/PolyJarvis/data/PEG3/lammps/equil/npt_pppm/npt_pppm_out.data
System init for write_data ...
PPPM Kokkos initialization ...
  using 12-bit tables for long-range coulomb
  G vector (1/distance) = 0.29869774
  grid = 30 30 30
  stencil order = 5
  estimated absolute RMS force accuracy = 0.00035471128
  estimated relative force accuracy = 1.0682025e-06
  using double precision cuFFT
  3d grid and FFT values/proc = 50653 27000
Generated 10 of 10 mixed pair_coeff terms from sixthpower/sixthpower mixing rule

print "STAGE COMPLETE: NPT T=580.0->580.0K P=50000.0->1.0atm steps=500000"
STAGE COMPLETE: NPT T=580.0->580.0K P=50000.0->1.0atm steps=500000
quit
     |  1.94

Nlocal:           7020 ave        7020 max        7020 min
Histogram: 1 0 0 0 0 0 0 0 0 0
Nghost:          18322 ave       18322 max       18322 min
Histogram: 1 0 0 0 0 0 0 0 0 0
Neighs:              0 ave           0 max           0 min
Histogram: 1 0 0 0 0 0 0 0 0 0
FullNghs:  3.94124e+06 ave 3.94124e+06 max 3.94124e+06 min
Histogram: 1 0 0 0 0 0 0 0 0 0

Total # of neighbors = 3941240
Ave neighs/atom = 561.4302
Ave special neighs/atom = 5.7008547
Neighbor list builds = 24135
Dangerous builds = 0
System init for write_data ...
PPPM Kokkos initialization ...
  using 12-bit tables for long-range coulomb
  G vector (1/distance) = 0.29869774
  grid = 30 30 30
  stencil order = 5
  estimated absolute RMS force accuracy = 0.00035471128
  estimated relative force accuracy = 1.0682025e-06
  using double precision cuFFT
  3d grid and FFT values/proc = 50653 27000
Generated 10 of 10 mixed pair_coeff terms from sixthpower/sixthpower mixing rule
STAGE COMPLETE: NPT T=580.0->580.0K P=50000.0->1.0atm steps=500000
