units real
atom_style full
boundary p p p

# --- Force Field Styles ---
pair_style lj/class2/coul/long 9.5 9.5
kspace_style pppm 1e-6
dielectric 1.000000
bond_style class2
angle_style class2
dihedral_style class2
improper_style class2
special_bonds lj/coul 0 0 1
pair_modify mix sixthpower tail yes
neighbor 2.0 bin
neigh_modify delay 0 every 1 check yes
neigh_modify one 4000
package gpu 1 neigh no

read_data /home/arz2/PolyJarvis/data/PVC1/lammps/equil/npt_pppm/npt_pppm_out.data
Reading data file ...
  orthogonal box = (5.5192156 5.5192156 5.5192156) to (42.866279 42.866279 42.866279)
  1 by 1 by 1 MPI processor grid
  reading atoms ...
  3620 atoms
  reading velocities ...
  3620 velocities
  scanning bonds ...
  4 = max bonds/atom
  scanning angles ...
  6 = max angles/atom
  scanning dihedrals ...
  12 = max dihedrals/atom
  scanning impropers ...
  4 = max impropers/atom
  orthogonal box = (5.5192156 5.5192156 5.5192156) to (42.866279 42.866279 42.866279)
  1 by 1 by 1 MPI processor grid
  reading bonds ...
  3610 bonds
  reading angles ...
  7200 angles
  reading dihedrals ...
  10710 dihedrals
  reading impropers ...
  4800 impropers
Finding 1-2 1-3 1-4 neighbors ...
  special bond factors lj:    0        0        1       
  special bond factors coul:  0        0        1       
     4 = max # of 1-2 neighbors
     6 = max # of 1-3 neighbors
    10 = max # of special neighbors
  special bonds CPU = 0.005 seconds
  read_data CPU = 0.402 seconds
include /home/arz2/PolyJarvis/data/PVC1/lammps/equil/emc_build.params
# LAMMPS parameters created by EMC v9.4.4, build Jul 31 2025 20:33:44

# Variables

variable	seed		index	-1
variable	ntotal		index	3620
variable	fshape		index	1
variable	output		index	emc_build
variable	field		index	pcff/pcff
variable	location1	index	/home/arz2/emc/field/
variable	nav		index	0.6022141179
variable	temperature	index	300
variable	radius		index	5
variable	nrelax		index	100
variable	weight_nonbond	index	0.0001
variable	weight_bond	index	0.0001
variable	weight_focus	index	1
variable	cutoff		index	9.5
variable	charge_cutoff	index	9.5
variable	kappa		index	4
variable	density1	index	0.55
variable	lprevious	index	0
variable	lphase		index	48.3854950346
variable	f_poly		index	10
variable	chem_repeat	index	*CC(Cl)*
variable	chem_cap	index	*[H]
variable	lg_repeat	index	6
variable	lg_cap		index	1
variable	norm_poly	index	100
variable	l_poly		index	362
variable	mg_repeat	index	50.48806
variable	mg_cap		index	1.00797
variable	m_poly		index	3031.29954
variable	n_poly		index	10
variable	mtotal		index	37519.6854
variable	nphase1		index	3620
variable	mphase1		index	37519.6854
variable	vphase1		index	113277.998291
variable	lbox		index	48.3854950346
variable	lphase1		index	48.3854950346
variable	lxx		index	48.3854950346
variable	lyy		index	48.3854950346
variable	lzz		index	48.3854950346
variable	lzy		index	0
variable	lzx		index	0
variable	lyx		index	0
variable	vtotal		index	113277.998291
variable	nl_poly		index	10

# Types

variable	type_c		index	1
variable	type_c1		index	2
variable	type_cl		index	3
variable	type_hc		index	4

variable	type_bond_c_c	index	1
variable	type_bond_c_c1	index	2
variable	type_bond_c_cl	index	3
variable	type_bond_c_hc	index	4
variable	type_bond_c1_cl	index	5
variable	type_bond_c1_hc	index	6

variable	type_angle_c_c_c1 index	1
variable	type_angle_c_c_cl index	2
variable	type_angle_c_c_hc index	3
variable	type_angle_c_c1_c index	4
variable	type_angle_c_c1_cl index	5
variable	type_angle_c_c1_hc index	6
variable	type_angle_c1_c_c1 index	7
variable	type_angle_c1_c_hc index	8
variable	type_angle_cl_c_hc index	9
variable	type_angle_cl_c1_hc index	10
variable	type_angle_hc_c_hc index	11

# Clusters

variable	n0_poly		index	1
variable	n1_poly		index	10
variable	nl_poly		index	10

# Flags

variable	flag_charged	index	1

# Masses

mass		1    12.01115  # c
mass		2    12.01115  # c1
mass		3    35.45300  # cl
mass		4     1.00797  # hc

# Potentials

pair_modify	mix sixthpower tail yes
special_bonds	lj/coul 0 0 1

# Pair Coeffs

pair_coeff	 1  1    0.05400    4.01000  # c,c
pair_coeff	 2  2    0.05400    4.01000  # c1,c1
pair_coeff	 3  3    0.22470    3.92000  # cl,cl
pair_coeff	 4  4    0.02000    2.99500  # hc,hc

# Bond Coeffs

bond_coeff	1    1.53000  299.67000 -501.77000  679.81000  # c,c
bond_coeff	2    1.53000  299.67000 -501.77000  679.81000  # c,c1
bond_coeff	3    1.79000  194.31900    0.00000    0.00000  # c,cl
bond_coeff	4    1.10100  345.00000 -691.89000  844.60000  # c,hc
bond_coeff	5    1.79000  194.31900    0.00000    0.00000  # c1,cl
bond_coeff	6    1.10100  345.00000 -691.89000  844.60000  # c1,hc

# Angle Coeffs

angle_coeff	 1  112.67000   39.51600   -7.44300   -9.55830  # c,c,c1
angle_coeff	 2  107.00000   61.17450    0.00000    0.00000  # c,c,cl
angle_coeff	 3  110.77000   41.45300  -10.60400    5.12900  # c,c,hc
angle_coeff	 4  112.67000   39.51600   -7.44300   -9.55830  # c,c1,c
angle_coeff	 5  107.00000   61.17450    0.00000    0.00000  # c,c1,cl
angle_coeff	 6  110.77000   41.45300  -10.60400    5.12900  # c,c1,hc
angle_coeff	 7  112.67000   39.51600   -7.44300   -9.55830  # c1,c,c1
angle_coeff	 8  110.77000   41.45300  -10.60400    5.12900  # c1,c,hc
angle_coeff	 9  107.99680   51.09870    0.00000    0.00000  # cl,c,hc
angle_coeff	10  107.99680   51.09870    0.00000    0.00000  # cl,c1,hc
angle_coeff	11  107.66000   39.64100  -12.92100   -2.43180  # hc,c,hc

# BondBond Coeffs

angle_coeff	 1 bb    0.00000    1.53000    1.53000  # c,c,c1
angle_coeff	 2 bb    0.00000    1.53000    1.79000  # c,c,cl
angle_coeff	 3 bb    3.38720    1.53000    1.10100  # c,c,hc
angle_coeff	 4 bb    0.00000    1.53000    1.53000  # c,c1,c
angle_coeff	 5 bb    0.00000    1.53000    1.79000  # c,c1,cl
angle_coeff	 6 bb    3.38720    1.53000    1.10100  # c,c1,hc
angle_coeff	 7 bb    0.00000    1.53000    1.53000  # c1,c,c1
angle_coeff	 8 bb    3.38720    1.53000    1.10100  # c1,c,hc
angle_coeff	 9 bb    0.00000    1.79000    1.10100  # cl,c,hc
angle_coeff	10 bb    0.00000    1.79000    1.10100  # cl,c1,hc
angle_coeff	11 bb    5.33160    1.10100    1.10100  # hc,c,hc

# BondAngle Coeffs

angle_coeff	 1 ba    8.01600    8.01600    1.53000    1.53000  # c,c,c1
angle_coeff	 2 ba    0.00000    0.00000    1.53000    1.79000  # c,c,cl
angle_coeff	 3 ba   20.75400   11.42100    1.53000    1.10100  # c,c,hc
angle_coeff	 4 ba    8.01600    8.01600    1.53000    1.53000  # c,c1,c
angle_coeff	 5 ba    0.00000    0.00000    1.53000    1.79000  # c,c1,cl
angle_coeff	 6 ba   20.75400   11.42100    1.53000    1.10100  # c,c1,hc
angle_coeff	 7 ba    8.01600    8.01600    1.53000    1.53000  # c1,c,c1
angle_coeff	 8 ba   20.75400   11.42100    1.53000    1.10100  # c1,c,hc
angle_coeff	 9 ba    0.00000    0.00000    1.79000    1.10100  # cl,c,hc
angle_coeff	10 ba    0.00000    0.00000    1.79000    1.10100  # cl,c1,hc
angle_coeff	11 ba   18.10300   18.10300    1.10100    1.10100  # hc,c,hc

# Dihedral Coeffs

dihedral_coeff	 1    0.00000    0.00000    0.05140    0.00000   -0.14300    0.00000  # c,c,c1,c
dihedral_coeff	 2    0.00000    0.00000    0.00000    0.00000    0.15000    0.00000  # c,c,c1,cl
dihedral_coeff	 3    0.00000    0.00000    0.03160    0.00000   -0.16810    0.00000  # c,c,c1,hc
dihedral_coeff	 4    0.00000    0.00000    0.05140    0.00000   -0.14300    0.00000  # c,c1,c,c1
dihedral_coeff	 5    0.00000    0.00000    0.03160    0.00000   -0.16810    0.00000  # c,c1,c,hc
dihedral_coeff	 6    0.00000    0.00000    0.00000    0.00000    0.15000    0.00000  # c1,c,c,cl
dihedral_coeff	 7    0.00000    0.00000    0.03160    0.00000   -0.16810    0.00000  # c1,c,c,hc
dihedral_coeff	 8    0.00000    0.00000    0.00000    0.00000    0.15000    0.00000  # c1,c,c1,cl
dihedral_coeff	 9    0.00000    0.00000    0.03160    0.00000   -0.16810    0.00000  # c1,c,c1,hc
dihedral_coeff	10    0.00000    0.00000    0.00000    0.00000   -0.10000    0.00000  # cl,c,c,hc
dihedral_coeff	11    0.00000    0.00000    0.00000    0.00000   -0.10000    0.00000  # cl,c1,c,hc
dihedral_coeff	12   -0.14320    0.00000    0.06170    0.00000   -0.10830    0.00000  # hc,c,c,hc
dihedral_coeff	13   -0.14320    0.00000    0.06170    0.00000   -0.10830    0.00000  # hc,c,c1,hc

# MiddleBondTorsion Coeffs

dihedral_coeff	 1 mbt  -17.78700   -7.18770    0.00000    1.53000  # c,c,c1,c
dihedral_coeff	 2 mbt    0.00000    0.00000    0.00000    1.53000  # c,c,c1,cl
dihedral_coeff	 3 mbt  -14.87900   -3.65810   -0.31380    1.53000  # c,c,c1,hc
dihedral_coeff	 4 mbt  -17.78700   -7.18770    0.00000    1.53000  # c,c1,c,c1
dihedral_coeff	 5 mbt  -14.87900   -3.65810   -0.31380    1.53000  # c,c1,c,hc
dihedral_coeff	 6 mbt    0.00000    0.00000    0.00000    1.53000  # c1,c,c,cl
dihedral_coeff	 7 mbt  -14.87900   -3.65810   -0.31380    1.53000  # c1,c,c,hc
dihedral_coeff	 8 mbt    0.00000    0.00000    0.00000    1.53000  # c1,c,c1,cl
dihedral_coeff	 9 mbt  -14.87900   -3.65810   -0.31380    1.53000  # c1,c,c1,hc
dihedral_coeff	10 mbt    0.00000    0.00000    0.00000    1.53000  # cl,c,c,hc
dihedral_coeff	11 mbt    0.00000    0.00000    0.00000    1.53000  # cl,c1,c,hc
dihedral_coeff	12 mbt  -14.26100   -0.53220   -0.48640    1.53000  # hc,c,c,hc
dihedral_coeff	13 mbt  -14.26100   -0.53220   -0.48640    1.53000  # hc,c,c1,hc

# EndBondTorsion Coeffs

dihedral_coeff	 1 ebt   -0.07320    0.00000    0.00000   -0.07320    0.00000    0.00000    1.53000    1.53000  # c,c,c1,c
dihedral_coeff	 2 ebt    0.00000    0.00000    0.00000    0.00000    0.00000    0.00000    1.53000    1.79000  # c,c,c1,cl
dihedral_coeff	 3 ebt    0.24860    0.24220   -0.09250    0.08140    0.05910    0.22190    1.53000    1.10100  # c,c,c1,hc
dihedral_coeff	 4 ebt   -0.07320    0.00000    0.00000   -0.07320    0.00000    0.00000    1.53000    1.53000  # c,c1,c,c1
dihedral_coeff	 5 ebt    0.24860    0.24220   -0.09250    0.08140    0.05910    0.22190    1.53000    1.10100  # c,c1,c,hc
dihedral_coeff	 6 ebt    0.00000    0.00000    0.00000    0.00000    0.00000    0.00000    1.53000    1.79000  # c1,c,c,cl
dihedral_coeff	 7 ebt    0.24860    0.24220   -0.09250    0.08140    0.05910    0.22190    1.53000    1.10100  # c1,c,c,hc
dihedral_coeff	 8 ebt    0.00000    0.00000    0.00000    0.00000    0.00000    0.00000    1.53000    1.79000  # c1,c,c1,cl
dihedral_coeff	 9 ebt    0.24860    0.24220   -0.09250    0.08140    0.05910    0.22190    1.53000    1.10100  # c1,c,c1,hc
dihedral_coeff	10 ebt    0.00000    0.00000    0.00000    0.00000    0.00000    0.00000    1.79000    1.10100  # cl,c,c,hc
dihedral_coeff	11 ebt    0.00000    0.00000    0.00000    0.00000    0.00000    0.00000    1.79000    1.10100  # cl,c1,c,hc
dihedral_coeff	12 ebt    0.21300    0.31200    0.07770    0.21300    0.31200    0.07770    1.10100    1.10100  # hc,c,c,hc
dihedral_coeff	13 ebt    0.21300    0.31200    0.07770    0.21300    0.31200    0.07770    1.10100    1.10100  # hc,c,c1,hc

# AngleTorsion Coeffs

dihedral_coeff	 1 at    0.38860   -0.31390    0.13890    0.38860   -0.31390    0.13890  112.67000  112.67000  # c,c,c1,c
dihedral_coeff	 2 at    0.00000    0.00000    0.00000    0.00000    0.00000    0.00000  112.67000  107.00000  # c,c,c1,cl
dihedral_coeff	 3 at   -0.24540    0.00000   -0.11360    0.31130    0.45160   -0.19880  112.67000  110.77000  # c,c,c1,hc
dihedral_coeff	 4 at    0.38860   -0.31390    0.13890    0.38860   -0.31390    0.13890  112.67000  112.67000  # c,c1,c,c1
dihedral_coeff	 5 at   -0.24540    0.00000   -0.11360    0.31130    0.45160   -0.19880  112.67000  110.77000  # c,c1,c,hc
dihedral_coeff	 6 at    0.00000    0.00000    0.00000    0.00000    0.00000    0.00000  112.67000  107.00000  # c1,c,c,cl
dihedral_coeff	 7 at   -0.24540    0.00000   -0.11360    0.31130    0.45160   -0.19880  112.67000  110.77000  # c1,c,c,hc
dihedral_coeff	 8 at    0.00000    0.00000    0.00000    0.00000    0.00000    0.00000  112.67000  107.00000  # c1,c,c1,cl
dihedral_coeff	 9 at   -0.24540    0.00000   -0.11360    0.31130    0.45160   -0.19880  112.67000  110.77000  # c1,c,c1,hc
dihedral_coeff	10 at    0.00000    0.00000    0.00000    0.00000    0.00000    0.00000  107.00000  110.77000  # cl,c,c,hc
dihedral_coeff	11 at    0.00000    0.00000    0.00000    0.00000    0.00000    0.00000  107.00000  110.77000  # cl,c1,c,hc
dihedral_coeff	12 at   -0.80850    0.55690   -0.24660   -0.80850    0.55690   -0.24660  110.77000  110.77000  # hc,c,c,hc
dihedral_coeff	13 at   -0.80850    0.55690   -0.24660   -0.80850    0.55690   -0.24660  110.77000  110.77000  # hc,c,c1,hc

# AngleAngleTorsion Coeffs

dihedral_coeff	 1 aat  -22.04500  112.67000  112.67000  # c,c,c1,c
dihedral_coeff	 2 aat    0.00000  112.67000  107.00000  # c,c,c1,cl
dihedral_coeff	 3 aat  -16.16400  112.67000  110.77000  # c,c,c1,hc
dihedral_coeff	 4 aat  -22.04500  112.67000  112.67000  # c,c1,c,c1
dihedral_coeff	 5 aat  -16.16400  112.67000  110.77000  # c,c1,c,hc
dihedral_coeff	 6 aat    0.00000  112.67000  107.00000  # c1,c,c,cl
dihedral_coeff	 7 aat  -16.16400  112.67000  110.77000  # c1,c,c,hc
dihedral_coeff	 8 aat    0.00000  112.67000  107.00000  # c1,c,c1,cl
dihedral_coeff	 9 aat  -16.16400  112.67000  110.77000  # c1,c,c1,hc
dihedral_coeff	10 aat    0.00000  107.00000  110.77000  # cl,c,c,hc
dihedral_coeff	11 aat    0.00000  107.00000  110.77000  # cl,c1,c,hc
dihedral_coeff	12 aat  -12.56400  110.77000  110.77000  # hc,c,c,hc
dihedral_coeff	13 aat  -12.56400  110.77000  110.77000  # hc,c,c1,hc

# BondBond13 Coeffs

dihedral_coeff	 1 bb13    0.00000    1.53000    1.53000  # c,c,c1,c
dihedral_coeff	 2 bb13    0.00000    1.53000    1.79000  # c,c,c1,cl
dihedral_coeff	 3 bb13    0.00000    1.53000    1.10100  # c,c,c1,hc
dihedral_coeff	 4 bb13    0.00000    1.53000    1.53000  # c,c1,c,c1
dihedral_coeff	 5 bb13    0.00000    1.53000    1.10100  # c,c1,c,hc
dihedral_coeff	 6 bb13    0.00000    1.53000    1.79000  # c1,c,c,cl
dihedral_coeff	 7 bb13    0.00000    1.53000    1.10100  # c1,c,c,hc
dihedral_coeff	 8 bb13    0.00000    1.53000    1.79000  # c1,c,c1,cl
dihedral_coeff	 9 bb13    0.00000    1.53000    1.10100  # c1,c,c1,hc
dihedral_coeff	10 bb13    0.00000    1.79000    1.10100  # cl,c,c,hc
dihedral_coeff	11 bb13    0.00000    1.79000    1.10100  # cl,c1,c,hc
dihedral_coeff	12 bb13    0.00000    1.10100    1.10100  # hc,c,c,hc
dihedral_coeff	13 bb13    0.00000    1.10100    1.10100  # hc,c,c1,hc

# Improper Coeffs

improper_coeff	 1    0.00000    0.00000  # c,c,cl,hc
improper_coeff	 2    0.00000    0.00000  # c,c,hc,c1
improper_coeff	 3    0.00000    0.00000  # c,c,hc,cl
improper_coeff	 4    0.00000    0.00000  # c,c,hc,hc
improper_coeff	 5    0.00000    0.00000  # c,c1,c1,hc
improper_coeff	 6    0.00000    0.00000  # c,c1,hc,hc
improper_coeff	 7    0.00000    0.00000  # c,cl,hc,hc
improper_coeff	 8    0.00000    0.00000  # c,hc,hc,hc
improper_coeff	 9    0.00000    0.00000  # c1,c,c,cl
improper_coeff	10    0.00000    0.00000  # c1,c,c,hc
improper_coeff	11    0.00000    0.00000  # c1,c,cl,hc

# AngleAngle Coeffs

improper_coeff	 1 aa    0.00000    0.00000    0.00000  107.00000  110.77000  107.99680  # c,c,cl,hc
improper_coeff	 2 aa    0.11840   -1.31990   -1.31990  110.77000  112.67000  110.77000  # c,c,hc,c1
improper_coeff	 3 aa    0.00000    0.00000    0.00000  110.77000  107.00000  107.99680  # c,c,hc,cl
improper_coeff	 4 aa    0.27380   -0.48250    0.27380  110.77000  110.77000  107.66000  # c,c,hc,hc
improper_coeff	 5 aa   -1.31990   -1.31990    0.11840  112.67000  110.77000  110.77000  # c,c1,c1,hc
improper_coeff	 6 aa    0.27380   -0.48250    0.27380  110.77000  110.77000  107.66000  # c,c1,hc,hc
improper_coeff	 7 aa    0.00000    0.00000    0.00000  107.99680  107.99680  107.66000  # c,cl,hc,hc
improper_coeff	 8 aa   -0.31570   -0.31570   -0.31570  107.66000  107.66000  107.66000  # c,hc,hc,hc
improper_coeff	 9 aa    0.00000    0.00000    0.00000  112.67000  107.00000  107.00000  # c1,c,c,cl
improper_coeff	10 aa   -1.31990   -1.31990    0.11840  112.67000  110.77000  110.77000  # c1,c,c,hc
improper_coeff	11 aa    0.00000    0.00000    0.00000  107.00000  110.77000  107.99680  # c1,c,cl,hc


# --- Thermo Output ---
thermo_style custom step time temp press enthalpy etotal ke pe ebond eangle edihed eimp evdwl ecoul elong etail vol lx ly lz density pxx pyy pzz
thermo_modify flush yes
thermo 1000

# --- Trajectory ---
dump dump_npt all custom 1000 npt_cool.dump id type mol x y z ix iy iz vx vy vz

# --- Restart Checkpointing ---
restart 10000 npt_1.rst npt_2.rst

# --- Initial Velocities (optional) ---
# Velocities read from data file

# --- SHAKE Constraints ---
# SHAKE disabled

# --- NPT Thermostat + Barostat (Nose-Hoover) ---
# T_damp = 100.0 fs  (heat bath coupling)
# P_damp = 1000.0 fs  (pressure bath coupling, ~10x T_damp typical)
# Ramp: T=610.0->530.0K  P=1.0->1.0atm
timestep 1.0
fix npt_fix all npt temp 610.0 530.0 100.0 iso 1.0 1.0 1000.0

run 1000000

CITE-CITE-CITE-CITE-CITE-CITE-CITE-CITE-CITE-CITE-CITE-CITE-CITE

Your simulation uses code contributions which should be cited:

- GPU package (short-range, long-range and three-body potentials): doi:10.1016/j.cpc.2010.12.021, doi:10.1016/j.cpc.2011.10.012, doi:10.1016/j.cpc.2013.08.002, doi:10.1016/j.commatsci.2014.10.068, doi:10.1016/j.cpc.2016.10.020, doi:10.3233/APC200086

@Article{Brown11,
 author = {W. M. Brown and P. Wang and S. J. Plimpton and A. N. Tharrington},
 title = {Implementing Molecular Dynamics on Hybrid High Performance Computers---Short Range Forces},
 journal = {Comput.\ Phys.\ Commun.},
 year =    2011,
 volume =  182,
 pages =   {898--911},
 doi =     {10.1016/j.cpc.2010.12.021}
}

@Article{Brown12,
 author = {W. M. Brown and A. Kohlmeyer and S. J. Plimpton and A. N. Tharrington},
 title = {Implementing Molecular Dynamics on Hybrid High Performance Computers - Particle-Particle Particle-Mesh},
 journal = {Comput.\ Phys.\ Commun.},
 year =    2012,
 volume =  183,
 doi =     {10.1016/j.cpc.2011.10.012},
 pages =   {449--459}
}

@Article{Brown13,
 author = {W. M. Brown and Y. Masako},
 title = {Implementing Molecular Dynamics on Hybrid High Performance Computers---Three-Body Potentials},
 journal = {Comput.\ Phys.\ Commun.},
 year =    2013,
 volume =  184,
 pages =   {2785--2793},
 doi =     {10.1016/j.cpc.2013.08.002},
}

@Article{Trung15,
 author = {T. D. Nguyen and S. J. Plimpton},
 title = {Accelerating Dissipative Particle Dynamics Simulations for Soft Matter Systems},
 journal = {Comput.\ Mater.\ Sci.},
 year =    2015,
 doi =     {10.1016/j.commatsci.2014.10.068},
 volume =  100,
 pages =   {173--180}
}

@Article{Trung17,
 author = {T. D. Nguyen},
 title = {{GPU}-Accelerated {T}ersoff Potentials for Massively Parallel
    Molecular Dynamics Simulations},
 journal = {Comput.\ Phys.\ Commun.},
 year =    2017,
 doi =     {10.1016/j.cpc.2016.10.020},
 volume =  212,
 pages =   {113--122}
}

@inproceedings{Nikolskiy19,
 author = {V. Nikolskiy and V. Stegailov},
 title = {{GPU} Acceleration of Four-Site Water Models in {LAMMPS}},
 booktitle = {Proceedings of the International Conference on Parallel
    Computing (ParCo 2019), Prague, Czech Republic},
 doi =     {10.3233/APC200086},
 year =    2019
}

CITE-CITE-CITE-CITE-CITE-CITE-CITE-CITE-CITE-CITE-CITE-CITE-CITE

PPPM initialization ...
  using 12-bit tables for long-range coulomb
  G vector (1/distance) = 0.29528542
  grid = 25 25 25
  stencil order = 5
  estimated absolute RMS force accuracy = 0.00035462531
  estimated relative force accuracy = 1.0679436e-06
  using double precision KISS FFT
  3d grid and FFT values/proc = 32768 15625
Generated 6 of 6 mixed pair_coeff terms from sixthpower/sixthpower mixing rule
Neighbor list info ...
  update: every = 1 steps, delay = 0 steps, check = yes
  max neighbors/atom: 4000, page size: 100000
  master list distance cutoff = 11.5
  ghost atom cutoff = 11.5
  binsize = 5.75, bins = 7 7 7
  1 neighbor lists, perpetual/occasional/extra = 1 0 0
  (1) pair lj/class2/coul/long/gpu, perpetual
      attributes: full, newton on
      pair build: full/bin
      stencil: full/bin/3d
      bin: standard
Per MPI rank memory allocation (min/avg/max) = 25.27 | 25.27 | 25.27 Mbytes
   Step          Time           Temp          Press         Enthalpy        TotEng         KinEng         PotEng         E_bond        E_angle        E_dihed        E_impro         E_vdwl         E_coul         E_long         E_tail         Volume           Lx             Ly             Lz          Density          Pxx            Pyy            Pzz      
         0   0              612.80241     -636.07794      6475.1348      6958.3668      6610.6376      347.72914      2566.7287      3578.3956     -1866.6231      23.206515     -208.86789     -1530.2335     -2214.8772     -242.93564      52091.804      37.347064      37.347064      37.347064      1.1960211     -456.11305     -161.76585     -1290.3549    
      1000   1000           590.08655     -1144.3366      5909.5352      6802.4308      6365.5891      436.84173      2614.8468      3678.8574     -1887.8596      23.822553     -282.20602     -1514.9868     -2195.6326     -236.53184      53502.124      37.681109      37.681109      37.681109      1.1644939     -1056.1276     -1790.6927     -586.18955    
      2000   2000           609.47604     -838.95823      6316.7043      6949.9721      6574.7542      375.21794      2617.2914      3668.3349     -1869.1426      22.526056     -321.74175     -1532.9307     -2209.1194     -244.50595      51757.251      37.26694       37.26694       37.26694       1.2037521     -1493.1379      1661.9266     -2685.6634    
      3000   3000           615.55076     -857.96008      6584.8581      7242.4298      6640.2856      602.14418      2774.532       3670.3489     -1900.6579      23.780659     -233.35601     -1527.3316     -2205.1719     -240.80222      52553.319      37.457034      37.457034      37.457034      1.1855178     -1186.9338     -1218.8096     -168.13684    
      4000   4000           613.7021      -406.27705      6827.2237      7139.1666      6620.343       518.82353      2673.5016      3645.0906     -1852.1659      22.554062     -252.32898     -1518.6785     -2199.1494     -240.37194      52647.392      37.47937       37.47937       37.47937       1.1833995      1129.8311     -1407.3006     -941.36167    
      5000   5000           598.05805     -1282.0082      5856.3275      6837.3072      6451.5821      385.72512      2520.7397      3700.3581     -1844.4353      24.435678     -313.19287     -1503.1189     -2199.0611     -241.19444      52467.859      37.436719      37.436719      37.436719      1.1874488      379.86941     -3943.4073     -282.48665    
      6000   6000           612.47982     -1408.0813      5807.3775      6906.302       6607.1576      299.14433      2597.9516      3506.9167     -1840.4977      21.696835     -247.79241     -1530.2066     -2208.9241     -236.48108      53513.607      37.683804      37.683804      37.683804      1.164244      -1441.2817     -1144.0913     -1638.8709    
      7000   7000           599.50035     -299.27143      6833.9378      7069.0013      6467.1409      601.86038      2675.8518      3755.3246     -1896.1569      25.716685     -230.98669     -1522.0421     -2205.847      -234.97228      53857.229      37.764291      37.764291      37.764291      1.1568159      2106.7068     -1986.0539     -1018.4672    
      8000   8000           602.34259     -2088.8027      5305.5106      6925.0748      6497.8018      427.273        2647.7434      3596.5652     -1852.1911      20.99009      -258.32311     -1525.2884     -2202.223      -238.03223      53164.883      37.60177       37.60177       37.60177       1.1718807     -1187.8722     -4350.737      -727.799      
      9000   9000           615.07244      203.21798      7274.2339      7116.5161      6635.1257      481.3904       2583.1415      3727.9029     -1882.0636      23.359159     -225.34141     -1537.1167     -2208.4916     -237.80325      53216.076      37.613835      37.613835      37.613835      1.1707533      236.83576      2050.2876     -1677.4694    
     10000   10000          606.66597      2006.9788      8424.9167      6843.7841      6544.4405      299.34364      2507.1826      3580.3016     -1869.2465      22.901596     -208.59541     -1530.5527     -2202.6476     -234.26694      54019.383      37.802153      37.802153      37.802153      1.1533434      563.95948      1669.2664      3787.7105    
     11000   11000          609.19384     -1198.6712      5987.1866      6908.5947      6571.7099      336.88482      2598.3448      3602.1549     -1873.6126      22.603176     -265.48868     -1533.6014     -2213.5155     -240.09579      52707.946      37.493734      37.493734      37.493734      1.18204       -2538.5964      1547.9649     -2605.382     
     12000   12000          597.04593      663.44834      7337.7905      6826.8338      6440.6637      386.17004      2567.4199      3642.7092     -1842.014       23.457007     -247.60341     -1541.5032     -2216.2954     -239.64013      52808.165      37.517483      37.517483      37.517483      1.1797967      1088.8289      402.20836      499.30779    
     13000   13000          612.90412     -451.73759      6679.1304      7033.8275      6611.7348      422.09275      2585.5622      3698.922      -1875.9946      24.121807     -278.64745     -1526.026      -2205.8453     -235.0526       53838.825      37.759989      37.759989      37.759989      1.1572113     -77.391014     -584.97878     -692.84298    
     14000   14000          602.47781     -646.91338      6315.3265      6824.0291      6499.2605      324.76858      2598.2924      3544.4079     -1886.4838      22.370702     -210.21725     -1536.3414     -2207.26       -234.70304      53919.011      37.778726      37.778726      37.778726      1.1554904     -1105.7727     -116.19672     -718.77066    
     15000   15000          605.53671      290.40166      7173.2345      6942.2989      6532.2585      410.04041      2554.8928      3588.2054     -1867.1386      22.251121     -146.41153     -1534.1902     -2207.5686     -232.08368      54527.556      37.920321      37.920321      37.920321      1.1425947      500.26571      3687.0667     -3316.1274    
     16000   16000          615.84638      88.732965      7099.2438      7029.5679      6643.4746      386.09328      2614.6579      3548.5323     -1827.621       23.634133     -229.98661     -1536.2993     -2206.8241     -235.0384       53842.078      37.760749      37.760749      37.760749      1.1571414     -217.55589     -1701.7894      2185.5442    
     17000   17000          603.60997      565.21687      7389.3632      6944.6937      6511.4737      433.22001      2518.7463      3712.5128     -1866.1996      24.029321     -212.37537     -1532.4746     -2211.0188     -234.59263      53944.387      37.784651      37.784651      37.784651      1.1549468      1719.7747      247.92957     -272.05363    
     18000   18000          622.60228     -1072.2383      6468.4827      7324.482       6716.3542      608.12781      2661.5861      3752.6995     -1867.5337      25.084256     -213.76173     -1537.3881     -2212.5585     -231.18224      54740.172      37.969544      37.969544      37.969544      1.1381568     -392.54424     -240.49673     -2583.6741    
     19000   19000          609.25957     -1059.1864      6247.2882      7086.7793      6572.419       514.36031      2625.3077      3649.4992     -1881.7763      23.929085     -168.59096     -1527.3329     -2206.6755     -232.8589       54346.025      37.878194      37.878194      37.878194      1.1464113     -1666.126      -171.975       -1339.4583    
     20000   20000          598.87912      77.396601      6883.3978      6821.913       6460.4394      361.47358      2556.442       3566.318      -1869.7438      21.978217     -166.06467     -1534.7011     -2212.7551     -232.32191      54471.641      37.907355      37.907355      37.907355      1.1437676      590.93308      1381.5331     -1740.2764    
     21000   21000          606.82202      696.91185      7526.1047      6983.4111      6546.1239      437.28721      2553.2316      3695.1291     -1865.0415      25.834264     -233.53113     -1526.7995     -2211.5356     -237.00617      53395.048      37.655955      37.655955      37.655955      1.1668291      1150.7897      1507.4093     -567.46348    
     22000   22000          597.1055       235.4821       7073.0684      6885.0397      6441.3064      443.7333       2538.5102      3693.2435     -1859.1095      25.257378     -224.59024     -1521.2378     -2208.3404     -231.13744      54750.782      37.971997      37.971997      37.971997      1.1379362      105.42311      343.28142      257.74177    
     23000   23000          612.23315     -432.31156      6851.4309      7198.9917      6604.4966      594.4951       2583.2783      3728.7373     -1854.5894      23.006126     -140.06117     -1536.2628     -2209.6133     -229.56335      55126.202      38.05859       38.05859       38.05859       1.1301867      328.39159     -124.88957     -1500.4367    
     24000   24000          607.89173      313.89438      7214.283       6964.7219      6557.6634      407.05846      2569.1348      3623.7973     -1881.7104      22.334405     -186.72301     -1532.6867     -2207.0879     -232.13633      54515.189      37.917455      37.917455      37.917455      1.1428539     -68.676801      1447.8593     -437.49933    
     25000   25000          601.32532     -803.63225      6229.6231      6863.6271      6486.8279      376.79925      2537.2267      3612.3369     -1854.6034      22.438257     -204.05195     -1528.7386     -2207.8087     -233.93858      54095.206      37.819832      37.819832      37.819832      1.1517268     -921.88973     -617.52415     -871.48288    
     26000   26000          595.24985     -222.04574      6571.7413      6748.683       6421.2884      327.39456      2510.4718      3584.0012     -1879.0321      23.752058     -184.29368     -1525.7521     -2201.7526     -231.6054       54640.159      37.946406      37.946406      37.946406      1.1402401      230.99155     -533.24774     -363.88103    
     27000   27000          604.2257       184.65439      7144.3513      6994.422       6518.1159      476.30615      2574.7999      3607.1797     -1850.9734      22.343638     -157.33057     -1518.4202     -2201.293      -227.3054       55673.801      38.184194      38.184194      38.184194      1.1190703     -1250.2277      21.032748      1783.1581    
     28000   28000          601.48842      413.02653      7242.1151      6921.8995      6488.5874      433.31209      2574.2152      3658.4613     -1846.336       25.431505     -241.2602      -1530.7561     -2206.4437     -238.05204      53160.459      37.600727      37.600727      37.600727      1.1719782     -1946.3716      1287.6724      1897.7788    
     29000   29000          604.30534     -690.47711      6370.2097      6916.4514      6518.975       397.47646      2505.086       3675.1594     -1879.9345      23.050436     -185.27431     -1533.4642     -2207.1464     -233.29259      54244.997      37.854708      37.854708      37.854708      1.1485464      1120.4455     -2478.6804     -713.19641    
     30000   30000          604.65398     -17.022839      6894.1177      6907.4876      6522.736       384.75159      2591.0846      3614.2031     -1863.9536      22.687648     -249.01714     -1519.359      -2210.894      -234.98451      53854.425      37.763636      37.763636      37.763636      1.1568761      795.34216      795.2622      -1641.6729    
     31000   31000          608.53276      728.68263      7594.6613      7029.3723      6564.5786      464.79376      2622.9297      3618.4351     -1827.4473      22.857448     -256.23146     -1516.1573     -2199.5925     -237.90546      53193.214      37.608448      37.608448      37.608448      1.1712565      389.26307      1815.1934     -18.408552    
     32000   32000          605.50019     -229.77879      6672.1655      6851.5959      6531.8645      319.73147      2560.2978      3524.7486     -1821.1903      22.851207     -217.12743     -1535.6803     -2214.1682     -236.34717      53543.928      37.69092       37.69092       37.69092       1.1635847     -425.95791     -235.67078     -27.70768     
     33000   33000          603.46986     -6.8993051      6980.4101      6985.8151      6509.9623      475.85283      2585.4031      3691.4256     -1851.4977      24.897415     -244.20164     -1518.762      -2211.4119     -235.5854       53717.064      37.731502      37.731502      37.731502      1.1598344     -694.73943     -1166.7944      1840.836     
     34000   34000          618.34491      336.07132      7392.1925      7124.3594      6670.4276      453.9318       2598.0311      3608.2433     -1832.2775      21.742228     -232.88971     -1514.7291     -2194.1884     -231.58147      54645.804      37.947713      37.947713      37.947713      1.1401223     -134.57159      992.29115      150.49439    
     35000   35000          613.1242      -340.52399      6966.8408      7241.7232      6614.1089      627.61435      2593.413       3702.395      -1870.0247      23.703876     -92.319914     -1530.2095     -2199.3434     -228.63209      55350.741      38.110193      38.110193      38.110193      1.1256019      831.22313     -801.40078     -1051.3943    
     36000   36000          614.2446       275.85631      7113.4041      6895.576       6626.1952      269.38071      2498.9731      3592.8703     -1851.3968      23.137646     -269.60999     -1522.2984     -2202.2951     -233.72512      54144.612      37.831342      37.831342      37.831342      1.1506759      733.63943      1432.7646     -1338.8351    
     37000   37000          600.0016      -928.02674      6261.3689      7002.6775      6472.5482      530.1293       2703.9914      3624.3854     -1842.4911      22.761279     -248.3408      -1523.8393     -2206.3376     -231.04575      54772.51       37.97702       37.97702       37.97702       1.1374848     -866.36442      330.2378      -2247.9536    
     38000   38000          603.81939      1822.8754      8587.4018      7153.0924      6513.7328      639.35959      2578.837       3791.304      -1847.4393      23.363806     -173.96039     -1529.717      -2203.0285     -234.55823      53952.3        37.786499      37.786499      37.786499      1.1547774      787.47353      2585.7555      2095.3971    
     39000   39000          597.14058     -510.54378      6500.5343      6905.0941      6441.6848      463.40933      2555.2082      3683.6671     -1875.0796      22.901203     -191.70237     -1523.1741     -2208.4111     -232.90928      54334.27       37.875463      37.875463      37.875463      1.1466593     -253.10549     -660.32416     -618.20168    
     40000   40000          596.39834      603.04167      7358.8391      6877.3947      6433.6779      443.71684      2538.3772      3740.1796     -1892.2673      24.97559      -224.47404     -1531.6904     -2211.3839     -231.17332      54742.285      37.970033      37.970033      37.970033      1.1381129      2616.1634      703.79896     -1510.8374    
     41000   41000          607.4712      -1346.7909      5954.1992      7003.8916      6553.1269      450.76468      2552.7944      3649.4813     -1814.5499      23.332797     -228.20909     -1519.8643     -2212.2206     -236.79615      53442.404      37.667084      37.667084      37.667084      1.1657952     -583.64594     -2547.2801     -909.44657    
     42000   42000          599.81961      611.98973      7352.9986      6863.2576      6470.585       392.6726       2562.5511      3566.7558     -1837.1611      22.281285     -179.34034     -1538.3803     -2204.0338     -230.62914      54871.452      37.999873      37.999873      37.999873      1.1354337      2117.6477      1209.3195     -1490.998     
     43000   43000          606.91274      557.01277      7492.0308      7053.2202      6547.1025      506.11766      2607.828       3600.9908     -1830.8721      23.716023     -163.76842     -1526.2066     -2205.57       -234.27423      54017.702      37.801761      37.801761      37.801761      1.1533793      2006.0106     -1608.9534      1273.9812    
     44000   44000          602.28975      1160.966       7949.8124      7041.4183      6497.2318      544.18658      2596.1485      3716.295      -1849.2134      23.601805     -196.35947     -1534.7347     -2211.5511     -235.87489      53651.135      37.716059      37.716059      37.716059      1.1612596      2797.7985     -1393.7575      2078.857     
     45000   45000          604.91761     -165.68762      6781.4746      6912.8355      6525.58        387.25558      2546.8683      3602.74       -1848.6413      22.764841     -190.47464     -1536.4721     -2209.5294     -232.78791      54362.598      37.882044      37.882044      37.882044      1.1460618      287.71128     -70.68108      -714.09305    
     46000   46000          604.88003      489.74122      7385.3009      6997.0454      6525.1745      471.87091      2596.7143      3621.124      -1850.9201      24.074261     -190.64316     -1522.9331     -2205.5453     -232.80135      54359.46       37.881315      37.881315      37.881315      1.146128       507.90607      1140.6686     -179.35096    
     47000   47000          616.66237     -519.07965      6892.7568      7309.1234      6652.2771      656.84624      2721.4301      3662.2564     -1839.7359      23.67827      -180.83911     -1518.9613     -2210.9823     -230.08839      55000.411      38.029619      38.029619      38.029619      1.1327715     -538.544       -975.92241     -42.772546    
     48000   48000          606.67517      1291.8586      8114.8945      7100.0862      6544.5397      555.54653      2602.0394      3708.885      -1832.9532      24.871488     -204.86825     -1529.9306     -2212.4973     -234.9457       53863.323      37.765715      37.765715      37.765715      1.156685       2691.6137     -850.30301      2034.2651    
     49000   49000          617.43509      1175.5307      7969.0673      7032.9472      6660.6129      372.33429      2509.7454      3549.4211     -1843.7019      21.739367     -149.29388     -1516.0367     -2199.5391     -231.76025      54603.651      37.937953      37.937953      37.937953      1.1410024      1694.2659      572.52342      1259.8029    
     50000   50000          603.08094     -704.48581      6614.8006      7173.7437      6505.7668      667.97695      2656.0255      3711.763      -1825.0579      25.032653     -174.16497     -1519.6614     -2205.9601     -232.61684      54402.577      37.891328      37.891328      37.891328      1.1452196     -2968.8982     -195.01597      1050.4568    
     51000   51000          597.84034     -321.10418      6718.3697      6975.3656      6449.2335      526.13213      2554.4297      3727.8108     -1857.2808      24.486639     -214.29042     -1508.6666     -2200.3572     -230.59838      54878.772      38.001563      38.001563      38.001563      1.1352823     -1.4980498      110.70582     -1072.5203    
     52000   52000          600.82858     -1416.3165      5915.9143      7042.6283      6481.4693      561.15908      2599.2342      3668.4645     -1831.4843      23.334028     -172.89704     -1522.6452     -2202.8471     -231.99741      54547.832      37.925021      37.925021      37.925021      1.14217       -2628.008      -1059.8097     -561.13196    
     53000   53000          612.10654     -559.34863      6844.1589      7291.7553      6603.1309      688.62438      2711.5106      3739.0051     -1883.8755      25.050903     -215.34096     -1499.7178     -2188.0079     -230.63891      54869.127      37.999337      37.999337      37.999337      1.1354819     -505.49729      197.19774     -1369.7463    
     54000   54000          625.83823     -213.92658      6882.532       7052.5212      6751.2621      301.25903      2471.2707      3574.0799     -1827.1122      21.67867      -203.97547     -1526.4448     -2208.2378     -232.26296      54485.467      37.910562      37.910562      37.910562      1.1434774      421.8695       533.39293     -1597.0422    
     55000   55000          603.7423      -483.10823      6618.4162      7005.6463      6512.9012      492.74513      2614.7207      3687.6622     -1870.7086      26.112694     -228.37751     -1529.0067     -2207.6578     -230.2565       54960.254      38.020362      38.020362      38.020362      1.1335992     -1302.6441     -552.1637       405.48309    
     56000   56000          610.75819     -458.20298      6771.9235      7131.0014      6588.5855      542.4159       2606.0824      3741.9939     -1861.6356      23.097802     -234.27047     -1530.7249     -2202.1273     -235.50804      53734.708      37.735632      37.735632      37.735632      1.1594535     -1307.1871     -167.68382      100.26199    
     57000   57000          605.12967     -688.04628      6441.3934      6978.9247      6527.8675      451.05721      2630.734       3603.4866     -1830.4767      23.186546     -233.69484     -1527.2237     -2214.9548     -236.23836      53568.59       37.696706      37.696706      37.696706      1.1630491     -2215.0003     -68.255237      219.11669    
     58000   58000          606.47812      1041.5673      7663.3256      6843.7205      6542.414       301.30651      2508.4712      3606.5274     -1836.2291      23.654801     -250.04444     -1533.5691     -2217.5043     -234.54125      53956.206      37.787411      37.787411      37.787411      1.1546938      716.11394      2098.3451      310.2429     
     59000   59000          608.82949      924.46521      7810.7908      7092.0115      6567.7796      524.23189      2607.1185      3721.9941     -1852.382       25.895232     -241.91886     -1531.242      -2205.233      -237.37312      53312.507      37.636541      37.636541      37.636541      1.1686357      2104.4674      875.02863     -206.10038    
     60000   60000          607.76989     -967.55317      6174.8015      6931.3708      6556.349       375.02177      2576.4894      3598.6309     -1846.3564      22.60515      -253.95603     -1521.7884     -2200.6029     -236.02755      53616.435      37.707926      37.707926      37.707926      1.1620112     -574.01417     -254.35233     -2074.293     
     61000   61000          602.23515      345.32761      7443.3166      7168.6344      6496.6428      671.99165      2673.6622      3726.6128     -1859.5286      24.244845     -159.6937      -1532.3967     -2200.9092     -232.02641      54541.015      37.923441      37.923441      37.923441      1.1423128      1554.5167      355.68074     -874.21459    
     62000   62000          598.60121     -1053.987       6261.9465      7107.5846      6457.4414      650.14318      2573.2127      3768.2963     -1871.6633      22.790383     -121.3152      -1520.723      -2200.4547     -230.03148      55014.017      38.032755      38.032755      38.032755      1.1324913     -2442.552      -799.22703      79.817885    
     63000   63000          602.90454      332.26904      7115.7597      6855.292       6503.8638      351.42816      2561.9471      3562.6121     -1843.4179      23.972691     -230.48595     -1517.1852     -2206.0147     -235.43573      53751.211      37.739495      37.739495      37.739495      1.1590976      1400.4237      399.51342     -803.13004    
     64000   64000          602.35261     -686.34633      6430.3492      6986.0522      6497.9098      488.14236      2536.7532      3648.9135     -1850.0931      24.602135     -140.67277     -1525.209      -2206.1516     -227.94869      55516.686      38.14824       38.14824       38.14824       1.1222373      1005.2529     -2952.8539     -111.43798    
     65000   65000          620.21177      461.04674      7534.3021      7165.0054      6690.5664      474.439        2549.1736      3579.767      -1805.8672      22.912967     -151.03611     -1515.8397     -2204.6715     -230.41251      54923.041      38.011779      38.011779      38.011779      1.1343672      1241.2806     -1532.7333      1674.5929    
     66000   66000          603.33836     -299.46978      6952.7442      7192.3856      6508.5436      683.84197      2638.2359      3688.3181     -1809.3473      22.649697     -115.80192     -1528.408      -2211.8045     -230.63629      54869.752      37.999481      37.999481      37.999481      1.1354689     -128.58441     -39.848372     -729.97655    
     67000   67000          604.89915      55.881423      7078.7943      7034.238       6525.3808      508.8572       2525.923       3674.4239     -1859.4798      22.291474     -126.86049     -1520.7138     -2206.7272     -231.46996      54672.13       37.953806      37.953806      37.953806      1.1395733     -721.99167     -428.86816      1318.5041    
     68000   68000          590.13529      1072.5881      7737.8828      6877.399       6366.1149      511.28415      2559.7605      3619.7625     -1834.7802      22.574836     -128.843       -1522.7181     -2204.4723     -230.05243      55009.008      38.031601      38.031601      38.031601      1.1325945      2807.3825     -1839.868       2250.2498    
     69000   69000          611.18876      915.68037      7875.0351      7133.8696      6593.2303      540.63928      2488.2961      3775.925      -1892.5894      25.467742     -124.20092     -1525.7267     -2206.5326     -228.01594      55500.311      38.144489      38.144489      38.144489      1.1225684      1320.0282      1277.9907      149.02229    
     70000   70000          596.12715      1891.1378      8396.3117      6913.2879      6430.7524      482.53553      2545.7232      3695.9596     -1871.4023      22.785955     -163.86103     -1537.9665     -2208.7035     -235.34857      53771.118      37.744153      37.744153      37.744153      1.1586685      2221.526       988.62439      2463.2629    
     71000   71000          610.35977     -1886.9151      5544.7551      7041.4512      6584.2875      457.16365      2686.1327      3537.0453     -1873.6197      23.405744     -190.17835     -1521.4394     -2204.1826     -232.67798      54388.283      37.888009      37.888009      37.888009      1.1455206     -3277.393      -2717.1678      333.81542    
     72000   72000          603.51094      140.29788      7144.329       7033.2228      6510.4054      522.81741      2620.3075      3651.1099     -1874.0891      24.441782     -163.8928      -1522.444      -2212.6158     -233.05004      54301.453      37.867836      37.867836      37.867836      1.1473523      287.89926     -745.07048      878.06488    
     73000   73000          594.00331     -571.79589      6412.7176      6865.2133      6407.8413      457.37199      2554.778       3624.7934     -1814.4106      23.916644     -202.57548     -1518.6396     -2210.4903     -233.21854      54262.219      37.858713      37.858713      37.858713      1.1481819     -1465.162       328.2616      -578.48727    
     74000   74000          609.05064     -396.09163      6601.3015      6918.9073      6570.1652      348.74207      2551.6299      3577.0408     -1886.9825      22.49606      -191.07378     -1523.1016     -2201.2669     -230.16734      54981.543      38.02527       38.02527       38.02527       1.1331602      795.2565      -679.84965     -1303.6818    
     75000   75000          605.33709     -627.68246      6487.8679      6981.0281      6530.1051      450.92296      2578.3347      3659.1895     -1852.2708      23.020499     -218.80411     -1531.4285     -2207.1183     -234.90299      53873.116      37.768004      37.768004      37.768004      1.1564747     -539.33377     -2541.3397      1197.6261    
     76000   76000          617.52155      348.47424      7350.3609      7074.9804      6661.5455      413.43484      2597.2604      3586.4163     -1868.0671      22.573069     -195.87532     -1519.1787     -2209.6939     -233.54684      54185.943      37.840966      37.840966      37.840966      1.1497982      1218.721       631.20887     -804.50718    
     77000   77000          593.92688      2272.8678      8658.0628      6887.9307      6407.0169      480.91382      2637.5738      3597.2032     -1860.7638      22.565845     -172.20039     -1532.2566     -2211.2082     -236.97636      53401.764      37.657533      37.657533      37.657533      1.1666824      3153.3314      982.19374      2683.0783    
     78000   78000          602.50172     -1637.3325      5599.743       6901.0515      6499.5184      401.53311      2652.2986      3556.0117     -1871.2782      25.176539     -234.30413     -1516.6325     -2209.7389     -232.21653      54496.361      37.913089      37.913089      37.913089      1.1432488     -1120.0134     -453.77238     -3338.2118    
     79000   79000          606.81261      584.12355      7378.8402      6919.1362      6546.0223      373.11387      2642.4797      3542.7004     -1869.4671      23.226337     -225.5258      -1529.6504     -2210.6493     -234.51084      53963.201      37.789044      37.789044      37.789044      1.1545442      1270.2326     -697.25559      1179.3936    
     80000   80000          607.03584     -1895.3201      5533.1653      7039.9749      6548.4304      491.54449      2645.3456      3602.8681     -1831.5167      21.618429     -222.78073     -1514.4592     -2209.531      -232.14574      54512.979      37.916942      37.916942      37.916942      1.1429003     -1041.4051     -530.86402     -4113.6912    
     81000   81000          600.60527     -392.669        6605.9541      6919.7985      6479.0603      440.73827      2580.5778      3549.2948     -1816.3521      21.647594     -159.38868     -1527.1649     -2207.8764     -230.91317      54803.959      37.984287      37.984287      37.984287      1.1368321      1055.1679     -2484.4504      251.27551    
     82000   82000          615.08149      78.654397      6910.5018      6849.0981      6635.2233      213.87476      2460.0839      3552.9978     -1857.1331      22.079382     -218.72153     -1533.1758     -2212.2559     -236.40944      53529.824      37.687611      37.687611      37.687611      1.1638913      501.54923      1307.9656     -1573.5516    
     83000   83000          627.19618      455.47693      7585.9567      7222.56        6765.9111      456.64884      2585.5043      3632.6343     -1844.7123      23.689968     -218.43737     -1519.3104     -2202.7197     -231.32463      54706.477      37.961752      37.961752      37.961752      1.1388578     -587.13128      2734.1799     -780.61778    
     84000   84000          603.2286       189.01599      7130.5383      6979.0308      6507.3596      471.6712       2569.4473      3612.0914     -1853.7516      23.73314      -125.75265     -1530.3411     -2223.7552     -230.25079      54961.618      38.020676      38.020676      38.020676      1.133571      -124.55041     -1270.1481      1961.7465    
     85000   85000          597.00126      1515.7343      8067.6028      6869.9457      6440.1819      429.76386      2456.4403      3725.3501     -1863.4482      22.974004     -165.00131     -1534.9655     -2211.5855     -233.57541      54179.316      37.839423      37.839423      37.839423      1.1499388      1426.8732      2779.2746      341.05502    
     86000   86000          603.59715     -1479.7108      5712.6803      6882.9805      6511.3353      371.64513      2532.0315      3644.3147     -1839.4073      24.241737     -250.69507     -1528.8352     -2210.0051     -233.35445      54230.617      37.851362      37.851362      37.851362      1.148851      -1513.739      -1742.5958     -1182.7976    
     87000   87000          595.18206      706.20282      7346.5623      6802.8579      6420.5571      382.30081      2485.1167      3644.6597     -1829.8495      22.73386      -199.69751     -1528.6801     -2211.9824     -239.7194       52790.703      37.513347      37.513347      37.513347      1.1801869     -2207.1162      2643.7443      1681.9803    
     88000   88000          608.53469     -688.91451      6580.1846      7121.9476      6564.5994      557.34821      2714.3197      3552.1903     -1849.5907      22.314853     -170.78109     -1509.7839     -2201.321      -234.68886      53922.269      37.779487      37.779487      37.779487      1.1554206     -476.95126     -2202.1172      612.32497    
     89000   89000          606.35475      654.47657      7408.1792      6889.504       6541.0831      348.42091      2475.0903      3589.1743     -1811.9615      21.691756     -200.52949     -1523.1372     -2201.9072     -232.8816       54340.729      37.876963      37.876963      37.876963      1.146523      -533.59787      3193.0047     -695.97715    
     90000   90000          603.63669      1959.2182      8360.3499      6838.0939      6511.7619      326.33197      2467.8455      3602.016      -1820.873       22.754004     -213.80332     -1523.0174     -2208.5899     -237.53719      53275.682      37.627873      37.627873      37.627873      1.1694435      2609.9956      1596.0174      1671.6416    
     91000   91000          606.03287     -1140.8106      6137.0155      7040.4204      6537.6108      502.80959      2612.8719      3664.5447     -1861.8312      24.544594     -212.65342     -1520.954      -2203.713      -233.05994      54299.147      37.8673        37.8673        37.8673        1.147401      -690.2634      -419.45496     -2312.7133    
     92000   92000          600.28549     -1277.7786      5746.406       6762.2667      6475.6106      286.6561       2563.6595      3516.0056     -1853.736       23.091424     -235.67815     -1519.5274     -2207.1588     -232.14426      54513.326      37.917023      37.917023      37.917023      1.142893      -640.76859     -1521.341      -1671.2261    
     93000   93000          606.22982      1194.5266      8092.7012      7155.096       6539.7355      615.36052      2574.6865      3729.6669     -1828.2922      24.135055     -176.82193     -1508.588      -2199.4258     -235.13233      53820.569      37.755721      37.755721      37.755721      1.1576038      1493.8577      670.16345      1419.5588    
     94000   94000          605.64566     -1729.8055      5511.665       6912.1092      6533.4337      378.67548      2562.8511      3554.1896     -1856.8277      22.875371     -207.35652     -1505.7476     -2191.3088     -227.96491      55512.736      38.147336      38.147336      38.147336      1.1223172     -1043.5114     -2379.4201     -1766.485     
     95000   95000          603.69288      84.702712      7169.3734      7101.8225      6512.3681      589.45444      2650.607       3634.372      -1846.3073      23.251107     -150.73563     -1518.9567     -2202.776      -231.42117      54683.655      37.956473      37.956473      37.956473      1.1393331     -1009.8287      398.67609      865.26075    
     96000   96000          607.62991     -1407.8519      5842.8841      6976.5845      6554.8389      421.74558      2667.479       3509.8259     -1829.5984      21.795124     -230.80457     -1512.625      -2204.3265     -229.18975      55216.063      38.079258      38.079258      38.079258      1.1283473     -139.2987      -2258.0803     -1826.1767    
     97000   97000          600.90076     -205.23581      6728.5208      6893.2578      6482.2479      411.00995      2592.8257      3502.1997     -1830.8978      21.978119     -142.72487     -1526.3721     -2205.9988     -229.93149      55037.942      38.038268      38.038268      38.038268      1.131999      -502.54213      1023.1329     -1136.2982    
     98000   98000          616.07973     -1149.3923      6152.1625      7066.5508      6645.9919      420.55888      2673.6067      3557.7279     -1886.5194      23.711757     -216.78848     -1522.8221     -2208.3574     -231.99261      54548.961      37.925283      37.925283      37.925283      1.1421464     -201.41259     -1879.5762     -1367.1881    
     99000   99000          593.16615     -1204.1021      5868.7887      6829.8949      6398.8104      431.08452      2522.1426      3664.2626     -1830.8171      24.074749     -225.9697      -1517.4004     -2205.2083     -231.22163      54730.848      37.967388      37.967388      37.967388      1.1383507     -1258.0577     -1195.1425     -1159.1061    
    100000   100000         601.65179     -744.76143      6370.3758      6967.3253      6490.3497      476.97555      2598.6472      3566.1484     -1850.9322      22.258777     -123.82624     -1524.8734     -2210.447      -230.25875      54959.718      38.020238      38.020238      38.020238      1.1336102     -425.5627      -958.00755     -850.71402    
    101000   101000         609.37623     -166.01781      6908.2752      7037.6389      6573.6775      463.96144      2596.1753      3665.4528     -1812.3765      23.572823     -277.41555     -1525.5386     -2205.9089     -236.85289      53429.603      37.664076      37.664076      37.664076      1.1660745      1233.486      -100.5126      -1631.0268    
    102000   102000         589.00239      1350.709       7809.6122      6762.4326      6353.8937      408.53889      2585.5848      3612.7132     -1843.2508      21.968314     -217.70345     -1535.0945     -2215.6786     -238.05491      53159.819      37.600576      37.600576      37.600576      1.1719923      1078.4216      168.39816      2805.3074    
    103000   103000         586.26733      148.67778      6755.0426      6637.972       6324.3891      313.58291      2494.1167      3600.5483     -1882.4229      23.489359     -173.75305     -1536.7011     -2211.6943     -234.38756      53991.584      37.795668      37.795668      37.795668      1.1539372     -132.63716      95.474443      483.19604    
    104000   104000         592.97895      1257.3719      7746.058       6769.5846      6396.791       372.79361      2564.4691      3562.7843     -1866.7902      22.756112     -170.85631     -1528.497      -2211.0723     -237.65112      53250.141      37.621859      37.621859      37.621859      1.1700044     -47.340535      558.74763      3260.7087    
    105000   105000         596.468       -1061.9017      5875.8049      6695.2106      6434.4293      260.7813       2548.4617      3633.6072     -1874.4545      24.099223     -328.05109     -1532.3769     -2210.5043     -239.17835      52910.122      37.541612      37.541612      37.541612      1.1775232     -1047.3691     -1596.2444     -542.09157    
    106000   106000         601.2712      -621.63778      6334.9844      6824.6671      6486.2441      338.42299      2552.6001      3629.4346     -1888.0466      24.917535     -237.73363     -1531.9483     -2210.8006     -234.29291      54013.395      37.800757      37.800757      37.800757      1.1534712     -933.25022     -1817.1103      885.44716    
    107000   107000         610.66406      599.53554      7428.7138      6954.5649      6587.5701      366.99483      2479.1953      3644.5073     -1863.3412      21.994889     -171.97967     -1527.6641     -2215.7178     -233.36555      54228.037      37.850762      37.850762      37.850762      1.1489056      2156.6898     -2486.4418      2128.3586    
    108000   108000         588.31129      655.87996      7336.1548      6822.3067      6346.4384      475.86831      2598.9078      3672.5271     -1846.6126      25.20542      -233.24673     -1531.6592     -2209.2534     -235.57336      53719.808      37.732144      37.732144      37.732144      1.1597751      1007.9517      580.04296      379.64519    
    109000   109000         594.10489      660.75351      7246.824       6729.0392      6408.9371      320.10216      2552.9845      3594.9035     -1887.1537      24.986974     -236.45244     -1520.6754     -2208.4914     -235.51941      53732.113      37.735025      37.735025      37.735025      1.1595096     -286.27159      668.87336      1599.6588    
    110000   110000         601.36413      304.7901       6972.9093      6744.5227      6487.2465      257.27619      2536.4873      3630.6806     -1908.0968      23.961056     -275.55672     -1532.38       -2217.8192     -246.30137      51379.966      37.176166      37.176166      37.176166      1.2125913     -314.98275      611.63522      617.71782    
    111000   111000         603.82813     -1226.7115      6063.5751      7027.2257      6513.8271      513.39867      2712.8423      3664.0683     -1869.8512      25.822137     -264.27656     -1541.1251     -2214.0812     -234.9413       53864.331      37.765951      37.765951      37.765951      1.1566634     -840.82165     -1298.2083     -1541.1046    
    112000   112000         604.23619     -125.33701      6704.8409      6801.1221      6518.2291      282.89296      2561.8486      3540.2863     -1820.201       23.952082     -271.36214     -1533.8098     -2217.821      -240.25625      52672.742      37.485385      37.485385      37.485385      1.18283       -1682.1771     -108.69639      1414.8625    
    113000   113000         617.58032     -142.54297      6908.7989      7020.0341      6662.1795      357.85461      2483.0267      3628.4421     -1824.5579      22.95891      -216.22985     -1526.2471     -2209.5382     -236.50485      53508.23       37.682542      37.682542      37.682542      1.164361      -324.22151     -244.25293      140.84552    
    114000   114000         601.06948      1351.827       7847.4431      6795.0312      6484.068       310.96317      2458.7927      3605.2998     -1848.082       22.512028     -175.06596     -1539.2796     -2213.2138     -237.06743      53381.25       37.65271       37.65271       37.65271       1.1671308      349.43912      1675.4334      2030.6085    
    115000   115000         601.80406      414.79136      7012.2751      6690.744       6491.9923      198.75162      2502.9179      3560.6935     -1857.5936      23.856523     -275.24044     -1535.3678     -2220.5144     -238.09111      53151.736      37.59867       37.59867       37.59867       1.1721705     -813.34942      1418.1751      639.54835    
    116000   116000         606.34282      527.54349      7498.6945      7084.1179      6540.9544      543.1634       2625.3639      3719.9153     -1838.2525      23.398235     -256.72672     -1522.7464     -2207.7884     -234.84969      53885.341      37.770861      37.770861      37.770861      1.1562124      406.97437      1090.294       85.36207     
    117000   117000         606.22152     -532.4299       6497.7473      6907.9855      6539.6459      368.33961      2538.1045      3627.0009     -1831.6339      23.823551     -267.49202     -1518.3915     -2203.072      -239.53164      52832.083      37.523146      37.523146      37.523146      1.1792626     -1308.7276     -175.01413     -113.54798    
    118000   118000         591.80727     -931.36294      6044.8262      6762.7279      6384.1515      378.57646      2613.8828      3584.4264     -1839.8268      23.717296     -256.99194     -1536.8241     -2209.8071     -239.43656      52853.064      37.528113      37.528113      37.528113      1.1787944     -1895.5956     -528.44863     -370.04458    
    119000   119000         594.34584      1100.472       7654.2495      6795.929       6411.5364      384.39258      2563.3352      3603.8883     -1868.5287      23.847883     -188.54166     -1535.9752     -2213.6332     -236.62795      53480.393      37.676007      37.676007      37.676007      1.1649671      3584.8101     -614.13056      330.73651    
    120000   120000         592.41711     -592.29969      6290.1554      6749.5233      6390.7301      358.79314      2558.077       3589.0404     -1813.0572      24.012049     -271.34309     -1517.897      -2210.0388     -237.9674       53179.368      37.605185      37.605185      37.605185      1.1715615     -673.01296     -1935.0006      831.11452    
    121000   121000         594.25521      377.11354      7099.3296      6805.5748      6410.5587      395.01608      2527.6679      3608.3882     -1848.9566      22.554716     -166.77664     -1537.5895     -2210.272      -236.93196      53411.771      37.659885      37.659885      37.659885      1.1664638     -328.95862      719.47695      740.82228    
    122000   122000         601.14139      358.82356      7215.8097      6939.3601      6484.8437      454.51633      2618.0441      3587.7382     -1876.9551      22.093969     -163.48261     -1529.3573     -2203.5649     -239.55286      52827.404      37.522038      37.522038      37.522038      1.179367       48.546025     -217.36842      1245.2931    
    123000   123000         598.64847     -2367.9759      4914.9573      6761.2764      6457.9513      303.32513      2629.4842      3527.5685     -1858.8405      23.03946      -272.55136     -1533.7564     -2211.6189     -236.70478      53463.035      37.67193       37.67193       37.67193       1.1653453     -2200.8565     -2983.6926     -1919.3786    
    124000   124000         602.59909      1116.5331      7676.4904      6812.2624      6500.5688      311.69363      2494.6883      3615.836      -1840.0316      24.545484     -250.53812     -1523.3842     -2209.4222     -238.44037      53073.882      37.580304      37.580304      37.580304      1.17389        2001.8049     -1520.1004      2867.8948    
    125000   125000         590.2462      -2020.5178      5140.7182      6725.0203      6367.3113      357.70894      2573.9518      3557.0291     -1831.3853      21.550318     -229.79659     -1522.4933     -2211.147      -235.37548      53764.971      37.742715      37.742715      37.742715      1.1588009     -1560.8287     -3860.7912     -639.93363    
    126000   126000         599.54648     -34.319073      7028.4252      7054.6088      6467.6386      586.97017      2607.9224      3759.6175     -1864.0625      23.70015      -192.62932     -1532.5115     -2215.0666     -241.90359      52314.046      37.400101      37.400101      37.400101      1.1909401      2017.3642     -1364.3287     -755.99269    
    127000   127000         594.29597     -1039.9425      5873.6442      6697.3003      6410.9985      286.30184      2574.1103      3536.5004     -1864.758       24.247072     -260.22941     -1521.1365     -2202.4321     -233.0236       54307.613      37.869268      37.869268      37.869268      1.1472222     -2049.1714      236.62859     -1307.2847    
    128000   128000         599.16069     -601.55144      6557.0779      7029.0147      6463.4768      565.53789      2659.4769      3670.0649     -1835.9209      22.920846     -205.68669     -1533.2303     -2212.0868     -235.24774      53794.165      37.749545      37.749545      37.749545      1.158172      -837.41519     -521.25901     -445.98013    
    129000   129000         604.18966     -246.59404      6635.1961      6825.8997      6517.7271      308.17262      2471.737       3572.1349     -1841.0661      21.213607     -182.7697      -1520.4572     -2212.6197     -238.64929      53027.419      37.569334      37.569334      37.569334      1.1749185     -540.40681      517.21941     -716.59473    
    130000   130000         596.96098     -340.10714      6490.0403      6756.645       6439.7474      316.89758      2564.8706      3581.1875     -1884.0264      23.952516     -239.21376     -1518.9373     -2210.9356     -235.44231      53749.709      37.739143      37.739143      37.739143      1.15913       -226.08114      1805.1614     -2599.4017    
    131000   131000         614.92681     -222.18015      6753.4349      6927.7084      6633.5546      294.15371      2559.7656      3512.9393     -1872.4498      22.957564     -201.73703     -1524.1064     -2203.2155     -235.29385      53783.622      37.747079      37.747079      37.747079      1.1583991     -717.39292     -1501.7288      1552.5813    
    132000   132000         598.87639     -491.10524      6384.7436      6762.3541      6460.41        301.94417      2567.4202      3455.9441     -1840.9021      22.779846     -193.66671     -1511.7699     -2197.8612     -240.03084      52722.208      37.497116      37.497116      37.497116      1.1817202     -1824.3448      527.42745     -176.39838    
    133000   133000         604.72884     -909.84998      6233.853       6969.8987      6523.5435      446.35514      2651.0752      3549.4771     -1844.3045      23.793317     -208.49146     -1518.0475     -2207.147      -228.14005      55470.119      38.137571      38.137571      38.137571      1.1231794     -339.57481     -149.37773     -2240.5974    
    134000   134000         601.60405     -700.07765      6267.4394      6821.6287      6489.8348      331.79397      2512.7149      3522.851      -1826.3712      21.408401     -161.90836     -1529.4798     -2207.4211     -233.14418      54279.527      37.862738      37.862738      37.862738      1.1478158     -1490.6994      339.9735      -949.507      
    135000   135000         592.48261     -876.8585       5933.3729      6641.3578      6391.4367      249.92115      2475.9831      3526.3187     -1842.597       23.160768     -200.2309      -1531.3336     -2201.3799     -228.582        55362.87       38.112976      38.112976      38.112976      1.1253553     -456.41332     -557.19482     -1616.9674    
    136000   136000         601.37387     -716.11957      6239.6769      6812.6675      6487.3517      325.31579      2543.9659      3543.3837     -1887.9906      22.711593     -163.29291     -1532.2159     -2201.2459     -230.66124      54863.817      37.998111      37.998111      37.998111      1.1355918      63.384638     -1768.315      -443.42836    
    137000   137000         600.76603     -1225.3267      5780.4962      6754.9115      6480.7945      274.11697      2559.9372      3484.458      -1842.4042      21.438713     -221.8912      -1525.3013     -2202.1203     -232.08353      54527.59       37.920329      37.920329      37.920329      1.142594      -2019.5149     -1627.5995     -28.865807    
    138000   138000         594.71182      450.17989      7168.9193      6821.0503      6415.4844      405.56585      2546.2922      3679.3848     -1864.3297      24.65272      -239.83679     -1529.9883     -2210.609      -238.83985      52985.111      37.55934       37.55934       37.55934       1.1758567      903.88594     -669.9212       1116.5749    
    139000   139000         602.98679     -1353.196       5763.2732      6834.1627      6504.7511      329.41162      2497.0439      3630.551      -1856.3174      22.521123     -242.13561     -1519.2391     -2203.0123     -233.2129       54263.533      37.859019      37.859019      37.859019      1.1481541     -2325.0855     -1070.8672     -663.6354     
    140000   140000         601.26538      1103.8803      7588.8131      6719.4333      6486.1813      233.25196      2493.0728      3504.2492     -1854.1036      24.108438     -191.0685      -1531.7335     -2211.2729     -234.34134      54002.233      37.798153      37.798153      37.798153      1.1537097      1449.2998      630.24527      1232.0957    
    141000   141000         604.264       -492.06456      6478.0002      6870.0788      6518.5291      351.54971      2484.9782      3566.4972     -1833.8645      22.817762     -134.17414     -1542.0788     -2212.6259     -231.62504      54635.525      37.945334      37.945334      37.945334      1.1403368     -950.85768     -1111.755       586.41896    
    142000   142000         600.28065      894.25734      7338.7833      6643.3376      6475.5584      167.7792       2446.4345      3480.5625     -1785.033       21.150749     -256.12132     -1528.7692     -2210.4451     -237.32082      53324.254      37.639305      37.639305      37.639305      1.1683782     -449.53743      2477.2446      655.06481    
    143000   143000         590.95454      442.64969      7014.6274      6662.7229      6374.9526      287.77033      2485.3663      3590.7833     -1886.1573      23.101011     -185.17805     -1531.017      -2209.1279     -232.15173      54511.572      37.916616      37.916616      37.916616      1.1429298     -603.6841       2127.5993     -195.96611    
    144000   144000         596.7551       119.42571      6965.6165      6869.9915      6437.5264      432.46506      2562.9446      3666.5751     -1876.7043      25.151216     -204.53942     -1533.9984     -2206.9637     -230.49571      54903.215      38.007204      38.007204      38.007204      1.1347769      469.42322     -305.4735       194.3274     
    145000   145000         586.08106     -1139.1607      5664.3811      6562.5164      6322.3796      240.13676      2517.2892      3537.8149     -1862.2884      23.17965      -246.41759     -1523.0597     -2206.3812     -234.08832      54060.602      37.811766      37.811766      37.811766      1.152464      -1488.277      -1098.267      -830.93811    
    146000   146000         599.33832     -654.99656      6328.0863      6846.436       6465.393       381.043        2619.2843      3553.3521     -1838.1174      21.898546     -252.3105      -1520.6769     -2202.3872     -233.21297      54263.516      37.859015      37.859015      37.859015      1.1481545     -604.0128       926.96232     -2287.9392    
    147000   147000         593.07403      1539.7085      7917.7844      6697.6859      6397.8167      299.86916      2582.0648      3425.4999     -1845.0525      22.406686     -155.28608     -1529.2966     -2200.467      -232.90571      54335.103      37.875656      37.875656      37.875656      1.1466418      1373.7432      849.74533      2395.6371    
    148000   148000         588.47332     -1517.4681      5498.8918      6704.2307      6348.1862      356.04445      2657.2074      3499.317      -1868.1115      23.351307     -221.73916     -1524.3937     -2209.5869     -232.35227      54464.525      37.905705      37.905705      37.905705      1.143917      -1016.2222     -2156.5705     -1379.6117    
    149000   149000         595.76212      125.3906       6772.1392      6674.0506      6426.8146      247.236        2432.0421      3565.362      -1844.8222      23.640358     -216.67217     -1511.8572     -2200.4569     -235.9299       53638.626      37.713127      37.713127      37.713127      1.1615305      1535.6598     -1306.9406      147.45254    
    150000   150000         604.33487      651.80237      7149.8498      6651.8079      6519.2935      132.51436      2455.4283      3541.7383     -1860.0203      24.214748     -295.49516     -1528.6288     -2204.7228     -241.53864      52393.09       37.418928      37.418928      37.418928      1.1891434      758.24539     -811.7036       2008.8653    
    151000   151000         607.60678      1045.1715      7698.9168      6877.8181      6554.5895      323.22867      2567.9225      3573.1232     -1868.2802      25.429762     -250.48844     -1521.2335     -2203.2446     -234.92471      53868.133      37.766839      37.766839      37.766839      1.1565817      1888.0604      83.004481      1164.4495    
    152000   152000         604.98768     -1748.9212      5389.5323      6723.5678      6526.3358      197.23197      2553.6655      3497.798      -1876.4644      22.618505     -274.29148     -1523.2334     -2202.8607     -241.95767      52302.354      37.397314      37.397314      37.397314      1.1912064     -3537.3571     -548.19687     -1161.2097    
    153000   153000         586.13409     -867.0565       5983.7622      6653.7707      6322.9517      330.81904      2576.8555      3562.9712     -1881.9524      22.709753     -220.27241     -1528.0203     -2201.4723     -238.83808      52985.502      37.559432      37.559432      37.559432      1.175848      -499.84439     -72.48517      -2028.8399    
    154000   154000         592.06233     -1387.2507      5715.0451      6795.879       6386.903       408.97607      2597.2314      3647.0035     -1877.4823      25.346607     -245.31847     -1529.4164     -2208.3883     -236.88223      53422.985      37.662521      37.662521      37.662521      1.166219      -1286.1759     -640.23056     -2235.3455    
    155000   155000         592.66585     -877.31318      6108.0848      6807.0177      6393.4134      413.60432      2585.4192      3619.3796     -1860.8606      23.241403     -221.67785     -1523.1623     -2208.7352     -231.66247      54626.697      37.94329       37.94329       37.94329       1.1405211     -931.81167     -241.73026     -1458.3976    
    156000   156000         594.3174       1236.6788      7541.3588      6586.418       6411.2296      175.18842      2424.7874      3524.9725     -1811.6338      21.150088     -221.03116     -1547.1278     -2215.929      -239.01049      52947.282      37.550399      37.550399      37.550399      1.1766968      2193.818       1819.1793     -302.96085    
    157000   157000         595.53856     -1159.6777      5850.6934      6766.2371      6424.403       341.8341       2512.169       3589.9137     -1819.714       24.262941     -224.98004     -1528.1686     -2211.6489     -233.77322      54133.471      37.828747      37.828747      37.828747      1.1509127     -2204.1607      532.51135     -1807.3839    
    158000   158000         599.58107      851.51681      7439.3217      6766.3526      6468.0117      298.34092      2520.0593      3575.517      -1882.0929      23.753053     -189.5259      -1533.7799     -2215.5896     -233.52567      54190.856      37.842109      37.842109      37.842109      1.1496939      2294.1148     -248.66548      509.10108    
    159000   159000         596.88611     -481.88932      6362.2032      6739.7474      6438.9397      300.80772      2582.4955      3531.3275     -1855.1485      22.373438     -231.40823     -1533.9985     -2214.8335     -235.56785      53721.064      37.732438      37.732438      37.732438      1.159748       2295.036      -2172.051      -1568.6529    
    160000   160000         605.46751      1055.6724      7720.4174      6891.7265      6531.512       360.21452      2559.4758      3685.4606     -1911.8522      26.643952     -237.88554     -1542.7358     -2218.8923     -235.11109      53825.43       37.756857      37.756857      37.756857      1.1574993     -55.090263      2747.8932      474.21431    
    161000   161000         599.62744     -1840.3488      5312.534       6758.3537      6468.512       289.84171      2645.5729      3459.906      -1874.7082      22.612097     -229.27216     -1525.3984     -2208.8705     -234.92137      53868.899      37.767018      37.767018      37.767018      1.1565653     -628.77048     -2055.1245     -2837.1514    
    162000   162000         592.42482     -429.51383      6394.2386      6725.5972      6390.8133      334.78391      2477.9119      3699.4113     -1873.3001      23.969976     -238.5279      -1537.6823     -2216.999      -239.22987      52898.728      37.538917      37.538917      37.538917      1.1777769     -264.45823      642.65659     -1666.7398    
    163000   163000         601.12723     -2263.313       5007.7997      6781.598       6484.691       296.90697      2549.637       3603.3578     -1872.7476      23.684312     -260.12619     -1530.7378     -2216.1606     -235.4924       53738.277      37.736468      37.736468      37.736468      1.1593765     -2231.0042     -1981.5237     -2577.411     
    164000   164000         596.97328      858.47943      7303.0618      6643.4901      6439.8801      203.61006      2491.8241      3527.5407     -1860.498       23.434345     -234.65772     -1529.0943     -2214.939      -240.21738      52681.267      37.487407      37.487407      37.487407      1.1826386      1258.6805      1686.3168     -369.55901    
    165000   165000         613.13203     -131.68352      6950.0296      7052.0847      6614.1933      437.89139      2518.2375      3718.9908     -1863.713       24.848537     -198.67121     -1547.5401     -2214.2612     -238.14051      53140.709      37.59607       37.59607       37.59607       1.1724138     -2471.3335     -1595.5923      3671.8752    
[...]
    964000   964000         541.13872      730.99447      5853.3644      5301.2024      5837.5618     -536.35946      2275.7135      3194.034      -1875.7365      22.490334     -367.10421     -1559.7802     -2225.9765     -244.33407      51793.659      37.275676      37.275676      37.275676      1.2029059      218.54222      998.74698      975.69421    
    965000   965000         545.17299      394.99169      5643.4143      5336.7337      5881.0818     -544.34812      2217.0318      3158.8886     -1873.5748      20.207739     -302.61208     -1546.3016     -2217.9879     -237.70488      53238.098      37.619023      37.619023      37.619023      1.170269       2140.1305     -1818.4144      863.259      
    966000   966000         531.53013      737.18976      5788.126       5231.3088      5733.9087     -502.59986      2261.3236      3223.2278     -1906.5899      22.228239     -325.06314     -1553.8349     -2223.8914     -244.34482      51791.382      37.27513       37.27513       37.27513       1.2029588      231.44122      428.76238      1551.3657    
    967000   967000         528.91852     -1218.0079      4293.2188      5229.9354      5705.7358     -475.80048      2328.4546      3204.373      -1908.865       21.471937     -350.32385     -1543.5326     -2227.3786     -239.98186      52732.968      37.499667      37.499667      37.499667      1.1814791     -1502.1617      263.13352     -2414.9954    
    968000   968000         526.0333       984.32051      5848.424       5113.5324      5674.6113     -561.07892      2243.3147      3179.4394     -1898.0696      21.241302     -338.21918     -1549.2023     -2219.5833     -247.20075      51193.031      37.131026      37.131026      37.131026      1.2170191      1876.219       503.93806      572.80442    
    969000   969000         542.63443     -935.69153      4534.6229      5252.2865      5853.6969     -601.41037      2269.1365      3178.9345     -1918.7856      21.670451     -380.62974     -1554.3614     -2217.375      -240.62916      52591.114      37.466011      37.466011      37.466011      1.1846659     -1379.7746     -1539.6115      112.31154    
    970000   970000         526.37386     -583.10242      4673.7895      5122.2838      5678.2851     -556.00137      2269.393       3165.4229     -1873.7455      20.185592     -372.52318     -1544.5396     -2220.1945     -239.95204      52739.52       37.50122       37.50122       37.50122       1.1813323      1607.4039     -1537.6199     -1819.0913    
    971000   971000         528.55365      232.64699      5469.3876      5293.1464      5701.7998     -408.65334      2305.8569      3295.516      -1893.5232      21.307087     -386.92225     -1536.9505     -2213.9375     -243.62765      51943.84       37.31167       37.31167       37.31167       1.199428       1121.924       35.825926     -459.80896    
    972000   972000         540.20814     -331.58547      4966.1         5218.3667      5827.5232     -609.15652      2166.7267      3189.0867     -1855.4951      20.079933     -355.15066     -1555.078      -2219.326      -242.58956      52166.118      37.364815      37.364815      37.364815      1.1943173      221.70167      341.63813     -1558.0962    
    973000   973000         535.99722     -1673.4757      4125.6154      5410.5142      5782.0977     -371.58343      2407.2447      3172.8899     -1862.9843      20.142025     -349.85056     -1537.5143     -2221.5109     -240.37372      52647.002      37.479278      37.479278      37.479278      1.1834083     -2217.8616     -542.78663     -2259.7789    
    974000   974000         537.33511     -850.23628      4649.5515      5302.5894      5796.5302     -493.94078      2286.4275      3198.9755     -1916.7211      20.34373      -309.53519     -1548.1991     -2225.2322     -240.29114      52665.095      37.483571      37.483571      37.483571      1.1830017     -2193.6926     -1290.3716      933.35544    
    975000   975000         534.69769     -302.60682      4977.2998      5206.9863      5768.0789     -561.09256      2278.8793      3168.2911     -1886.1877      19.997907     -376.22118     -1546.9206     -2218.9315     -243.15306      52045.225      37.335929      37.335929      37.335929      1.1970915     -1639.3751      720.06242      11.492185    
    976000   976000         511.13949      2254.717       6677.4042      4996.8466      5513.9436     -517.097        2281.0455      3200.7533     -1888.0294      21.771164     -360.79931     -1549.0189     -2222.8192     -247.61398      51107.599      37.110359      37.110359      37.110359      1.2190535      2889.6963      3262.6927      611.76217    
    977000   977000         528.28163      805.86378      5809.9716      5196.1466      5698.8653     -502.71875      2293.3146      3237.8037     -1907.3062      22.586181     -393.1896      -1536.8639     -2219.0635     -242.30009      52228.441      37.379689      37.379689      37.379689      1.1928922      2631.2583      478.16986     -691.83684    
    978000   978000         537.28734     -213.49273      5207.4065      5366.9786      5796.0149     -429.03627      2366.117       3217.6078     -1839.6003      19.581403     -420.91346     -1549.7804     -2222.0482     -246.92364      51250.482      37.144911      37.144911      37.144911      1.2156549     -298.24871     -803.46064      461.23116    
    979000   979000         528.86053     -1143.6065      4456.7264      5314.674       5705.1102     -390.4362       2332.8743      3284.7816     -1876.6327      21.208956     -388.63163     -1543.7126     -2220.3241     -246.00977      51440.867      37.190849      37.190849      37.190849      1.2111557     -950.24478     -121.95388     -2358.6209    
    980000   980000         533.57536     -271.14559      4957.6615      5159.5314      5755.9717     -596.4403       2206.2561      3261.3218     -1898.7103      21.415609     -424.02655     -1541.1222     -2221.5747     -247.89484      51049.694      37.096339      37.096339      37.096339      1.2204363      717.15635     -387.91385     -1142.6793    
    981000   981000         531.4038      -189.71409      5190.7835      5336.4159      5732.546      -396.13009      2297.7768      3281.0701     -1920.325       22.957311     -319.0909      -1545.414      -2213.1044     -240.42427      52635.933      37.476651      37.476651      37.476651      1.1836571      356.31765     -987.07515      61.615228    
    982000   982000         519.71649      390.37887      5469.9989      5172.76        5606.4685     -433.70845      2349.2812      3229.755      -1902.3192      21.680239     -378.6216      -1537.4469     -2216.0372     -242.39138      52208.769      37.374996      37.374996      37.374996      1.1933416      322.58407      962.63349     -114.08095    
    983000   983000         533.78115      1117.7107      6091.6014      5247.8022      5758.1917     -510.38948      2200.5177      3282.4901     -1899.6506      21.22676      -325.70267     -1560.4985     -2228.7723     -244.4707       51764.714      37.268731      37.268731      37.268731      1.2035785      2304.7153      366.22075      682.19607    
    984000   984000         534.39588     -407.30164      4831.5677      5138.9783      5764.8231     -625.84477      2246.5893      3167.8652     -1909.2028      22.973961     -388.51148     -1547.24       -2218.3189     -244.53093      51751.964      37.265671      37.265671      37.265671      1.203875      -987.95527      286.7672      -520.71683    
    985000   985000         520.3877      -674.4268       4617.1137      5123.5889      5613.7092     -490.12025      2311.6957      3262.3699     -1901.1864      22.631493     -414.01274     -1551.4359     -2220.1822     -245.76107      51492.923      37.20339       37.20339       37.20339       1.2099313     -1368.8647     -254.17128     -400.24442    
    986000   986000         536.42822      769.91308      5886.7607      5299.9499      5786.747      -486.79715      2248.242       3203.8095     -1887.1961      22.320397     -315.24884     -1541.0377     -2217.6864     -242.14757      52261.337      37.387535      37.387535      37.387535      1.1921413      813.43991      1110.6479      385.65143    
    987000   987000         542.39201     -281.82489      5133.428       5348.0716      5851.0818     -503.01014      2251.0912      3251.8407     -1889.2163      21.953215     -381.66538     -1539.202      -2217.8116     -242.32482      52223.11       37.378418      37.378418      37.378418      1.1930139      1997.6687      228.2533      -3071.3967    
    988000   988000         528.02893      794.18756      5676.0906      5067.8122      5696.1393     -628.32711      2283.1267      3090.337      -1921.4133      20.461833     -307.72944     -1569.8197     -2223.2902     -240.96679      52517.427      37.448505      37.448505      37.448505      1.1863281      1935.0868      101.52814      345.94774    
    989000   989000         537.72432      64.468979      5328.4756      5279.9499      5800.7288     -520.77892      2280.0641      3232.2795     -1875.0392      22.196493     -424.27422     -1538.4382     -2217.5673     -245.19733      51611.312      37.23188       37.23188       37.23188       1.2071559     -737.99678     -549.32159      1480.7253    
    990000   990000         534.08382     -867.69863      4463.1184      5129.4627      5761.4568     -631.99413      2199.0072      3217.0955     -1914.9538      20.374815     -384.79839     -1541.7139     -2227.0056     -240.32934      52656.725      37.481585      37.481585      37.481585      1.1831898     -1981.5619     -489.49924     -132.03476    
    991000   991000         530.25451     -866.03646      4539.6254      5202.3925      5720.1478     -517.75531      2292.7847      3221.9723     -1928.6355      22.47141      -355.99021     -1541.6438     -2228.7143     -241.16359      52474.57       37.438315      37.438315      37.438315      1.187297      -1315.98       -774.229       -507.90037    
    992000   992000         539.25099     -1482.214       4103.0284      5233.142       5817.1979     -584.05588      2278.8746      3185.0272     -1891.0346      23.096562     -403.64183     -1553.3002     -2223.0777     -242.06127      52279.97       37.391978      37.391978      37.391978      1.1917164     -1197.6469     -999.53108     -2249.4639    
    993000   993000         535.63022     -148.64451      5263.1062      5376.3967      5778.1386     -401.74197      2271.9144      3275.1009     -1884.8597      21.304877     -329.84733     -1539.3811     -2215.974      -242.15414      52259.919      37.387197      37.387197      37.387197      1.1921736     -368.04488      600.45365     -678.3423     
    994000   994000         518.53908      77.194097      5202.1893      5143.4757      5593.767      -450.29136      2262.4635      3258.7644     -1900.053       19.745319     -348.75799     -1530.198      -2212.2556     -242.65067      52152.98       37.361678      37.361678      37.361678      1.1946182     -1948.569       1816.3536      363.79773    
    995000   995000         531.83969     -398.29305      5056.9325      5361.7872      5737.2481     -375.46086      2316.4366      3237.6629     -1899.3254      20.990941     -285.85069     -1546.2714     -2219.1037     -241.12724      52482.48       37.440196      37.440196      37.440196      1.187118      -470.86787     -2443.4675      1719.4563    
    996000   996000         541.61052      1197.2919      6202.1047      5302.8685      5842.6515     -539.78295      2229.4858      3152.846      -1858.213       21.416094     -300.70795     -1563.4111     -2221.1988     -245.73258      51498.892      37.204827      37.204827      37.204827      1.209791       2274.2429      1378.091      -60.458335    
    997000   997000         526.27151      289.7203       5414.8313      5190.742       5677.1811     -486.43908      2205.1995      3243.1098     -1882.779       19.777804     -322.30497     -1532.413      -2217.0292     -238.61317      53035.445      37.571229      37.571229      37.571229      1.1747407      1873.673       490.69472     -1495.2069    
    998000   998000         523.49233      1258.3743      6048.3886      5094.7148      5647.2005     -552.48567      2266.3715      3157.5632     -1846.0457      20.253123     -401.17536     -1536.1748     -2213.2777     -243.52666      51965.382      37.316827      37.316827      37.316827      1.1989308      2483.3365      1028.9279      262.85851    
    999000   999000         533.44604     -164.10031      5128.8132      5252.7867      5754.5766     -501.78988      2367.5932      3131.7765     -1837.5116      21.026632     -429.75861     -1531.8627     -2223.0533     -244.29641      51801.645      37.277592      37.277592      37.277592      1.2027205     -25.310167     -225.12069     -241.87007    
   1000000   1000000        516.51298     -540.78769      4650.8321      5063.2534      5571.9104     -508.657        2274.3025      3219.4629     -1880.0292      21.713254     -382.44413     -1543.3854     -2218.2769     -242.00384      52292.375      37.394936      37.394936      37.394936      1.1914337     -1028.6272      817.26407     -1410.9999    
Loop time of 28850.6 on 1 procs for 1000000 steps with 3620 atoms

Performance: 2.995 ns/day, 8.014 hours/ns, 34.661 timesteps/s, 125.474 katom-step/s
66.4% CPU use with 1 MPI tasks x 1 OpenMP threads

MPI task timing breakdown:
Section |  min time  |  avg time  |  max time  |%varavg| %total
---------------------------------------------------------------
Pair    | 990.23     | 990.23     | 990.23     |   0.0 |  3.43
Bond    | 12650      | 12650      | 12650      |   0.0 | 43.85
Kspace  | 6303.9     | 6303.9     | 6303.9     |   0.0 | 21.85
Neigh   | 4404.4     | 4404.4     | 4404.4     |   0.0 | 15.27
Comm    | 221.12     | 221.12     | 221.12     |   0.0 |  0.77
Output  | 20.252     | 20.252     | 20.252     |   0.0 |  0.07
Modify  | 4182.9     | 4182.9     | 4182.9     |   0.0 | 14.50
Other   |            | 77.31      |            |       |  0.27

Nlocal:           3620 ave        3620 max        3620 min
Histogram: 1 0 0 0 0 0 0 0 0 0
Nghost:          11638 ave       11638 max       11638 min
Histogram: 1 0 0 0 0 0 0 0 0 0
Neighs:              0 ave           0 max           0 min
Histogram: 1 0 0 0 0 0 0 0 0 0
FullNghs:  1.59142e+06 ave 1.59142e+06 max 1.59142e+06 min
Histogram: 1 0 0 0 0 0 0 0 0 0

Total # of neighbors = 1591418
Ave neighs/atom = 439.61823
Ave special neighs/atom = 5.9723757
Neighbor list builds = 42124
Dangerous builds = 0

# --- Cleanup ---
unfix npt_fix

undump dump_npt

# --- Write Output ---
write_dump all custom npt_cool_last.dump id type mol x y z xu yu zu vx vy vz modify sort id
write_data /home/arz2/PolyJarvis/data/PVC1/lammps/equil/npt_cool/npt_cool_out.data
System init for write_data ...
PPPM initialization ...
  using 12-bit tables for long-range coulomb
  G vector (1/distance) = 0.29518905
  grid = 25 25 25
  stencil order = 5
  estimated absolute RMS force accuracy = 0.00035592686
  estimated relative force accuracy = 1.0718632e-06
  using double precision KISS FFT
  3d grid and FFT values/proc = 32768 15625
Generated 6 of 6 mixed pair_coeff terms from sixthpower/sixthpower mixing rule

print "STAGE COMPLETE: NPT T=610.0->530.0K P=1.0->1.0atm steps=1000000"
STAGE COMPLETE: NPT T=610.0->530.0K P=1.0->1.0atm steps=1000000
quit
: 
---------------------------------------------------------------------
Data Out:        47.4981 s.
Data In:         294.7188 s.
Kernel (map):    27.9055 s.
Kernel (rho):    246.2136 s.
Force interp:    47.3921 s.
Total rho:       321.6172 s.
Total interp:    342.1109 s.
Force copy:      19.7680 s.
Total:           683.4961 s.
CPU Poisson:     6186.2539 s.
CPU Data Cast:   21.2173 s.
CPU Idle Time:   18.0919 s.
Max Mem / Proc:  8.69 MB.
---------------------------------------------------------------------


--------------------------------------------------------------------------
- Using acceleration for pppm:
-  with 1 proc(s) per device.
-  with 1 thread(s) per proc.
-  Horizontal vector operations: ENABLED
-  Shared memory system: No
--------------------------------------------------------------------------
Device 0: Quadro RTX 6000, 72 CUs, 23/24 GB, 1.8 GHZ (Mixed Precision)
--------------------------------------------------------------------------

Initializing Device and compiling on process 0...Done.
Initializing Device 0 on core 0...Done.



---------------------------------------------------------------------
      Device Time Info (average): 
---------------------------------------------------------------------
Data Transfer:   26.0316 s.
Neighbor copy:   223.9719 s.
Neighbor unpack: 0.0000 s.
Force calc:      230.9713 s.
Device Overhead: 19.0848 s.
CPU Cast/Pack:   46.6896 s.
CPU Driver_Time: 13.4047 s.
CPU Idle_Time:   10.5841 s.
Average split:   1.0000.
Max Mem / Proc:  9.56 MB.
Prefetch mode:   None.
Vector width:    32.
Lanes / atom:    8.
Pair block:      256.
Neigh block:     128.
Neigh mode:      Host.
---------------------------------------------------------------------


--------------------------------------------------------------------------
- Using acceleration for lj/class2/coul/long:
-  with 1 proc(s) per device.
-  with 1 thread(s) per proc.
-  Horizontal vector operations: ENABLED
-  Shared memory system: No
--------------------------------------------------------------------------
Device 0: Quadro RTX 6000, 72 CUs, 23/24 GB, 1.8 GHZ (Mixed Precision)
--------------------------------------------------------------------------

Initializing Device and compiling on process 0...Done.
Initializing Device 0 on core 0...Done.

Generated 6 of 6 mixed pair_coeff terms from sixthpower/sixthpower mixing rule
STAGE COMPLETE: NPT T=610.0->530.0K P=1.0->1.0atm steps=1000000
Cuda driver error 4 in call at file '/home/arz2/lammps/lib/gpu/geryon/nvd_timer.h' in line 98.
Cuda driver error 4 in call at file '/home/arz2/lammps/lib/gpu/geryon/nvd_timer.h' in line 99.
Cuda driver error 4 in call at file '/home/arz2/lammps/lib/gpu/geryon/nvd_timer.h' in line 98.
Cuda driver error 4 in call at file '/home/arz2/lammps/lib/gpu/geryon/nvd_timer.h' in line 99.
Cuda driver error 4 in call at file '/home/arz2/lammps/lib/gpu/geryon/nvd_timer.h' in line 98.
Cuda driver error 4 in call at file '/home/arz2/lammps/lib/gpu/geryon/nvd_timer.h' in line 99.
Cuda driver error 4 in call at file '/home/arz2/lammps/lib/gpu/geryon/nvd_timer.h' in line 98.
Cuda driver error 4 in call at file '/home/arz2/lammps/lib/gpu/geryon/nvd_timer.h' in line 99.
Cuda driver error 4 in call at file '/home/arz2/lammps/lib/gpu/geryon/nvd_timer.h' in line 98.
Cuda driver error 4 in call at file '/home/arz2/lammps/lib/gpu/geryon/nvd_timer.h' in line 99.
Cuda driver error 4 in call at file '/home/arz2/lammps/lib/gpu/geryon/nvd_timer.h' in line 98.
Cuda driver error 4 in call at file '/home/arz2/lammps/lib/gpu/geryon/nvd_timer.h' in line 99.
Cuda driver error 4 in call at file '/home/arz2/lammps/lib/gpu/geryon/nvd_timer.h' in line 98.
Cuda driver error 4 in call at file '/home/arz2/lammps/lib/gpu/geryon/nvd_timer.h' in line 99.
Cuda driver error 4 in call at file '/home/arz2/lammps/lib/gpu/geryon/nvd_timer.h' in line 98.
Cuda driver error 4 in call at file '/home/arz2/lammps/lib/gpu/geryon/nvd_timer.h' in line 99.
Cuda driver error 4 in call at file '/home/arz2/lammps/lib/gpu/geryon/nvd_timer.h' in line 98.
Cuda driver error 4 in call at file '/home/arz2/lammps/lib/gpu/geryon/nvd_timer.h' in line 99.
Cuda driver error 4 in call at file '/home/arz2/lammps/lib/gpu/geryon/nvd_timer.h' in line 98.
Cuda driver error 4 in call at file '/home/arz2/lammps/lib/gpu/geryon/nvd_timer.h' in line 99.
