units real
atom_style full
boundary p p p

# --- Force Field Styles ---
pair_style lj/cut 14.0
dielectric 1.000000
bond_style harmonic
angle_style harmonic
dihedral_style multi/harmonic
improper_style none
special_bonds lj 0 0 0
pair_modify mix arithmetic tail yes
neighbor 2.0 bin
neigh_modify delay 0 every 1 check yes
neigh_modify one 4000
package gpu 1 neigh yes

read_data /home/arz2/PolyJarvis/data/PE3/lammps/npt_production/npt_production_out.data
Reading data file ...
  orthogonal box = (2.3960023 2.3960023 2.3960023) to (53.38237 53.38237 53.38237)
  2 by 2 by 2 MPI processor grid
  reading atoms ...
  4840 atoms
  reading velocities ...
  4840 velocities
  scanning bonds ...
  2 = max bonds/atom
  scanning angles ...
  1 = max angles/atom
  scanning dihedrals ...
  2 = max dihedrals/atom
  orthogonal box = (2.3960023 2.3960023 2.3960023) to (53.38237 53.38237 53.38237)
  2 by 2 by 2 MPI processor grid
  reading bonds ...
  4820 bonds
  reading angles ...
  4800 angles
  reading dihedrals ...
  4780 dihedrals
Finding 1-2 1-3 1-4 neighbors ...
  special bond factors lj:    0        0        0       
  special bond factors coul:  0        0        0       
     2 = max # of 1-2 neighbors
     2 = max # of 1-3 neighbors
     4 = max # of 1-4 neighbors
     6 = max # of special neighbors
  special bonds CPU = 0.001 seconds
  read_data CPU = 0.216 seconds


# --- Thermo Output ---
thermo_style custom step time temp press enthalpy etotal ke pe ebond eangle edihed eimp evdwl ecoul elong etail vol lx ly lz density pxx pyy pzz
thermo_modify flush yes
thermo 100

# --- Trajectory ---
dump dump_npt all custom 1000 /home/arz2/PolyJarvis/data/PE3/lammps/mechanical/bm_series/bm_P300/bm_P300.dump id type mol x y z ix iy iz vx vy vz

# --- Restart Checkpointing ---
restart 10000 npt_1.rst npt_2.rst

# --- Initial Velocities (optional) ---
# Velocities read from data file

# --- SHAKE Constraints ---
# SHAKE disabled (TraPPE-UA united-atom)

# --- NPT Thermostat + Barostat (Nose-Hoover) ---
# T_damp = 100.0 fs  (heat bath coupling)
# P_damp = 1000.0 fs  (pressure bath coupling, ~10x T_damp typical)
# Ramp: T=300.0->300.0K  P=300.0->300.0atm
timestep 2.0
fix npt_fix all npt temp 300.0 300.0 100.0 iso 300.0 300.0 1000.0

run 500000

CITE-CITE-CITE-CITE-CITE-CITE-CITE-CITE-CITE-CITE-CITE-CITE-CITE

Your simulation uses code contributions which should be cited:

- GPU package (short-range, long-range and three-body potentials): doi:10.1016/j.cpc.2010.12.021, doi:10.1016/j.cpc.2011.10.012, doi:10.1016/j.cpc.2013.08.002, doi:10.1016/j.commatsci.2014.10.068, doi:10.1016/j.cpc.2016.10.020, doi:10.3233/APC200086

@Article{Brown11,
 author = {W. M. Brown and P. Wang and S. J. Plimpton and A. N. Tharrington},
 title = {Implementing Molecular Dynamics on Hybrid High Performance Computers---Short Range Forces},
 journal = {Comput.\ Phys.\ Commun.},
 year =    2011,
 volume =  182,
 pages =   {898--911},
 doi =     {10.1016/j.cpc.2010.12.021}
}

@Article{Brown12,
 author = {W. M. Brown and A. Kohlmeyer and S. J. Plimpton and A. N. Tharrington},
 title = {Implementing Molecular Dynamics on Hybrid High Performance Computers - Particle-Particle Particle-Mesh},
 journal = {Comput.\ Phys.\ Commun.},
 year =    2012,
 volume =  183,
 doi =     {10.1016/j.cpc.2011.10.012},
 pages =   {449--459}
}

@Article{Brown13,
 author = {W. M. Brown and Y. Masako},
 title = {Implementing Molecular Dynamics on Hybrid High Performance Computers---Three-Body Potentials},
 journal = {Comput.\ Phys.\ Commun.},
 year =    2013,
 volume =  184,
 pages =   {2785--2793},
 doi =     {10.1016/j.cpc.2013.08.002},
}

@Article{Trung15,
 author = {T. D. Nguyen and S. J. Plimpton},
 title = {Accelerating Dissipative Particle Dynamics Simulations for Soft Matter Systems},
 journal = {Comput.\ Mater.\ Sci.},
 year =    2015,
 doi =     {10.1016/j.commatsci.2014.10.068},
 volume =  100,
 pages =   {173--180}
}

@Article{Trung17,
 author = {T. D. Nguyen},
 title = {{GPU}-Accelerated {T}ersoff Potentials for Massively Parallel
    Molecular Dynamics Simulations},
 journal = {Comput.\ Phys.\ Commun.},
 year =    2017,
 doi =     {10.1016/j.cpc.2016.10.020},
 volume =  212,
 pages =   {113--122}
}

@inproceedings{Nikolskiy19,
 author = {V. Nikolskiy and V. Stegailov},
 title = {{GPU} Acceleration of Four-Site Water Models in {LAMMPS}},
 booktitle = {Proceedings of the International Conference on Parallel
    Computing (ParCo 2019), Prague, Czech Republic},
 doi =     {10.3233/APC200086},
 year =    2019
}

CITE-CITE-CITE-CITE-CITE-CITE-CITE-CITE-CITE-CITE-CITE-CITE-CITE

Generated 1 of 1 mixed pair_coeff terms from arithmetic mixing rule
Per MPI rank memory allocation (min/avg/max) = 7.382 | 7.385 | 7.388 Mbytes
   Step          Time           Temp          Press         Enthalpy        TotEng         KinEng         PotEng         E_bond        E_angle        E_dihed        E_impro         E_vdwl         E_coul         E_long         E_tail         Volume           Lx             Ly             Lz          Density          Pxx            Pyy            Pzz      
         0   0              300.3268       193.35996      4666.2959      4292.5257      4331.9557     -39.430071      1505.6328      1418.6079      2670.5272      0             -5634.198       0              0             -188.0917       132544.65      50.986367      50.986367      50.986367      0.85103739     256.34978      122.37352      201.35659    
       100   200            294.483        336.69103      4872.657       4227.4849      4247.664      -20.17904       1511.4418      1400.2312      2748.2486      0             -5680.1006      0              0             -189.74213      131391.75      50.838106      50.838106      50.838106      0.85850487    -73.537127      220.89025      862.71997    
       200   400            296.96151      342.22381      4770.0974      4121.0266      4283.4143     -162.38771      1433.9504      1420.1893      2711.2291      0             -5727.7566      0              0             -191.70166      130048.69      50.664294      50.664294      50.664294      0.86737094    -305.46385      702.91344      629.22183    
       300   600            295.82683      128.01222      4477.9603      4235.596       4267.0476     -31.451549      1449.0133      1489.9574      2729.7473      0             -5700.1696      0              0             -192.03953      129819.88      50.634564      50.634564      50.634564      0.86889968     222.59744      282.41968     -120.98045    
       400   800            305.49502     -296.3823       3707.3444      4271.4639      4406.5029     -135.03895      1432.5126      1449.4422      2676.2007      0             -5693.1944      0              0             -191.02442      130509.75      50.724096      50.724096      50.724096      0.86430674    -462.35615      67.42027      -494.21102    
       500   1000           296.74395     -20.897489      4175.3876      4215.3668      4280.2762     -64.909343      1463.8936      1443.8357      2706.0597      0             -5678.6983      0              0             -190.04954      131179.22      50.810681      50.810681      50.810681      0.85989578     351.77857     -456.10524      41.634207    
       600   1200           298.87464      143.51941      4569.9465      4296.1855      4311.0095     -14.824061      1502.3517      1413.0975      2719.1948      0             -5649.4681      0              0             -190.61049      130793.16      50.760787      50.760787      50.760787      0.86243387     255.08079      300.3443      -124.86687    
       700   1400           307.12737      143.86116      4722.9138      4448.1431      4430.0481      18.095052      1509.3382      1427.9508      2755.5537      0             -5674.7476      0              0             -190.3623       130963.69      50.782838      50.782838      50.782838      0.86131089     85.477827      313.8834       32.222261    
       800   1600           295.31377      825.73145      5831.3043      4260.3406      4259.6472      0.69346821     1487.4346      1456.11        2737.0459      0             -5679.897       0              0             -191.10868      130452.21      50.716641      50.716641      50.716641      0.86468796     1060.5264      129.76412      1286.9038    
       900   1800           303.51934     -241.70006      3810.9043      4271.1408      4378.0054     -106.86458      1435.0937      1456.7833      2717.76        0             -5716.5015      0              0             -190.94284      130565.51      50.731319      50.731319      50.731319      0.86393761    -224.99519     -99.128915     -400.97608    
      1000   2000           295.68592      100.93963      4303.8004      4112.8039      4265.015      -152.21108      1424.1157      1437.1726      2734.2386      0             -5747.738       0              0             -192.15162      129744.15      50.624716      50.624716      50.624716      0.86940685    -88.570963      41.021871      350.36798    
      1100   2200           305.46884      326.5408       4846.1247      4228.1103      4406.1252     -178.01495      1430.7767      1421.8013      2702.7582      0             -5733.3512      0              0             -192.10848      129773.29      50.628505      50.628505      50.628505      0.86921167     264.25071      546.20108      169.17061    
      1200   2400           300.38827      145.34864      4489.1274      4212.9146      4332.8425     -119.92786      1436.8506      1446.2955      2718.5702      0             -5721.6441      0              0             -191.32644      130303.73      50.697392      50.697392      50.697392      0.86567325     424.59294     -139.44095      150.89393    
      1300   2600           298.63993     -409.51749      3423.0083      4205.5343      4307.6241     -102.08976      1469.3284      1450.2874      2691.6735      0             -5713.3791      0              0             -190.27485      131023.88      50.790617      50.790617      50.790617      0.86091523    -202.66752     -743.16761     -282.71735    
      1400   2800           303.00706      1007.0513      6194.4096      4277.0349      4370.6162     -93.581378      1447.2588      1446.5546      2682.6109      0             -5670.0056      0              0             -190.96438      130550.79      50.729412      50.729412      50.729412      0.86403506     1121.1746      1587.0565      312.92292    
      1500   3000           297.27927      39.81435       4244.5951      4168.4429      4287.9977     -119.55484      1448.4982      1464.1906      2668.5175      0             -5700.7612      0              0             -190.09244      131149.61      50.806858      50.806858      50.806858      0.86008988     121.28606      397.27766     -399.12067    
      1600   3200           305.93199     -234.94658      3808.6472      4258.1639      4412.8057     -154.64187      1418.6043      1430.942       2683.7004      0             -5687.8885      0              0             -190.03388      131190.03      50.812076      50.812076      50.812076      0.85982494    -720.03845     -488.97484      504.17354    
      1700   3400           294.93472      349.03307      4967.7983      4306.686       4254.1797      52.506332      1500.7764      1506.6514      2779.9444      0             -5734.8659      0              0             -191.95485      129877.15      50.642008      50.642008      50.642008      0.86851653     812.37408     -208.11491      442.84003    
      1800   3600           299.53009      101.21773      4336.5415      4144.9927      4320.4639     -175.47117      1395.497       1474.2972      2706.0061      0             -5751.2714      0              0             -192.12546      129761.82      50.627013      50.627013      50.627013      0.86928849     518.73918      29.744137     -244.83013    
      1900   3800           293.43055      478.81069      5064.23        4157.5285      4232.4833     -74.9548        1462.7745      1447.1303      2757.3702      0             -5742.2299      0              0             -192.00267      129844.81      50.637804      50.637804      50.637804      0.86873289     538.55275      568.89341      328.9859     
      2000   4000           304.20439      49.813083      4330.482       4236.3729      4387.8867     -151.51377      1440.992       1442.4521      2710.6185      0             -5745.5764      0              0             -192.45072      129542.51      50.598476      50.598476      50.598476      0.87076014     188.94986     -1.458815      -38.051796    
      2100   4200           298.20602      562.03214      5243.0762      4178.7796      4301.3653     -122.58577      1457.1187      1430.4552      2724.4688      0             -5734.6285      0              0             -192.00219      129845.13      50.637846      50.637846      50.637846      0.86873074     935.82522      375.55328      374.7179     
      2200   4400           301.91853      108.63213      4529.6186      4322.3039      4354.9151     -32.611159      1450.2333      1484.5271      2721.4966      0             -5688.8682      0              0             -190.51804      130856.64      50.768997      50.768997      50.768997      0.86201555     126.39718      540.46469     -340.96547    
      2300   4600           301.09355      540.65723      5229.4123      4201.6202      4343.0154     -141.39527      1445.4145      1436.192       2694.3235      0             -5717.3253      0              0             -191.26013      130348.91      50.70325       50.70325       50.70325       0.86537323    -294.67427      864.1913       1052.4547    
      2400   4800           298.09216      984.95451      6023.6082      4160.2228      4299.723      -139.50012      1449.477       1491.0468      2678.6662      0             -5758.6901      0              0             -192.18577      129721.1       50.621718      50.621718      50.621718      0.86956134     1275.5324      553.80777      1125.5234    
      2500   5000           304.54781     -134.09035      4009.3671      4264.515       4392.8401     -128.32519      1464.8273      1453.612       2663.6925      0             -5710.457       0              0             -191.0792       130472.34      50.719249      50.719249      50.719249      0.86455456     228.0835       107.92146     -738.27601    
      2600   5200           299.85927      83.550314      4455.1762      4296.2796      4325.212      -28.932417      1502.5294      1470.3267      2694.9445      0             -5696.733       0              0             -191.17947      130403.91      50.71038       50.71038       50.71038       0.86500825    -158.82099      277.53276      131.93918    
      2700   5400           295.72783      80.047159      4320.599       4168.107       4265.6195     -97.512576      1505.0778      1468.3079      2647.9865      0             -5718.8847      0              0             -190.8563       130624.71      50.738986      50.738986      50.738986      0.86354604     424.74263      123.80856     -308.40971    
      2800   5600           300.57094      281.3945       4814.5173      4276.9396      4335.4773     -58.537708      1466.404       1472.5051      2695.0137      0             -5692.4604      0              0             -190.31898      130993.5       50.786691      50.786691      50.786691      0.8611149      907.89943     -184.7671       121.05115    
      2900   5800           304.99302      14.5217        4339.9796      4312.2765      4399.262      -86.985523      1483.186       1454.8781      2661.7611      0             -5686.8106      0              0             -190.58819      130808.47      50.762768      50.762768      50.762768      0.86233295     157.43017     -271.79075      157.92568    
      3000   6000           296.19185      383.43437      4888.4134      4161.3131      4272.3127     -110.99963      1435.0403      1492.7129      2693.9455      0             -5732.6983      0              0             -191.73634      130025.16      50.661238      50.661238      50.661238      0.86752789     529.05419      135.39698      485.85195    
      3100   6200           300.56568      626.00007      5457.4113      4268.7535      4335.4013     -66.647858      1483.485       1512.9932      2692.2522      0             -5755.3782      0              0             -191.48081      130198.68      50.683764      50.683764      50.683764      0.86637172     446.84985      183.19224      1247.9581    
      3200   6400           296.64681      551.11777      5152.3218      4103.6587      4278.8751     -175.21643      1466.6863      1419.0477      2683.5175      0             -5744.4679      0              0             -191.0804       130471.52      50.719143      50.719143      50.719143      0.86456001     219.85008      899.3129       534.19032    
      3300   6600           305.75621      132.25149      4454.5326      4203.9943      4410.2704     -206.27601      1443.2119      1429.0648      2677.6807      0             -5756.2334      0              0             -191.9262       129896.54      50.644528      50.644528      50.644528      0.8683869      604.61222      33.976345     -241.83409    
      3400   6800           300.26885      58.562532      4331.6594      4220.7295      4331.1198     -110.39032      1517.1483      1435.648       2676.9449      0             -5740.1314      0              0             -191.94602      129883.13      50.642785      50.642785      50.642785      0.86847657     729.69678     -297.67731     -256.33187    
      3500   7000           298.3587       487.64733      5210.9158      4289.5196      4303.5676     -14.047934      1532.152       1468.0153      2719.7419      0             -5733.9572      0              0             -192.42753      129558.13      50.600509      50.600509      50.600509      0.8706552      755.02444      479.87753      228.04002    
      3600   7200           296.05693      340.61499      4791.901       4146.4192      4270.3665     -123.94732      1445.6664      1497.1159      2705.4626      0             -5772.1922      0              0             -191.86134      129940.45      50.650234      50.650234      50.650234      0.86809345     231.08387      805.46977     -14.708677    
      3700   7400           300.90812     -195.99376      3856.9964      4228.1168      4340.3408     -112.22403      1497.1415      1452.1161      2724.3294      0             -5785.8111      0              0             -192.015        129836.47      50.63672       50.63672       50.63672       0.8687887     -211.96855     -443.32024      67.307506    
      3800   7600           307.18246      20.139219      4448.9459      4411.0559      4430.8428     -19.786917      1538.1175      1461.9142      2734.5167      0             -5754.3354      0              0             -193.25289      129004.8       50.52837       50.52837       50.52837       0.87438963     380.98484     -204.87728     -115.6899     
      3900   7800           297.82097     -95.201564      4031.6228      4210.9716      4295.8113     -84.839732      1472.9867      1460.9156      2753.0186      0             -5771.7606      0              0             -192.99828      129174.98      50.550579      50.550579      50.550579      0.87323762     146.02385     -243.66295     -187.96559    
      4000   8000           294.86397      542.2315       5152.0117      4126.3054      4253.1592     -126.85376      1482.3841      1443.3113      2715.932       0             -5768.4811      0              0             -192.20711      129706.7       50.619844      50.619844      50.619844      0.8696579      395.67764      727.94341      503.07344    
      4100   8200           306.86085      553.74263      5339.3543      4285.7507      4426.2038     -140.45307      1491.0086      1450.845       2666.3181      0             -5748.6248      0              0             -191.09022      130464.81      50.718274      50.718274      50.718274      0.86460444     477.54299      545.39674      638.28815    
      4200   8400           297.22397     -201.12685      3841.4565      4223.9261      4287.2002     -63.274089      1473.6199      1453.9925      2724.2917      0             -5715.1781      0              0             -191.19694      130391.99      50.708835      50.708835      50.708835      0.86508731     292.69851     -844.67586     -51.403208    
      4300   8600           293.68143      286.66097      4606.5468      4063.7567      4236.1021     -172.34535      1464.8217      1437.461       2673.5031      0             -5748.1312      0              0             -192.01909      129833.7       50.63636       50.63636       50.63636       0.86880721    -70.844905      404.10725      526.72057    
      4400   8800           305.10989      137.56813      4399.32        4140.1267      4400.9477     -260.82102      1436.6769      1455.6706      2620.0336      0             -5773.2021      0              0             -192.97532      129190.35      50.552584      50.552584      50.552584      0.87313375     116.13811      196.97624      99.590036    
      4500   9000           299.22705      317.53072      4763.1166      4165.8407      4316.0928     -150.25214      1477.2662      1481.7992      2691.2902      0             -5800.6077      0              0             -193.29404      128977.33      50.524784      50.524784      50.524784      0.87457581     573.5234       372.7536       6.3151588    
      4600   9200           298.25679      513.95508      5138.0194      4165.0846      4302.0976     -137.01299      1499.7548      1466.3585      2678.766       0             -5781.8924      0              0             -192.06542      129802.39      50.632289      50.632289      50.632289      0.86901681     738.68252     -207.68437      1010.8671    
      4700   9400           305.68137     -405.31735      3521.2003      4289.8247      4409.1909     -119.36617      1468.4311      1460.202       2692.1079      0             -5740.1072      0              0             -191.72941      130029.86      50.661849      50.661849      50.661849      0.86749652    -372.99655     -492.07551     -350.88       
      4800   9600           301.82943     -369.8944       3590.8052      4292.1126      4353.6299     -61.517361      1498.5683      1456.6256      2738.6301      0             -5755.3413      0              0             -191.76842      130003.42      50.658414      50.658414      50.658414      0.86767301    -226.40164     -81.479103     -801.80245    
      4900   9800           300.12108     -73.83391       4032.9519      4172.2794      4328.9884     -156.70898      1463.8067      1477.4944      2692.5447      0             -5790.5548      0              0             -192.67562      129391.3       50.578781      50.578781      50.578781      0.87177773    -63.263803     -471.25409      313.01617    
      5000   10000          296.22169      618.22889      5198.837       4035.3682      4272.7431     -237.37487      1449.7157      1429.1069      2653.6263      0             -5769.8238      0              0             -193.19785      129041.55      50.533167      50.533167      50.533167      0.87414061     338.59465      355.44093      1160.6511    
      5100   10200          292.96479      486.95999      4975.4249      4057.4413      4225.765      -168.32369      1458.0089      1467.4021      2695.8222      0             -5789.5568      0              0             -192.87065      129260.46      50.561727      50.561727      50.561727      0.87266015     823.56404      764.04962     -126.73367    
      5200   10400          296.19085     -622.39884      3057.4426      4242.1124      4272.2982     -30.185801      1497.2893      1455.3231      2770.7899      0             -5753.5881      0              0             -191.02015      130512.67      50.724474      50.724474      50.724474      0.86428742    -922.79769     -630.07706     -314.32178    
      5300   10600          304.30602      55.742396      4441.301       4335.2494      4389.3525     -54.103146      1496.6148      1471.6232      2693.8231      0             -5716.1643      0              0             -191.10675      130453.53      50.716812      50.716812      50.716812      0.86467922     64.70625      -289.70772      392.22866    
      5400   10800          296.79408      94.276428      4335.6842      4156.8942      4280.9993     -124.10518      1462.6292      1490.1949      2692.494       0             -5769.4232      0              0             -191.72003      130036.23      50.662675      50.662675      50.662675      0.86745407     241.0442      -66.219496      108.00458    
      5500   11000          302.21945      576.86471      5264.2589      4176.1726      4359.2556     -183.08299      1432.2225      1463.0148      2688.0059      0             -5766.3262      0              0             -192.76066      129334.22      50.571342      50.571342      50.571342      0.8721625      1095.2676     -332.15836      967.48493    
      5600   11200          310.6935       411.79302      5103.712       4324.7643      4481.4864     -156.7221       1461.391       1432.5252      2693.9909      0             -5744.6292      0              0             -192.21109      129704.01      50.619494      50.619494      50.619494      0.86967594     647.56623      297.50435      290.30849    
      5700   11400          300.79601      247.43107      4613.4995      4142.5475      4338.7236     -196.17618      1429.2492      1457.8782      2662.8678      0             -5746.1713      0              0             -191.02283      130510.84      50.724238      50.724238      50.724238      0.86429951     416.86777      449.91896     -124.49353    
      5800   11600          297.14045      220.00799      4608.6554      4190.3352      4285.9953     -95.660139      1486.7082      1440.1995      2703.5555      0             -5726.1234      0              0             -191.22178      130375.05      50.70664       50.70664       50.70664       0.86519968     705.41789     -467.24834      421.85443    
      5900   11800          303.57451      411.00653      5026.9037      4251.4206      4378.8011     -127.38051      1485.8952      1424.0562      2740.101       0             -5777.4329      0              0             -192.70107      129374.21      50.576554      50.576554      50.576554      0.87189289     312.81003      882.14958      38.05998     
      6000   12000          302.5154       606.34006      5259.7509      4119.0403      4363.5245     -244.48422      1402.7952      1425.8223      2703.1985      0             -5776.3002      0              0             -193.26292      128998.1       50.527496      50.527496      50.527496      0.874435       507.32232      1033.4812      278.21662    
      6100   12200          300.09985     -7.2886675      4234.9941      4248.7619      4328.6821     -79.920268      1496.5365      1450.9164      2739.4808      0             -5766.854       0              0             -192.48338      129520.53      50.595614      50.595614      50.595614      0.8709079      36.437645     -330.87052      272.56687    
      6200   12400          301.87536      480.9912       5080.8718      4176.1299      4354.2924     -178.16245      1436.2914      1481.0372      2724.5184      0             -5820.0094      0              0             -193.2948       128976.82      50.524717      50.524717      50.524717      0.87457926     458.59644      757.58108      226.79608    
      6300   12600          302.24121     -384.91919      3453.8612      4178.4855      4359.5695     -181.08402      1490.1363      1437.4516      2682.8442      0             -5791.5162      0              0             -193.13653      129082.52      50.538515      50.538515      50.538515      0.87386314     256.75607     -475.67139     -935.84227    
      6400   12800          296.98313     -190.96428      3752.4999      4113.1814      4283.7261     -170.54473      1466.0735      1415.7748      2720.1229      0             -5772.516       0              0             -192.50235      129507.77      50.593952      50.593952      50.593952      0.87099374    -449.64098     -189.45651      66.204652    
      6500   13000          305.53998      314.08485      4843.5552      4249.4696      4407.1514     -157.68186      1474.3974      1440.4729      2699.2246      0             -5771.7768      0              0             -192.22313      129695.89      50.618438      50.618438      50.618438      0.86973039     555.70796      366.893        19.653583    
      6600   13200          297.08483     -79.19739       4008.2289      4157.2568      4285.1931     -127.93634      1444.8821      1483.1517      2739.0059      0             -5794.9761      0              0             -193.21951      129027.08      50.531279      50.531279      50.531279      0.87423859    -63.082578     -239.59073      65.081139    
      6700   13400          301.30579      411.63303      4910.9714      4139.7322      4346.0768     -206.34466      1475.85        1403.1921      2720.7732      0             -5806.1599      0              0             -194.05678      128470.39      50.458501      50.458501      50.458501      0.87802691     214.08326      539.35213      481.4637     
      6800   13600          301.79503      617.46859      5367.1316      4208.0522      4353.1337     -145.08154      1481.8803      1464.656       2719.967       0             -5811.5848      0              0             -193.69099      128713         50.490245      50.490245      50.490245      0.87637187     498.66123      699.25631      654.48822    
      6900   13800          293.36702      106.8889       4241.422       4039.9728      4231.5669     -191.59416      1442.7233      1451.1293      2678.5287      0             -5763.9755      0              0             -192.9189       129228.14      50.557512      50.557512      50.557512      0.87287844     176.8013      -98.181534      242.04692    
      7000   14000          302.62102      501.04062      5137.9412      4193.9098      4365.048      -171.13815      1462.321       1453.416       2693.2635      0             -5780.1387      0              0             -192.97198      129192.59      50.552876      50.552876      50.552876      0.87311863     523.59607      244.53661      734.98917    
      7100   14200          303.8472       203.26692      4596.5177      4211.5275      4382.7345     -171.20709      1433.3988      1440.4326      2743.8879      0             -5788.9264      0              0             -191.96616      129869.5       50.641013      50.641013      50.641013      0.86856773     590.01582     -131.0236       150.80856    
      7200   14400          302.40982     -158.17046      4072.5477      4374.0877      4362.0015      12.086176      1534.5953      1455.5737      2748.7821      0             -5726.8649      0              0             -190.71651      130720.46      50.75138       50.75138       50.75138       0.86291355    -66.636681     -229.33132     -178.54337    
      7300   14600          297.47482      769.2895       5723.0281      4265.9788      4290.8185     -24.839681      1529.1181      1482.2279      2727.7908      0             -5763.9765      0              0             -191.96555      129869.91      50.641067      50.641067      50.641067      0.86856496     786.51055      742.55487      778.80307    
      7400   14800          298.46577      613.63636      5337.0444      4180.9732      4305.1121     -124.13884      1502.6963      1434.6331      2715.2286      0             -5776.6968      0              0             -192.98975      129180.69      50.551324      50.551324      50.551324      0.87319904     1212.5069      351.41944      276.98271    
      7500   15000          297.85949      464.04122      5037.4264      4163.5698      4296.3669     -132.79712      1481.5256      1473.5577      2709.4324      0             -5797.3128      0              0             -193.07413      129124.23      50.543958      50.543958      50.543958      0.87358084     539.74797      58.037256      794.33842    
      7600   15200          302.61324      569.15123      5289.5511      4212.6816      4364.9357     -152.25413      1520.1199      1412.1342      2686.5712      0             -5771.0795      0              0             -192.16414      129735.7       50.623616      50.623616      50.623616      0.86946351    -0.54213811     507.06854      1200.9273    
      7700   15400          298.44633      561.01846      5192.6936      4133.2971      4304.8316     -171.53456      1470.2548      1414.6143      2716.2233      0             -5772.627       0              0             -192.54238      129480.84      50.590445      50.590445      50.590445      0.87117488     731.97412      697.05401      254.02724    
      7800   15600          295.32745      757.25139      5480.7694      4062.5326      4259.8445     -197.31187      1439.1152      1454.0311      2712.7573      0             -5803.2154      0              0             -194.13287      128420.03      50.451907      50.451907      50.451907      0.87837119     978.8767       972.40413      320.47334    
      7900   15800          307.18844     -11.989941      4228.3625      4250.9193      4430.9291     -180.00976      1440.4385      1441.5816      2710.9856      0             -5773.0154      0              0             -193.26216      128998.61      50.527562      50.527562      50.527562      0.87443158    -62.259733     -118.97879      145.2687     
      8000   16000          299.12764      1067.1872      6154.4445      4141.6983      4314.6589     -172.96065      1475.7308      1423.5789      2695.6466      0             -5767.917       0              0             -192.77883      129322.03      50.569753      50.569753      50.569753      0.87224472     383.55905      1206.3948      1611.6079    
      8100   16200          301.96539      47.486135      4240.0369      4149.8292      4355.5909     -205.7617       1428.5265      1415.1676      2691.8368      0             -5741.2926      0              0             -191.3952       130256.92      50.69132       50.69132       50.69132       0.86598437     235.04049     -64.299337     -28.282749    
      8200   16400          301.35056      161.17087      4513.8369      4209.4297      4346.7226     -137.29289      1487.9252      1457.8378      2678.8196      0             -5761.8755      0              0             -192.50383      129506.77      50.593822      50.593822      50.593822      0.87100046     666.29278     -103.23312     -79.547043    
      8300   16600          291.55715      261.3383       4585.3564      4092.8127      4205.4611     -112.64844      1497.6572      1456.9499      2694.9776      0             -5762.2332      0              0             -192.91499      129230.76      50.557854      50.557854      50.557854      0.87286076     185.72075      348.08572      250.20845    
      8400   16800          298.78228      911.29604      5822.6368      4104.6946      4309.6774     -204.98274      1443.8534      1419.9908      2706.6626      0             -5775.4896      0              0             -192.86733      129262.69      50.562017      50.562017      50.562017      0.87264514     966.45385      944.45051      822.98376    
      8500   17000          301.87567      829.70422      5805.531       4233.2714      4354.2969     -121.0255       1464.3065      1474.0267      2700.3344      0             -5759.6931      0              0             -191.86987      129934.67      50.649483      50.649483      50.649483      0.86813206     1037.9167      480.35216      970.84376    
      8600   17200          292.40006      320.88412      4728.0365      4119.4615      4217.6194     -98.157925      1496.6261      1480.5668      2684.573       0             -5759.9239      0              0             -191.70873      130043.89      50.663671      50.663671      50.663671      0.86740293     6.7764929      642.89165      312.98423    
      8700   17400          296.62529      593.92106      5192.2899      4073.6483      4278.5646     -204.9163       1449.7195      1479.5869      2631.02        0             -5765.2427      0              0             -193.0392       129147.6       50.547007      50.547007      50.547007      0.87342278     441.2088       270.30628      1070.2481    
      8800   17600          303.39385      114.69875      4369.968       4153.1125      4376.1953     -223.0828       1491.9491      1395.2486      2658.2671      0             -5768.5476      0              0             -192.30733      129639.1       50.611049      50.611049      50.611049      0.87011136     106.53018     -533.92757      771.49363    
      8900   17800          305.05114      790.99972      5681.4692      4186.6269      4400.1004     -213.47346      1491.9662      1434.4167      2668.2227      0             -5808.0791      0              0             -192.39275      129581.54      50.603557      50.603557      50.603557      0.87049786    -44.611228      888.43231      1529.1781    
      9000   18000          296.48496      601.3556       5232.6637      4098.9709      4276.5406     -177.56969      1451.9012      1482.0996      2657.6989      0             -5769.2694      0              0             -192.86068      129267.14      50.562598      50.562598      50.562598      0.87261505     397.95742      464.40357      941.7058     
      9100   18200          293.03078      391.38655      4820.2522      4078.1885      4226.7169     -148.52842      1491.0649      1463.324       2675.0546      0             -5777.9719      0              0             -191.76636      130004.81      50.658595      50.658595      50.658595      0.86766371    -310.2841       414.65811      1069.7856    
      9200   18400          303.30077      467.62953      5120.5976      4232.3829      4374.8527     -142.46984      1490.1579      1435.8311      2654.9127      0             -5723.3717      0              0             -191.42192      130238.74      50.688961      50.688961      50.688961      0.86610526     776.09985      27.239524      599.54921    
      9300   18600          300.06797      572.83837      5256.2845      4168.6599      4328.2224     -159.56243      1444.0897      1460.5859      2697.2148      0             -5761.4528      0              0             -191.49649      130188.02      50.682381      50.682381      50.682381      0.86644266     715.92498      956.79792      45.79219     
      9400   18800          298.40498      864.19162      5655.696       4016.7325      4304.2352     -287.50269      1437.3969      1425.5397      2622.6869      0             -5773.1262      0              0             -191.71165      130041.91      50.663413      50.663413      50.663413      0.86741617     675.97867      922.9044       993.69179    
      9500   19000          300.52163      355.38463      4785.8808      4113.0789      4334.766      -221.68709      1426.086       1448.5106      2673.6593      0             -5769.943       0              0             -192.05213      129811.36      50.633456      50.633456      50.633456      0.8689567     -117.58695      585.52434      598.2165     
      9600   19200          305.50579      667.02781      5482.2481      4219.377       4406.6583     -187.28128      1457.706       1442.1497      2689.8804      0             -5777.0174      0              0             -192.04043      129819.28      50.634485      50.634485      50.634485      0.86890373     999.45099      716.66084      284.97161    
      9700   19400          298.49288      234.48827      4555.1494      4109.763       4305.503      -195.74004      1438.0813      1487.9899      2634.7678      0             -5756.579       0              0             -191.42203      130238.66      50.688952      50.688952      50.688952      0.86610575     608.36983      11.196683      83.898293    
      9800   19600          299.44171      449.69869      4884.4462      4030.8213      4319.1891     -288.36772      1420.1769      1419.5465      2610.3861      0             -5738.4772      0              0             -191.54126      130157.6       50.678433      50.678433      50.678433      0.86664519     131.5374       597.03112      620.52756    
      9900   19800          301.16118      391.4501       4941.484       4201.1335      4343.991      -142.85755      1458.4663      1447.2864      2702.6495      0             -5751.2597      0              0             -192.24134      129683.6       50.616839      50.616839      50.616839      0.86981278     294.92298      430.97975      448.44756    
     10000   20000          299.38891     -364.16779      3448.0261      4139.9121      4318.4275     -178.51538      1451.7443      1449.3761      2674.7399      0             -5754.3757      0              0             -191.37039      130273.81      50.693511      50.693511      50.693511      0.8658721     -213.96669     -331.84677     -546.68991    
     10100   20200          299.71587      46.593848      4177.2245      4088.5749      4323.1436     -234.56872      1471.2275      1400.0431      2646.1591      0             -5751.9984      0              0             -191.09935      130458.58      50.717466      50.717466      50.717466      0.86464575     165.76119     -189.63602      163.65638    
     10200   20400          300.24481      258.00719      4752.1527      4264.3304      4330.7731     -66.44275       1489.0741      1508.7462      2687.2609      0             -5751.524       0              0             -192.29937      129644.47      50.611747      50.611747      50.611747      0.87007534     27.274453      225.63384      521.11327    
     10300   20600          300.31679      939.30456      5892.9535      4123.4286      4331.8114     -208.38279      1439.9215      1460.8642      2651.1264      0             -5760.2949      0              0             -193.00008      129173.78      50.550422      50.550422      50.550422      0.87324578     250.33051      1441.5042      1126.0789    
     10400   20800          297.39861      667.69507      5340.8866      4081.7835      4289.7191     -207.93553      1476.2298      1426.236       2681.7953      0             -5792.1966      0              0             -192.80782      129302.58      50.567219      50.567219      50.567219      0.87237588     884.5594       703.41722      415.10858    
     10500   21000          301.59165      291.62601      4788.9431      4238.9514      4350.2001     -111.24872      1499.7614      1498.5047      2676.3471      0             -5785.8619      0              0             -192.78705      129316.52      50.569035      50.569035      50.569035      0.8722819     -248.96723      751.92694      371.91833    
     10600   21200          296.45043      795.4051       5593.2855      4094.629       4276.0424     -181.41345      1442.0166      1503.9627      2639.002       0             -5766.3947      0              0             -192.97186      129192.67      50.552886      50.552886      50.552886      0.8731181      284.75653      1505.9942      595.46455    
     10700   21400          297.24247      222.07036      4524.4985      4101.8294      4287.4669     -185.63751      1475.6738      1438.7705      2656.4051      0             -5756.4869      0              0             -191.02835      130507.07      50.723749      50.723749      50.723749      0.8643245     -330.80292      504.264        492.75001    
     10800   21600          300.12947      189.07011      4613.4588      4253.0262      4329.1094     -76.083149      1495.9531      1493.1402      2659.3629      0             -5724.5394      0              0             -190.72456      130714.94      50.750665      50.750665      50.750665      0.86294999     704.55751     -90.622159     -46.725035    
     10900   21800          299.56         38.355756      4296.8223      4224.2644      4320.8953     -96.630908      1503.8469      1436.4445      2694.8005      0             -5731.7228      0              0             -192.20009      129711.44      50.62046       50.62046       50.62046       0.86962613     295.90096     -151.481       -29.352693    
     11000   22000          296.62554     -265.52487      3574.8297      4074.4616      4278.5683     -204.10669      1450.2409      1459.3051      2666.0822      0             -5779.7349      0              0             -193.22475      129023.58      50.530822      50.530822      50.530822      0.87426232    -792.00891      30.540989     -35.106675    
     11100   22200          304.46724      929.149        5908.1986      4163.5727      4391.678      -228.10526      1428.3006      1440.1098      2679.862       0             -5776.3777      0              0             -193.63809      128748.17      50.494842      50.494842      50.494842      0.87613251     680.80533      1156.0811      950.56061    
     11200   22400          298.49219      689.53217      5437.4137      4135.333       4305.4931     -170.16013      1487.2306      1424.8029      2681.2523      0             -5763.446       0              0             -192.5415       129481.43      50.590522      50.590522      50.590522      0.8711709      1162.6326      644.87589      261.08798    
     11300   22600          299.82027      405.27537      4877.9477      4113.4991      4324.6495     -211.15039      1479.7989      1426.0703      2669.2337      0             -5786.2532      0              0             -192.75679      129336.82      50.571681      50.571681      50.571681      0.87214499     291.34823      578.88205      345.59584    
     11400   22800          302.16275      714.85374      5583.0118      4235.6712      4358.4378     -122.76661      1492.0818      1459.9068      2725.2974      0             -5800.0525      0              0             -192.9068       129236.24      50.558569      50.558569      50.558569      0.87282371     677.85967      1220.7293      245.97226    
     11500   23000          300.54076      498.527        5061.8339      4123.2164      4335.042      -211.82558      1454.7681      1488.5102      2646.9804      0             -5802.0843      0              0             -193.11134      129099.36      50.540712      50.540712      50.540712      0.87374917     469.7721       278.21141      747.59748    
     11600   23200          300.15371      381.09928      4857.4428      4138.1611      4329.459      -191.29794      1450.3543      1493.0573      2651.7015      0             -5786.4111      0              0             -192.64017      129415.11      50.581883      50.581883      50.581883      0.87161735     493.2426      -294.71276      944.76799    
     11700   23400          305.15625      45.327671      4218.7479      4133.0672      4401.6165     -268.54932      1407.9691      1439.4849      2648.1309      0             -5764.1342      0              0             -192.34809      129611.63      50.607474      50.607474      50.607474      0.87029577    -177.85399      52.121333      261.71567    
     11800   23600          302.20647      499.68797      5170.9488      4226.9452      4359.0684     -132.1232       1481.273       1461.0168      2687.551       0             -5761.9641      0              0             -192.45667      129538.5       50.597955      50.597955      50.597955      0.87078707     687.48637      384.49142      427.08612    
     11900   23800          298.30055      756.33869      5561.3381      4136.4297      4302.7288     -166.29916      1483.4801      1464.1476      2666.643       0             -5780.5698      0              0             -192.99102      129179.84      50.551213      50.551213      50.551213      0.87320478     928.86233      609.88877      730.26496    
     12000   24000          295.95465      669.98105      5310.0498      4048.7436      4268.8913     -220.14775      1436.3578      1471.1559      2658.4575      0             -5786.119       0              0             -193.13         129086.88      50.539085      50.539085      50.539085      0.87383359     547.80764      538.58333      923.55218    
     12100   24200          306.71679      78.692508      4337.0089      4188.074       4424.1258     -236.05184      1439.7022      1444.0298      2654.9763      0             -5774.7602      0              0             -192.10754      129773.93      50.628588      50.628588      50.628588      0.86920738     396.65918      591.47063     -752.05228    
     12200   24400          304.83891      776.34172      5867.1831      4400.1494      4397.0391      3.1103311      1516.6295      1550.5348      2709.0819      0             -5773.1359      0              0             -192.40688      129572.03      50.602319      50.602319      50.602319      0.87056177     524.68012      1218.2291      586.11597    
     12300   24600          302.82206      880.38748      5893.3171      4220.922       4367.9478     -147.02577      1484.2015      1470.9553      2658.514       0             -5760.6966      0              0             -191.40034      130253.42      50.690866      50.690866      50.690866      0.86600762     1268.427       709.91387      662.82156    
     12400   24800          300.1734       421.51929      4944.5984      4145.5289      4329.7431     -184.21424      1474.5501      1435.2255      2624.1765      0             -5718.1663      0              0             -191.79648      129984.4       50.655944      50.655944      50.655944      0.86779996     696.78955      518.19676      49.571551    
     12500   25000          301.70932      563.38921      5092.9827      4033.927       4351.8974     -317.97039      1405.997       1442.5639      2606.6219      0             -5773.1532      0              0             -193.41827      128894.49      50.513964      50.513964      50.513964      0.8751379      220.2985       979.31533      490.5538     
     12600   25200          299.98691      15.253012      4187.5655      4158.8224      4327.0531     -168.23073      1478.0208      1455.4685      2672.5546      0             -5774.2746      0              0             -192.94308      129211.94      50.555399      50.555399      50.555399      0.87298788     578.53859     -569.82169      37.04214     
     12700   25400          301.21386      562.51059      5226.1075      4162.0938      4344.7508     -182.65699      1431.961       1467.0306      2684.8121      0             -5766.4607      0              0             -192.21674      129700.2       50.618998      50.618998      50.618998      0.8697015      867.57828      636.03908      183.9144     
     12800   25600          298.1658      -41.623942      3986.4142      4065.5126      4300.7852     -235.27263      1410.8003      1452.882       2661.8736      0             -5760.8284      0              0             -191.33009      130301.25      50.69707       50.69707       50.69707       0.86568975     175.68074     -202.00411     -98.548458    
     12900   25800          301.91983      191.51282      4542.4277      4179.951       4354.9338     -174.98285      1481.7901      1461.9247      2637.8008      0             -5756.4984      0              0             -192.09918      129779.57      50.629322      50.629322      50.629322      0.86916959    -183.70795      225.98635      532.26007    
     13000   26000          296.68334      380.0358       4878.3819      4162.7233      4279.4019     -116.67868      1474.3332      1503.7767      2688.3946      0             -5783.1831      0              0             -193.07514      129123.56      50.543871      50.543871      50.543871      0.87358539     817.29841      89.271164      233.53783    
     13100   26200          301.49777      374.02517      4746.422       4041.6133      4348.846      -307.23265      1431.7961      1426.7081      2624.6165      0             -5790.3533      0              0             -192.94669      129209.52      50.555085      50.555085      50.555085      0.8730042      119.07767      512.46647      490.53136    
     13200   26400          300.13664      30.799818      4194.5987      4136.2069      4329.2129     -193.00605      1463.4489      1440.2972      2657.9292      0             -5754.6814      0              0             -191.78036      129995.32      50.657362      50.657362      50.657362      0.86772704    -670.01856      596.17013      166.24789    
     13300   26600          303.19764     -417.66768      3415.8571      4208.5251      4373.3652     -164.84004      1453.3299      1430.4755      2706.7123      0             -5755.3578      0              0             -191.57871      130132.15      50.67513       50.67513       50.67513       0.86681464    -92.920769     -111.2251      -1048.8572    
     13400   26800          296.97788     -238.92128      3624.1538      4074.7304      4283.6504     -208.92009      1461.3027      1436.4376      2650.2912      0             -5756.9516      0              0             -192.79419      129311.73      50.56841       50.56841       50.56841       0.87231421     79.31026      -357.74251     -438.33159    
     13500   27000          302.98872     -284.86363      3602.5655      4140.769       4370.3517     -229.58265      1469.6106      1443.2255      2637.3803      0             -5779.7991      0              0             -192.44126      129548.88      50.599305      50.599305      50.599305      0.87071734    -687.96154     -211.07312      44.443767    
     13600   27200          306.23613     -153.21286      3924.2848      4215.0513      4417.1927     -202.14142      1438.868       1421.8515      2690.8189      0             -5753.6798      0              0             -191.58376      130128.72      50.674685      50.674685      50.674685      0.86683749    -378.29671      87.956692     -169.29856    
     13700   27400          301.24936      432.81513      4972.1206      4152.9356      4345.2629     -192.32726      1461.7103      1416.7758      2672.3959      0             -5743.2093      0              0             -192.10037      129778.77      50.629217      50.629217      50.629217      0.86917497     737.02172      165.24097      396.1827     
     13800   27600          305.05456      684.36265      5571.0004      4283.1885      4400.1496     -116.9611       1468.6841      1481.0342      2688.0131      0             -5754.6925      0              0             -193.21534      129029.87      50.531643      50.531643      50.531643      0.87421974     828.87121      587.48396      636.73279    
     13900   27800          301.60962     -42.667889      4173.2036      4254.0758      4350.4593     -96.38351       1494.9788      1458.9174      2698.9418      0             -5749.2215      0              0             -191.82704      129963.68      50.653253      50.653253      50.653253      0.86793827    -300.66258      423.48203     -250.82312    
     14000   28000          300.55187      3.2775901      4176.6105      4170.385       4335.2023     -164.81729      1445.6542      1435.7258      2668.014       0             -5714.2112      0              0             -191.42085      130239.47      50.689056      50.689056      50.689056      0.86610039     230.00261     -258.90878      38.738941    
     14100   28200          299.29956      547.7585       5284.8645      4249.7478      4317.1387     -67.390917      1482.4575      1455.8079      2728.071       0             -5733.7272      0              0             -192.40111      129575.91      50.602825      50.602825      50.602825      0.87053568     882.13202      198.51111      562.63237    
     14200   28400          298.38725      524.51176      5295.3713      4304.9923      4303.9794      1.0128844      1471.9842      1536.0068      2738.1774      0             -5745.1555      0              0             -192.55799      129470.34      50.589078      50.589078      50.589078      0.87124551     902.88577      1184.5016     -513.85214    
     14300   28600          296.85939      594.76164      5279.22        4151.2924      4281.9414     -130.64903      1481.2978      1435.9283      2705.0139      0             -5752.889       0              0             -191.72089      130035.65      50.6626        50.6626        50.6626        0.86745795     659.21798      629.8716       495.19532    
     14400   28800          302.22134      1009.5666      6058.7904      4155.365       4359.2829     -203.91795      1463.667       1406.488       2716.1924      0             -5790.2654      0              0             -192.84433      129278.11      50.564028      50.564028      50.564028      0.87254106     543.08033      862.15814      1623.4615    
     14500   29000          304.40993      309.18029      4882.562       4300.2876      4390.8514     -90.563843      1509.6428      1500.1075      2681.9653      0             -5782.2794      0              0             -193.05981      129133.81      50.545208      50.545208      50.545208      0.87351603     560.80426      182.86679      183.86981    
     14600   29200          299.58494      124.35161      4378.8205      4143.8572      4321.255      -177.39781      1468.3788      1456.8267      2649.9565      0             -5752.5598      0              0             -192.42398      129560.51      50.60082       50.60082       50.60082       0.87063915     512.37333      516.08392     -655.40243    
     14700   29400          298.55422     -261.91299      3665.8918      4160.7606      4306.3878     -145.62719      1473.3493      1441.667       2696.7011      0             -5757.3445      0              0             -192.43088      129555.87      50.600215      50.600215      50.600215      0.87067038     56.728206     -666.71086     -175.75631    
     14800   29600          295.42801      469.54365      4981.3833      4097.8459      4261.2949     -163.44905      1463.8061      1483.909       2671.2702      0             -5782.4343      0              0             -193.22298      129024.77      50.530977      50.530977      50.530977      0.8742543     -169.11609      949.35697      628.39006    
     14900   29800          296.96342      306.91745      4654.3059      4074.0477      4283.4418     -209.39419      1463.0403      1412.6567      2670.5625      0             -5755.6536      0              0             -192.31271      129635.48      50.610577      50.610577      50.610577      0.8701357      548.84421      292.25462      79.653507    
     15000   30000          300.42182      111.07074      4388.2936      4178.0706      4333.3263     -155.25578      1465.2898      1452.5105      2678.7843      0             -5751.8404      0              0             -192.09994      129779.06      50.629256      50.629256      50.629256      0.86917299     688.51256     -517.29977      161.99943    
     15100   30200          298.30556     -34.300218      4034.9236      4099.717       4302.8012     -203.08415      1439.5171      1481.5189      2665.5859      0             -5789.706       0              0             -192.4748       129526.3       50.596366      50.596366      50.596366      0.87086909    -120.62065      97.788807     -80.068807    
     15200   30400          297.61654      256.43603      4594.4959      4108.5028      4292.8625     -184.35979      1473.6725      1419.5666      2686.2807      0             -5763.8796      0              0             -191.8477       129949.69      50.651435      50.651435      50.651435      0.86803173     330.49687      169.62933      269.18189    
     15300   30600          300.62153      95.054489      4409.2992      4229.2653      4336.2071     -106.94178      1476.7299      1490.9946      2689.7649      0             -5764.4312      0              0             -191.96676      129869.1       50.640961      50.640961      50.640961      0.86857041    -194.68918      585.42649     -105.57384    
     15400   30800          296.99185     -260.70104      3623.5101      4116.2581      4283.852      -167.59384      1474.5784      1398.1363      2730.5447      0             -5770.8532      0              0             -192.36479      129600.38      50.606009      50.606009      50.606009      0.87037136    -162.87931     -431.91033     -187.31348    
     15500   31000          301.51842      37.322819      4225.8527      4155.4831      4349.1438     -193.6607       1494.7125      1455.3665      2618.8385      0             -5762.5782      0              0             -192.84004      129280.98      50.564402      50.564402      50.564402      0.87252167    -96.020361     -536.15533      744.14415    
     15600   31200          300.60357      281.39811      4690.5635      4159.962       4335.9479     -175.98587      1445.5229      1448.4227      2678.1988      0             -5748.1302      0              0             -192.82373      129291.92      50.565828      50.565828      50.565828      0.87244785     274.52298      529.91682      39.754521    
     15700   31400          297.00624      276.78656      4547.4726      4025.8371      4284.0596     -258.22247      1407.9498      1428.3472      2709.0469      0             -5803.5664      0              0             -192.92372      129224.91      50.557091      50.557091      50.557091      0.87290026    -186.19394      422.51169      594.04192    
     15800   31600          300.76683     -53.559691      4035.7279      4136.824       4338.3028     -201.47888      1475.0611      1407.3423      2700.5283      0             -5784.4106      0              0             -192.62445      129425.68      50.58326       50.58326       50.58326       0.87154618     120.58031     -295.04787      13.788497    
     15900   31800          296.01964      362.81217      4853.4585      4171.7013      4269.8287     -98.127451      1515.5717      1462.5578      2723.9035      0             -5800.1604      0              0             -193.49059      128846.32      50.50767       50.50767       50.50767       0.87546511     684.27178     -142.81948      546.98422    
     16000   32000          302.75155      13.264224      4145.7977      4120.8457      4366.9306     -246.08496      1434.2296      1478.267       2617.5656      0             -5776.1472      0              0             -193.27884      128987.47      50.526108      50.526108      50.526108      0.87450706     8.5800526     -427.44728      458.6599     
     16100   32200          297.99477      177.18401      4340.9916      4006.8725      4298.3183     -291.44579      1469.061       1407.7625      2609.1874      0             -5777.4566      0              0             -192.81063      129300.7       50.566973      50.566973      50.566973      0.87238857     65.000555      225.46606      241.08541    
     16200   32400          306.34814      234.61807      4621.2525      4179.4165      4418.8083     -239.39187      1465.0581      1432.3743      2665.2544      0             -5802.0787      0              0             -193.06699      129129.01      50.544582      50.544582      50.544582      0.87354853     713.47742      79.552421     -89.175631    
     16300   32600          296.07334     -199.98614      3719.154       4094.3102      4270.6032     -176.29302      1465.9235      1469.4778      2674.7992      0             -5786.4934      0              0             -193.81861      128628.25      50.47916       50.47916       50.47916       0.87694929    -553.31742      18.936197     -65.577182    
     16400   32800          300.24485      203.20904      4577.285       4195.627       4330.7737     -135.14665      1504.98        1434.794       2697.9344      0             -5772.8549      0              0             -193.58712      128782.07      50.499274      50.499274      50.499274      0.87590187     361.98317      235.62202      12.021941    
     16500   33000          299.13423      304.97917      4750.8715      4176.6515      4314.754      -138.10246      1482.5561      1505.9994      2692.4362      0             -5819.0941      0              0             -193.10773      129101.77      50.541027      50.541027      50.541027      0.87373283     164.13948      591.03297      159.76504    
     16600   33200          296.39599      210.64398      4496.4848      4100.4407      4275.2572     -174.81651      1479.5289      1464.4214      2664.7603      0             -5783.5271      0              0             -193.38077      128919.49      50.517229      50.517229      50.517229      0.87496822     440.39098      410.1865      -218.64554    
     16700   33400          301.20903     -38.727125      4058.4715      4131.3539      4344.6812     -213.32732      1500.0479      1411.42        2658.1943      0             -5782.9895      0              0             -193.19714      129042.02      50.533229      50.533229      50.533229      0.87413739     168.6547       34.423211     -319.25928    
     16800   33600          300.73614     -202.15117      3764.5908      4145.282       4337.8602     -192.5782       1445.4456      1449.2944      2702.8467      0             -5790.165       0              0             -193.06839      129128.07      50.54446       50.54446       50.54446       0.87355485    -214.53962      43.068157     -434.98205    
     16900   33800          299.80872      28.590355      4262.4287      4208.6585      4324.483      -115.82444      1468.1556      1503.4126      2702.8415      0             -5790.2341      0              0             -193.32418      128957.22      50.522158      50.522158      50.522158      0.87471221    -120.51166      507.37255     -301.08983    
     17000   34000          298.43913      510.72894      4989.5934      4036.3256      4304.7277     -268.40208      1426.4241      1458.8985      2695.6293      0             -5849.354       0              0             -194.79745      127981.91      50.394467      50.394467      50.394467      0.88137814     716.14508     -162.432        978.47375    
     17100   34200          299.90097     -125.12147      3812.6317      4046.9985      4325.8135     -278.81503      1449.4417      1479.0977      2637.9012      0             -5845.2557      0              0             -194.10805      128436.45      50.454058      50.454058      50.454058      0.87825887    -499.97615      177.24321     -52.63147     
     17200   34400          297.519        758.76458      5530.171       4104.1176      4291.4557     -187.33807      1436.3602      1464.0485      2700.6672      0             -5788.414       0              0             -193.45457      128870.3       50.510804      50.510804      50.510804      0.87530217     441.05952      972.52615      862.70807    
     17300   34600          301.64679     -281.23768      3615.0069      4149.2981      4350.9955     -201.69738      1450.6663      1458.9782      2653.1497      0             -5764.4916      0              0             -191.38294      130265.26      50.692402      50.692402      50.692402      0.8659289     -249.88398     -333.38106     -260.44799    
     17400   34800          297.66699      26.2004        4221.3286      4171.8993      4293.5903     -121.69106      1472.3236      1518.7293      2673.7399      0             -5786.4838      0              0             -192.72183      129360.27      50.574738      50.574738      50.574738      0.87198683     76.481801      2.0280892      0.091309493  
     17500   35000          299.87616      680.49417      5556.8488      4283.1556      4325.4557     -42.300056      1506.583       1475.9217      2770.9635      0             -5795.7682      0              0             -194.25282      128340.74      50.441521      50.441521      50.441521      0.87891389     576.14301      970.80361      494.53588    
     17600   35200          300.704        415.31873      4868.2152      4088.5612      4337.3965     -248.83538      1473.3883      1419.9848      2663.0693      0             -5805.2778      0              0             -193.68114      128719.55      50.491101      50.491101      50.491101      0.87632729    -52.06855       1127.7575      170.26724    
     17700   35400          299.60927     -188.24671      3699.6331      4054.149       4321.6061     -267.45704      1426.9903      1407.3507      2706.0108      0             -5807.8089      0              0             -193.06316      129131.58      50.544916      50.544916      50.544916      0.87353117     29.132258     -119.19042     -474.68195    
     17800   35600          302.11004      91.831544      4419.9304      4246.8466      4357.6774     -110.83089      1457.3802      1493.0571      2723.1436      0             -5784.4118      0              0             -192.90485      129237.54      50.558739      50.558739      50.558739      0.87281492     25.177883     -150.93314      401.24988    
     17900   35800          306.9491       611.27852      5316.8799      4167.0656      4427.4767     -260.41119      1417.0209      1467.7086      2635.4555      0             -5780.5963      0              0             -193.29434      128977.13      50.524757      50.524757      50.524757      0.8745772      143.21647      1196.0999      494.51919    
     18000   36000          298.00875      397.74377      4873.395       4127.8699      4298.5199     -170.65001      1459.0529      1498.0819      2671.8313      0             -5799.6161      0              0             -193.97638      128523.63      50.465471      50.465471      50.465471      0.87766314    -360.95856      773.70843      780.48143    
     18100   36200          298.19925      260.84535      4594.9456      4105.5274      4301.2677     -195.74024      1449.5745      1452.281       2702.7722      0             -5800.368       0              0             -193.7808       128653.35      50.482443      50.482443      50.482443      0.87677822     281.67939     -147.44106      648.29771    
     18200   36400          296.79229      47.447324      4228.4923      4138.8437      4280.9734     -142.12974      1501.3059      1450.3293      2685.5292      0             -5779.2941      0              0             -192.4313       129555.59      50.600178      50.600178      50.600178      0.87067226    -115.92432     -218.70931      476.9756     
     18300   36600          303.33594      317.21435      4822.9519      4224.0999      4375.3601     -151.26014      1475.1896      1496.9025      2680.2666      0             -5803.6188      0              0             -192.59327      129446.63      50.585989      50.585989      50.585989      0.87140513    -384.53695      1169.1283      167.05173    
     18400   36800          297.02243      957.92313      5852.3786      4046.7216      4284.293      -237.57145      1475.0987      1451.0238      2633.0307      0             -5796.7246      0              0             -192.88708      129249.45      50.560292      50.560292      50.560292      0.8727345      743.36539      1061.7087      1068.6953    
     18500   37000          302.14806      647.92405      5347.06        4131.0563      4358.2259     -227.16966      1453.5496      1424.2446      2695.2907      0             -5800.2545      0              0             -193.73003      128687.07      50.486853      50.486853      50.486853      0.87654848     1267.3346      522.66644      153.77111    
     18600   37200          303.36631      332.34357      4741.0053      4114.5114      4375.7981     -261.28671      1481.4527      1424.3079      2618.9231      0             -5785.9704      0              0             -192.87597      129256.9       50.561263      50.561263      50.561263      0.87268422     313.27318      142.19747      541.56006    
     18700   37400          293.9353       537.03382      4985.5843      3970.7304      4239.7639     -269.03345      1490.6496      1389.2324      2639.2659      0             -5788.1814      0              0             -192.40035      129576.43      50.602892      50.602892      50.602892      0.87053222     228.1123       644.90165      738.08752    
     18800   37600          300.51223     -11.530561      4148.2591      4170.0992      4334.6305     -164.53125      1514.4265      1430.1154      2659.7234      0             -5768.7966      0              0             -191.95605      129876.34      50.641903      50.641903      50.641903      0.86852195     53.164141     -138.23887      50.483045    
     18900   37800          301.36006      294.4188       4617.3402      4066.4687      4346.8596     -280.39094      1439.5747      1440.6445      2644.7159      0             -5805.3261      0              0             -194.32244      128294.75      50.435496      50.435496      50.435496      0.87922892     234.74447      72.036331      576.4756     
     19000   38000          296.52035      119.31594      4274.5551      4051.0093      4277.0509     -226.04165      1489.7491      1456.5412      2661.2728      0             -5833.6047      0              0             -194.06158      128467.21      50.458085      50.458085      50.458085      0.87804863    -105.81537      19.2266        444.53659    
     19100   38200          301.21666      319.76581      4812.1144      4210.0844      4344.7913     -134.70684      1471.8299      1472.1556      2709.4859      0             -5788.1783      0              0             -193.11752      129095.23      50.540173      50.540173      50.540173      0.87377713     379.744        692.69652     -113.1431     
     19200   38400          297.29779      495.86663      5001.794       4065.9682      4288.265      -222.29672      1412.5411      1470.838       2687.4712      0             -5793.1471      0              0             -192.65382      129405.94      50.580689      50.580689      50.580689      0.87167909     255.1389       329.32944      903.13154    
     19300   38600          296.2766       513.51373      5093.0118      4127.7756      4273.5351     -145.75946      1512.3386      1461.8018      2680.0452      0             -5799.945       0              0             -193.43105      128885.98      50.512852      50.512852      50.512852      0.87519573    -196.56635      701.25015      1035.8574    
     19400   38800          304.63882      23.973155      4255.2282      4210.2015      4394.1529     -183.95135      1476.0055      1425.4247      2690.018       0             -5775.3995      0              0             -193.58139      128785.88      50.499772      50.499772      50.499772      0.87587595    -370.73973      392.12816      50.531034    
     19500   39000          294.47847      53.226776      4177.5668      4077.5089      4247.5986     -170.08971      1479.6707      1445.6208      2729.9702      0             -5825.3515      0              0             -193.41333      128897.78      50.514394      50.514394      50.514394      0.87511558    -152.47008      381.05022     -68.899808    
     19600   39200          303.48174      132.01792      4411.3551      4162.0154      4377.4631     -215.44767      1475.7804      1449.7658      2646.4505      0             -5787.4443      0              0             -192.50818      129503.84      50.593441      50.593441      50.593441      0.87102014    -389.976        416.06124      369.96852    
     19700   39400          305.84696      575.77974      5400.3837      4316.0006      4411.5794     -95.578782      1505.0819      1512.4035      2662.4597      0             -5775.524       0              0             -193.05514      129136.93      50.545616      50.545616      50.545616      0.87349491     797.75058      261.15552      668.43312    
     19800   39600          301.04012      451.32796      4986.7478      4136.6605      4342.2448     -205.58429      1490.3613      1455.4624      2651.0035      0             -5802.4115      0              0             -193.03519      129150.28      50.547357      50.547357      50.547357      0.87340462     708.67007      407.37977      237.93405    
     19900   39800          298.1569       195.89614      4396.2492      4027.6072      4300.6569     -273.04964      1435.7467      1488.5824      2603.4896      0             -5800.8683      0              0             -193.20966      129033.66      50.532138      50.532138      50.532138      0.87419402     295.14959     -206.58799      499.12682    
     20000   40000          302.86814      142.80723      4451.399       4183.9281      4368.6124     -184.68426      1532.5856      1469.0886      2659.6525      0             -5846.0109      0              0             -194.12494      128425.28      50.452594      50.452594      50.452594      0.87833531    -213.17675     -32.659937      674.25838    
     20100   40200          299.56667      714.59606      5425.2792      4087.5304      4320.9916     -233.46121      1482.358       1420.7726      2703.7069      0             -5840.2986      0              0             -194.21992      128362.47      50.444369      50.444369      50.444369      0.87876505     904.45246      514.08853      725.2472     
     20200   40400          302.53831      385.19105      4812.7406      4085.2897      4363.8549     -278.56523      1478.736       1447.7462      2597.354       0             -5802.4015      0              0             -192.52194      129494.59      50.592236      50.592236      50.592236      0.8710824      652.08375     -164.22928      667.71866    
     20300   40600          303.82689      120.04385      4408.8098      4181.9041      4382.4416     -200.53747      1457.9277      1477.1324      2654.6922      0             -5790.2898      0              0             -192.35441      129607.37      50.606919      50.606919      50.606919      0.87032439     527.02399      189.63293     -356.52538    
     20400   40800          298.70311      230.5085       4613.2541      4179.039       4308.5354     -129.49637      1519.1213      1458.9706      2652.9821      0             -5760.5704      0              0             -193.01442      129164.18      50.54917       50.54917       50.54917       0.87331064     286.51799      23.021173      381.98634    
     20500   41000          297.00645      139.80201      4267.6597      4004.1392      4284.0626     -279.92341      1477.3007      1454.9469      2583.9853      0             -5796.1563      0              0             -192.88872      129248.35      50.560148      50.560148      50.560148      0.87274191     837.25857     -334.29793     -83.554597    
     20600   41200          300.62905     -107.09648      3880.5382      4081.5721      4336.3155     -254.7434       1474.0703      1481.2477      2628.7463      0             -5838.8078      0              0             -193.69286      128711.76      50.490082      50.490082      50.490082      0.87638033    -102.38326      90.120836     -309.02703    
     20700   41400          309.44977      539.92059      5311.1327      4299.4578      4463.5467     -164.08893      1502.0935      1526.7897      2641.5069      0             -5834.4791      0              0             -194.0424       128479.91      50.459748      50.459748      50.459748      0.87796182     408.678        284.01913      927.06463    
     20800   41600          300.4708      -8.5891931      4111.0246      4127.1428      4334.0328     -206.89009      1479.8285      1462.482       2657.5812      0             -5806.7818      0              0             -193.75083      128673.25      50.485046      50.485046      50.485046      0.87664262     179.68278     -276.9176       71.467244    
[...]
    495000   990000         301.65223      575.46149      5332.3815      4244.8833      4351.074      -106.19071      1496.2917      1501.8381      2668.6926      0             -5773.0131      0              0             -192.39574      129579.53      50.603295      50.603295      50.603295      0.8705114      1336.7315      276.72261      112.93035    
    495100   990200         296.48157      816.72362      5647.4799      4106.7595      4276.4916     -169.73212      1448.8148      1465.2932      2691.6036      0             -5775.4437      0              0             -192.73431      129351.9       50.573647      50.573647      50.573647      0.87204326     798.08811      725.43293      926.64981    
    495200   990400         296.16706      630.34059      5328.1238      4139.8977      4271.9551     -132.05737      1516.4505      1467.23        2654.7666      0             -5770.5045      0              0             -192.87854      129255.17      50.561038      50.561038      50.561038      0.87269586     368.3954       659.86132      862.76503    
    495300   990600         305.67122      379.64267      5031.345       4314.3338      4409.0444     -94.71052       1501.2313      1509.1647      2661.7082      0             -5766.8146      0              0             -192.51158      129501.55      50.593143      50.593143      50.593143      0.87103553     345.37808      48.658488      744.89143    
    495400   990800         296.34228      744.31984      5534.6056      4130.5106      4274.4825     -143.97191      1485.1315      1452.7795      2688.6852      0             -5770.5681      0              0             -192.73955      129348.38      50.573188      50.573188      50.573188      0.87206699     1003.445       448.40509      781.10946    
    495500   991000         297.03459      753.48917      5539.311       4122.9163      4284.4684     -161.55214      1481.8233      1472.5133      2654.4911      0             -5770.3798      0              0             -193.41959      128893.61      50.51385       50.51385       50.51385       0.87514386     712.13677      1278.201       270.12976    
    495600   991200         299.02974      618.23444      5392.5306      4229.2603      4313.2468     -83.986552      1469.6579      1496.7355      2722.8116      0             -5773.1915      0              0             -193.23254      129018.38      50.530143      50.530143      50.530143      0.87429756     111.67893      994.62985      748.39455    
    495700   991400         300.78047      491.82031      5089.152       4162.0183      4338.4995     -176.48128      1448.8464      1463.015       2715.9664      0             -5804.3091      0              0             -192.87317      129258.78      50.561508      50.561508      50.561508      0.87267154     1193.0023      111.75835      170.70031    
    495800   991600         301.4021       686.99853      5377.576       4090.7405      4347.466      -256.72551      1451.6998      1420.2847      2663.1111      0             -5791.8212      0              0             -194.10669      128437.35      50.454176      50.454176      50.454176      0.87825272     837.42836      1411.6434     -188.07617    
    495900   991800         300.74249      1333.7055      6504.7331      4007.9675      4337.9517     -329.98424      1402.9919      1397.614       2706.1805      0             -5836.7706      0              0             -194.21819      128363.62      50.444519      50.444519      50.444519      0.87875723     1208.7362      1253.371       1539.0093    
    496000   992000         298.08426      925.28678      5892.3119      4151.3024      4299.6091     -148.3067       1468.1388      1455.4792      2742.2917      0             -5814.2165      0              0             -193.23373      129017.59      50.530039      50.530039      50.530039      0.87430295     968.90756      800.87556      1006.0772    
    496100   992200         301.73627      36.826095      4273.6372      4204.0569      4352.2861     -148.22928      1481.3237      1481.0796      2676.6342      0             -5787.2668      0              0             -192.43192      129555.17      50.600124      50.600124      50.600124      0.87067508     345.29668     -112.9016      -121.9168     
    496200   992400         294.60334      499.70382      4988.5128      4043.7478      4249.3998     -205.65197      1456.8937      1479.275       2644.1932      0             -5786.0138      0              0             -192.30767      129638.87      50.611019      50.611019      50.611019      0.87011291     579.60335      396.01926      523.48885    
    496300   992600         301.90426      541.17408      5143.4969      4121.9623      4354.7092     -232.74693      1417.145       1503.5152      2634.2225      0             -5787.6296      0              0             -192.61569      129431.56      50.584027      50.584027      50.584027      0.87150655     247.8318       831.66446      544.02598    
    496400   992800         300.16349      379.61669      4880.3442      4168.405       4329.6002     -161.19522      1469.099       1486.4082      2670.4655      0             -5787.1679      0              0             -193.86977      128594.31      50.47472       50.47472       50.47472       0.87718076     843.45786      229.56755      65.824667    
    496500   993000         304.98444      302.21087      4698.624       4133.0801      4399.1381     -266.05801      1397.6425      1429.9186      2725.1204      0             -5818.7396      0              0             -194.29048      128315.86      50.438262      50.438262      50.438262      0.8790843      182.93725      1181.2491     -457.55376    
    496600   993200         296.34064      343.81607      4675.875       4027.8039      4274.4588     -246.65485      1438.3549      1428.0845      2698.1825      0             -5811.2768      0              0             -192.89069      129247.03      50.559976      50.559976      50.559976      0.87275084    -53.424777      637.28117      447.59181    
    496700   993400         300.02739      667.20228      5397.1726      4136.4133      4327.637      -191.22375      1429.1071      1448.4981      2698.8398      0             -5767.6687      0              0             -192.4124       129568.31      50.601835      50.601835      50.601835      0.87058678     355.46807      810.01718      836.12159    
    496800   993600         300.5561       647.06766      5411.1696      4190.6642      4335.2631     -144.59898      1434.0435      1522.145       2668.8824      0             -5769.6699      0              0             -192.76036      129334.42      50.571369      50.571369      50.571369      0.87216114     751.94241      720.16332      469.09724    
    496900   993800         295.25847      347.10152      4703.7321      4048.5213      4258.8494     -210.32814      1434.4796      1426.375       2704.2713      0             -5775.4541      0              0             -192.61193      129434.09      50.584356      50.584356      50.584356      0.87148953     512.21716      218.74925      310.33814    
    497000   994000         303.27497     -215.20216      3767.1193      4173.295       4374.4805     -201.18547      1410.0217      1458.0532      2684.3726      0             -5753.633       0              0             -192.63729      129417.05      50.582136      50.582136      50.582136      0.87160429    -310.6883      -350.62008      15.701909    
    497100   994200         296.99759      71.676484      4266.9862      4132.0579      4283.9348     -151.87695      1433.7709      1499.6259      2693.0464      0             -5778.3202      0              0             -193.14402      129077.51      50.537861      50.537861      50.537861      0.87389706     419.95216      644.23893     -849.16164    
    497200   994400         288.10675      245.08833      4554.3639      4093.4704      4155.692      -62.221642      1490.3483      1503.3855      2753.6948      0             -5809.6503      0              0             -193.3436       128944.27      50.520466      50.520466      50.520466      0.87480005     175.92853      299.76038      259.57607    
    497300   994600         305.04335     -396.47476      3507.9728      4255.7392      4399.988      -144.24882      1485.2405      1495.303       2673.6381      0             -5798.4304      0              0             -192.77795      129322.62      50.56983       50.56983       50.56983       0.87224072    -105.18314     -805.28616     -278.95498    
    497400   994800         298.85287      424.0087       4899.2511      4105.5383      4310.6956     -205.15725      1416.3461      1504.8926      2687.9532      0             -5814.3492      0              0             -194.23126      128354.98      50.443387      50.443387      50.443387      0.87881636     485.92484      607.3086       178.79265    
    497500   995000         303.28275     -388.59453      3461.9709      4191.7673      4374.5928     -182.82555      1460.7043      1465.9159      2711.6997      0             -5821.1455      0              0             -193.59884      128774.27      50.498255      50.498255      50.498255      0.8759549     -506.27977     -183.33156     -476.17226    
    497600   995200         300.18924     -644.54632      3048.3844      4267.6821      4329.9716     -62.289509      1476.4918      1483.5904      2749.3371      0             -5771.7087      0              0             -192.19944      129711.87      50.620517      50.620517      50.620517      0.86962321    -715.76489     -767.51435     -450.35973    
    497700   995400         296.68433      99.095445      4312.7612      4126.0438      4279.4163     -153.37255      1462.3551      1478.7102      2677.2555      0             -5771.6934      0              0             -192.96415      129197.83      50.553559      50.553559      50.553559      0.87308321    -298.82497      230.36871      365.74259    
    497800   995600         302.16204     -550.43513      3161.3603      4194.9622      4358.4276     -163.46536      1416.8097      1492.1858      2730.839       0             -5803.2999      0              0             -193.62463      128757.12      50.496012      50.496012      50.496012      0.8760716     -427.37669     -398.03862     -825.89009    
    497900   995800         305.04869      255.75466      4761.3943      4281.4173      4400.065      -118.64767      1441.7652      1516.1743      2698.9019      0             -5775.4892      0              0             -193.73623      128682.95      50.486314      50.486314      50.486314      0.87657657     355.99478      236.87093      174.39827    
    498000   996000         295.50574      34.299975      4193.4039      4128.7969      4262.4161     -133.61916      1473.7863      1451.1168      2707.055       0             -5765.5772      0              0             -193.02883      129154.54      50.547912      50.547912      50.547912      0.87337586    -320.85745      47.878828      375.87854    
    498100   996200         300.57384      104.61144      4384.1081      4186.7325      4335.5191     -148.78657      1467.4955      1445.307       2714.6695      0             -5776.2585      0              0             -192.70522      129371.43      50.576192      50.576192      50.576192      0.87191166    -93.032532      176.48651      230.38035    
    498200   996400         306.75536      301.93333      4968.7909      4395.5165      4424.6822     -29.165789      1481.1994      1516.9964      2716.5113      0             -5743.8729      0              0             -191.49445      130189.41      50.682561      50.682561      50.682561      0.86643341     700.55713      318.92156     -113.67871    
    498300   996600         299.15         900.2489       5971.7521      4270.3329      4314.9814     -44.648483      1515.5111      1491.05        2696.2641      0             -5747.4737      0              0             -192.3796       129590.4       50.604711      50.604711      50.604711      0.87043833     1156.4612      746.77449      797.511      
    498400   996800         296.33443      767.20136      5569.2672      4124.4123      4274.3693     -149.95693      1450.5812      1453.2452      2721.6693      0             -5775.4526      0              0             -193.06025      129133.52      50.54517       50.54517       50.54517       0.87351802     1013.5232      1063.429       224.65188    
    498500   997000         304.84281      805.26961      5724.5613      4208.5987      4397.0954     -188.49664      1428.4872      1470.1382      2695.9492      0             -5783.0712      0              0             -193.13482      129083.66      50.538664      50.538664      50.538664      0.8738554      719.76777      911.66284      784.37822    
    498600   997200         298.20163      936.4621       6001.0787      4232.1367      4301.3021     -69.165338      1466.7441      1452.64        2774.1554      0             -5762.7049      0              0             -192.47944      129523.18      50.595959      50.595959      50.595959      0.87089009     964.79473      702.66908      1141.9225    
    498700   997400         299.69333      415.31251      4878.0994      4091.3709      4322.8185     -231.44757      1406.386       1419.4108      2704.518       0             -5761.7623      0              0             -191.93665      129889.47      50.643609      50.643609      50.643609      0.86843419     544.09378      413.05307      288.79068    
    498800   997600         301.59661      239.41911      4668.5063      4216.6697      4350.2717     -133.60208      1434.4983      1531.9233      2691.3768      0             -5791.4005      0              0             -192.65716      129403.7       50.580397      50.580397      50.580397      0.8716942     -282.45609      529.7971       470.91632    
    498900   997800         303.22015      352.87797      4915.0012      4251.1201      4373.6898     -122.56969      1447.9292      1473.6692      2720.6814      0             -5764.8495      0              0             -193.26001      129000.04      50.527749      50.527749      50.527749      0.87442186    -498.47257      1329.8189      227.28763    
    499000   998000         298.1429       851.41334      5666.7169      4065.316       4300.4549     -235.13891      1417.0403      1404.0574      2702.3205      0             -5758.5571      0              0             -193.30725      128968.52      50.523633      50.523633      50.523633      0.87463557     1454.3687      1170.3804     -70.509011    
    499100   998200         297.98514      211.57051      4593.8025      4195.3256      4298.1793     -102.85377      1457.533       1487.2829      2728.7437      0             -5776.4134      0              0             -193.04551      129143.38      50.546457      50.546457      50.546457      0.8734513      665.46472     -655.2126       624.45942    
    499200   998400         301.73172      368.61913      4899.0059      4204.7238      4352.2205     -147.49668      1448.8036      1486.6664      2734.4288      0             -5817.3955      0              0             -193.04105      129146.36      50.546846      50.546846      50.546846      0.87343113    -283.88954      442.26311      947.48382    
    499300   998600         299.53611      143.05462      4405.8501      4137.9621      4320.5507     -182.58853      1461.4743      1462.3146      2706.6015      0             -5812.979       0              0             -194.15849      128403.09      50.449689      50.449689      50.449689      0.87848709    -719.3928       1113.9157      34.640968    
    499400   998800         297.67894      362.87742      4735.0476      4055.6253      4293.7626     -238.1373       1443.7377      1439.732       2709.2738      0             -5830.8808      0              0             -194.19048      128381.93      50.446918      50.446918      50.446918      0.87863185     743.45495      448.56868     -103.39136    
    499500   999000         294.25107     -140.92207      3724.4187      3988.1665      4244.3185     -256.15204      1418.965       1467.5051      2663.5686      0             -5806.1907      0              0             -194.26648      128331.71      50.440339      50.440339      50.440339      0.8789757      387.01254     -822.10664      12.327908    
    499600   999200         298.61879      70.886606      4280.3651      4147.0751      4307.3191     -160.24406      1467.0964      1454.9837      2701.2545      0             -5783.5786      0              0             -193.3634       128931.07      50.518742      50.518742      50.518742      0.87488964    -101.80192     -1.6729456      316.13468    
    499700   999400         301.96587      404.22306      4900.1416      4140.018       4355.598      -215.57995      1413.9186      1522.5225      2653.5041      0             -5805.5252      0              0             -193.3502       128939.87      50.519892      50.519892      50.519892      0.87482991     470.25373      996.39449     -253.97905    
    499800   999600         296.67635      609.46798      5224.878       4084.79        4279.3011     -194.51119      1467.7097      1481.1426      2709.824       0             -5853.1875      0              0             -194.36598      128266.01      50.43173       50.43173       50.43173       0.87942592     1165.717       585.5457       77.141254    
    499900   999800         303.6763      -333.77672      3597.1795      4224.0401      4380.2695     -156.22933      1463.3417      1445.8829      2715.6379      0             -5781.0919      0              0             -193.59438      128777.23      50.498642      50.498642      50.498642      0.87593475    -392.2777      -305.44267     -303.60979    
    500000   1000000        304.86522      0.400154       4155.5013      4154.7456      4397.4186     -242.67295      1414.0228      1434.7455      2703.2983      0             -5794.7396      0              0             -192.53427      129486.3       50.591156      50.591156      50.591156      0.87113817    -364.55152      647.45982     -281.70784    
Loop time of 3108.73 on 8 procs for 500000 steps with 4840 atoms

Performance: 27.793 ns/day, 0.864 hours/ns, 160.837 timesteps/s, 778.452 katom-step/s
98.6% CPU use with 8 MPI tasks x 1 OpenMP threads

MPI task timing breakdown:
Section |  min time  |  avg time  |  max time  |%varavg| %total
---------------------------------------------------------------
Pair    | 1592.4     | 2228.7     | 2868.6     | 886.7 | 71.69
Bond    | 57.277     | 58.982     | 60.706     |  14.1 |  1.90
Neigh   | 0.027796   | 0.029289   | 0.030221   |   0.4 |  0.00
Comm    | 134.19     | 135.93     | 138.23     |  11.4 |  4.37
Output  | 1.7083     | 1.8352     | 2.1279     |   9.2 |  0.06
Modify  | 29.489     | 669.51     | 1305.9     |1619.2 | 21.54
Other   |            | 13.72      |            |       |  0.44

Nlocal:            605 ave         620 max         583 min
Histogram: 1 0 1 0 0 2 0 2 0 2
Nghost:        6412.38 ave        6450 max        6387 min
Histogram: 1 1 2 1 1 0 0 1 0 1
Neighs:              0 ave           0 max           0 min
Histogram: 8 0 0 0 0 0 0 0 0 0

Total # of neighbors = 0
Ave neighs/atom = 0
Ave special neighs/atom = 5.9504132
Neighbor list builds = 13555
Dangerous builds = 0

# --- Cleanup ---
unfix npt_fix

undump dump_npt

# --- Write Output ---
write_dump all custom /home/arz2/PolyJarvis/data/PE3/lammps/mechanical/bm_series/bm_P300/bm_P300_last.dump id type mol x y z xu yu zu vx vy vz modify sort id
write_data /home/arz2/PolyJarvis/data/PE3/lammps/mechanical/bm_series/bm_P300/bm_P300_out.data
System init for write_data ...
Generated 1 of 1 mixed pair_coeff terms from arithmetic mixing rule

print "STAGE COMPLETE: NPT T=300.0->300.0K P=300.0->300.0atm steps=500000"
STAGE COMPLETE: NPT T=300.0->300.0K P=300.0->300.0atm steps=500000
quit
