units real
atom_style full
boundary p p p

# --- Force Field Styles ---
pair_style lj/cut 14.0
dielectric 1.000000
bond_style harmonic
angle_style harmonic
dihedral_style multi/harmonic
improper_style none
special_bonds lj 0 0 0
pair_modify mix arithmetic tail yes
neighbor 2.0 bin
neigh_modify delay 0 every 1 check yes
neigh_modify one 4000
package gpu 1 neigh yes

read_data /home/arz2/PolyJarvis/data/cis-PBD3/lammps/npt_pppm/npt_pppm_out.data
Reading data file ...
  orthogonal box = (3.7449607 3.7449607 3.7449607) to (64.433417 64.433417 64.433417)
  1 by 1 by 1 MPI processor grid
  reading atoms ...
  8040 atoms
  reading velocities ...
  8040 velocities
  scanning bonds ...
  2 = max bonds/atom
  scanning angles ...
  1 = max angles/atom
  scanning dihedrals ...
  2 = max dihedrals/atom
  orthogonal box = (3.7449607 3.7449607 3.7449607) to (64.433417 64.433417 64.433417)
  1 by 1 by 1 MPI processor grid
  reading bonds ...
  8020 bonds
  reading angles ...
  8000 angles
  reading dihedrals ...
  7980 dihedrals
Finding 1-2 1-3 1-4 neighbors ...
  special bond factors lj:    0        0        0       
  special bond factors coul:  0        0        0       
     2 = max # of 1-2 neighbors
     2 = max # of 1-3 neighbors
     4 = max # of 1-4 neighbors
     6 = max # of special neighbors
  special bonds CPU = 0.002 seconds
  read_data CPU = 0.104 seconds
include /home/arz2/PolyJarvis/data/cis-PBD3/lammps/cell/emc_build.params
# LAMMPS parameters created by EMC v9.4.4, build Jul 31 2025 20:33:44

# Variables

variable	seed		index	986450
variable	ntotal		index	8040
variable	fshape		index	1
variable	output		index	emc_build
variable	field		index	trappe/2014/trappe-ua
variable	location1	index	/home/arz2/emc/field/
variable	nav		index	0.6022141179
variable	temperature	index	300
variable	radius		index	5
variable	nrelax		index	100
variable	weight_nonbond	index	0.0001
variable	weight_bond	index	0.0001
variable	weight_focus	index	1
variable	cutoff		index	14
variable	charge_cutoff	index	14
variable	kappa		index	4
variable	density1	index	0.57
variable	lprevious	index	0
variable	lphase		index	68.1783775471
variable	f_poly		index	20
variable	chem_repeat	index	*C/C=C\C*
variable	chem_cap	index	*C
variable	lg_repeat	index	4
variable	lg_cap		index	1
variable	norm_poly	index	100
variable	l_poly		index	402
variable	mg_repeat	index	54.0914
variable	mg_cap		index	15.0347
variable	m_poly		index	5439.2094
variable	n_poly		index	20
variable	mtotal		index	108784.188
variable	nphase1		index	8040
variable	mphase1		index	108784.188
variable	vphase1		index	316912.949994
variable	lbox		index	68.1783775471
variable	lphase1		index	68.1783775471
variable	lxx		index	68.1783775471
variable	lyy		index	68.1783775471
variable	lzz		index	68.1783775471
variable	lzy		index	0
variable	lzx		index	0
variable	lyx		index	0
variable	vtotal		index	316912.949994
variable	nl_poly		index	20

# Types

variable	type_c3h	index	1
variable	type_c4h2	index	2
variable	type_c4h3	index	3

variable	type_bond_c3h_c3h index	1
variable	type_bond_c3h_c4h2 index	2
variable	type_bond_c4h2_c4h2 index	3
variable	type_bond_c4h2_c4h3 index	4

variable	type_angle_c3h_c3h_c4h2 index	1
variable	type_angle_c3h_c4h2_c4h2 index	2
variable	type_angle_c3h_c4h2_c4h3 index	3

# Clusters

variable	n0_poly		index	1
variable	n1_poly		index	20
variable	nl_poly		index	20

# Flags

variable	flag_charged	index	0

# Masses

mass		1    13.01890  # c3h
mass		2    14.02680  # c4h2
mass		3    15.03470  # c4h3

# Potentials

pair_modify	mix arithmetic tail yes
special_bonds	lj 0 0 0 coul 0 0 0.5
Finding 1-2 1-3 1-4 neighbors ...
  special bond factors lj:    0        0        0       
  special bond factors coul:  0        0        0.5     
     2 = max # of 1-2 neighbors
     2 = max # of 1-3 neighbors
     4 = max # of 1-4 neighbors
     6 = max # of special neighbors
  special bonds CPU = 0.002 seconds

# Pair Coeffs

pair_coeff	1 1    0.09340    3.71000  # c3h,c3h
pair_coeff	2 2    0.09141    3.95000  # c4h2,c4h2
pair_coeff	3 3    0.19475    3.75000  # c4h3,c4h3

# Bond Coeffs

bond_coeff	1  529.99987    1.33000  # c3h,c3h
bond_coeff	2  260.00013    1.54000  # c3h,c4h2
bond_coeff	3  260.00013    1.54000  # c4h2,c4h2
bond_coeff	4  260.00013    1.54000  # c4h2,c4h3

# Angle Coeffs

angle_coeff	1   69.96954  119.70000  # c3h,c3h,c4h2
angle_coeff	2   62.10020  114.00000  # c3h,c4h2,c4h2
angle_coeff	3   62.10020  114.00000  # c3h,c4h2,c4h3

# Dihedral Coeffs

dihedral_coeff	1    1.91086    1.85422    0.43627   -2.24348    0.00000  # c3h,c3h,c4h2,c4h2
dihedral_coeff	2    1.91086    1.85422    0.43627   -2.24348    0.00000  # c3h,c3h,c4h2,c4h3
dihedral_coeff	3    2.00702   -4.01203    0.27102    6.29006    0.00000  # c3h,c4h2,c4h2,c3h
dihedral_coeff	4   25.63496    0.99360  -25.63496   -0.99360    0.00000  # c4h2,c3h,c3h,c4h2


# --- Thermo Output ---
thermo_style custom step time temp press enthalpy etotal ke pe ebond eangle edihed eimp evdwl ecoul elong etail vol lx ly lz density pxx pyy pzz
thermo_modify flush yes
thermo 1000

# --- Trajectory ---
dump dump_npt all custom 1000 npt_cool_melt.dump id type mol x y z ix iy iz vx vy vz

# --- Restart Checkpointing ---
restart 10000 npt_1.rst npt_2.rst

# --- Initial Velocities (optional) ---
# Velocities read from data file

# --- SHAKE Constraints ---
# SHAKE disabled (TraPPE-UA united-atom)

# --- NPT Thermostat + Barostat (Nose-Hoover) ---
# T_damp = 100.0 fs  (heat bath coupling)
# P_damp = 1000.0 fs  (pressure bath coupling, ~10x T_damp typical)
# Ramp: T=480.0->400.0K  P=1.0->1.0atm
timestep 2.0
fix npt_fix all npt temp 480.0 400.0 100.0 iso 1.0 1.0 1000.0

run 1000000

CITE-CITE-CITE-CITE-CITE-CITE-CITE-CITE-CITE-CITE-CITE-CITE-CITE

Your simulation uses code contributions which should be cited:

- GPU package (short-range, long-range and three-body potentials): doi:10.1016/j.cpc.2010.12.021, doi:10.1016/j.cpc.2011.10.012, doi:10.1016/j.cpc.2013.08.002, doi:10.1016/j.commatsci.2014.10.068, doi:10.1016/j.cpc.2016.10.020, doi:10.3233/APC200086

@Article{Brown11,
 author = {W. M. Brown and P. Wang and S. J. Plimpton and A. N. Tharrington},
 title = {Implementing Molecular Dynamics on Hybrid High Performance Computers---Short Range Forces},
 journal = {Comput.\ Phys.\ Commun.},
 year =    2011,
 volume =  182,
 pages =   {898--911},
 doi =     {10.1016/j.cpc.2010.12.021}
}

@Article{Brown12,
 author = {W. M. Brown and A. Kohlmeyer and S. J. Plimpton and A. N. Tharrington},
 title = {Implementing Molecular Dynamics on Hybrid High Performance Computers - Particle-Particle Particle-Mesh},
 journal = {Comput.\ Phys.\ Commun.},
 year =    2012,
 volume =  183,
 doi =     {10.1016/j.cpc.2011.10.012},
 pages =   {449--459}
}

@Article{Brown13,
 author = {W. M. Brown and Y. Masako},
 title = {Implementing Molecular Dynamics on Hybrid High Performance Computers---Three-Body Potentials},
 journal = {Comput.\ Phys.\ Commun.},
 year =    2013,
 volume =  184,
 pages =   {2785--2793},
 doi =     {10.1016/j.cpc.2013.08.002},
}

@Article{Trung15,
 author = {T. D. Nguyen and S. J. Plimpton},
 title = {Accelerating Dissipative Particle Dynamics Simulations for Soft Matter Systems},
 journal = {Comput.\ Mater.\ Sci.},
 year =    2015,
 doi =     {10.1016/j.commatsci.2014.10.068},
 volume =  100,
 pages =   {173--180}
}

@Article{Trung17,
 author = {T. D. Nguyen},
 title = {{GPU}-Accelerated {T}ersoff Potentials for Massively Parallel
    Molecular Dynamics Simulations},
 journal = {Comput.\ Phys.\ Commun.},
 year =    2017,
 doi =     {10.1016/j.cpc.2016.10.020},
 volume =  212,
 pages =   {113--122}
}

@inproceedings{Nikolskiy19,
 author = {V. Nikolskiy and V. Stegailov},
 title = {{GPU} Acceleration of Four-Site Water Models in {LAMMPS}},
 booktitle = {Proceedings of the International Conference on Parallel
    Computing (ParCo 2019), Prague, Czech Republic},
 doi =     {10.3233/APC200086},
 year =    2019
}

CITE-CITE-CITE-CITE-CITE-CITE-CITE-CITE-CITE-CITE-CITE-CITE-CITE

Generated 3 of 3 mixed pair_coeff terms from arithmetic mixing rule
Per MPI rank memory allocation (min/avg/max) = 15.61 | 15.61 | 15.61 Mbytes
   Step          Time           Temp          Press         Enthalpy        TotEng         KinEng         PotEng         E_bond        E_angle        E_dihed        E_impro         E_vdwl         E_coul         E_long         E_tail         Volume           Lx             Ly             Lz          Density          Pxx            Pyy            Pzz      
         0   0              482.20438      391.21949      22839.873      21564.566      11554.934      10009.632      3903.7789      3760.4432      10090.423      0             -7745.0131      0              0             -260.04135      223520.97      60.688456      60.688456      60.688456      0.80815854     443.57885      191.97587      538.10375    
      1000   2000           472.79773     -344.80294      20621.306      21764.724      11329.525      10435.198      3960.4595      3853.2432      10108.854      0             -7487.358       0              0             -255.62467      227382.96      61.035987      61.035987      61.035987      0.79443234    -227.61005     -154.33317     -652.4656     
      2000   4000           478.83531      138.54436      22297.19       21836.291      11474.202      10362.089      4033.2142      3901.2249      9992.6185      0             -7564.9687      0              0             -254.81199      228108.16      61.100806      61.100806      61.100806      0.79190669     360.43289      35.168195      20.031989    
      3000   6000           478.67461      38.435059      21961.816      21835.204      11470.351      10364.853      3941.0851      3827.9229      10162.908      0             -7567.0634      0              0             -257.32886      225877.1       60.90095       60.90095       60.90095       0.79972862    -698.96668      445.1524       369.11946    
      4000   8000           477.0646       228.96011      22527.65       21766.48       11431.771      10334.709      3848.2851      3775.1289      10156.292      0             -7444.9963      0              0             -254.98522      227953.19      61.086967      61.086967      61.086967      0.79244504     559.26627      431.5943      -303.98025    
      5000   10000          472.73157      409.86997      23008.226      21654.663      11327.94       10326.723      3885.3225      3726.4227      10193.329      0             -7478.3513      0              0             -256.68717      226441.76      60.951656      60.951656      60.951656      0.79773437    -8.4436931      929.89947      308.15415    
      6000   12000          474.87578      798.22727      24227.588      21584.125      11379.321      10204.804      3913.1232      3672.6833      10137.954      0             -7518.9563      0              0             -255.97043      227075.81      61.008492      61.008492      61.008492      0.79550691     983.08845      955.59427      455.99909    
      7000   14000          483.28462      72.619699      22261.766      22020.463      11580.82       10439.643      3965.0048      3878.9014      10124.446      0             -7528.7091      0              0             -255.10995      227841.74      61.077009      61.077009      61.077009      0.79283268    -695.94189      806.29537      107.50562    
      8000   16000          482.35963      327.36707      23025.218      21925.043      11558.655      10366.388      3883.433       3775.6997      10129.096      0             -7421.8407      0              0             -252.23762      230436.26      61.307971      61.307971      61.307971      0.78390604     663.83681     -34.336126      352.60054    
      9000   18000          476.8938       276.80507      22862.619      21939.244      11427.678      10511.566      3993.3818      3791.043       10165.232      0             -7438.0909      0              0             -254.11635      228732.61      61.15651       61.15651       61.15651       0.78974476     727.41188     -273.94263      376.94596    
     10000   20000          479.93181     -170.71859      21368.938      21943.806      11500.477      10443.329      3948.9082      3803.3909      10041.404      0             -7350.3741      0              0             -251.73821      230893.41      61.348486      61.348486      61.348486      0.78235397     85.952908     -42.190281     -555.9184     
     11000   22000          479.64079      475.93066      23525.288      21931.713      11493.504      10438.21       3833.1608      3872.6281      10191.831      0             -7459.4099      0              0             -253.16743      229589.94      61.232824      61.232824      61.232824      0.78679569     960.56103      506.17558     -38.94465     
     12000   24000          480.36905     -20.986781      21898.823      21969.525      11510.955      10458.571      3993.9661      3767.2447      10092.082      0             -7394.722       0              0             -251.62115      231000.84      61.357998      61.357998      61.357998      0.78199015    -469.84166      466.68799     -59.806672    
     13000   26000          475.78873      266.20387      22639.184      21751.424      11401.198      10350.226      3971.7483      3744.5341      10094.879      0             -7460.9355      0              0             -254.18824      228667.91      61.150744      61.150744      61.150744      0.7899682      217.41382      538.78249      42.415292    
     14000   28000          480.5524      -128.21267      21575.146      22004.179      11515.348      10488.831      4035.1354      3754.087       10133.043      0             -7433.4346      0              0             -253.32423      229447.83      61.220187      61.220187      61.220187      0.78728301    -409.72392     -124.6068       149.69272    
     15000   30000          469.10909     -490.90887      19811.513      21449.828      11241.135      10208.692      3939.4846      3643.0317      10101.525      0             -7475.3489      0              0             -254.00376      228834         61.165545      61.165545      61.165545      0.78939485    -176.08304     -663.26805     -633.37552    
     16000   32000          485.24685     -120.25777      21515.337      21913.717      11627.84       10285.877      3879.3537      3764.2949      10146.095      0             -7503.8669      0              0             -255.88911      227147.98      61.014955      61.014955      61.014955      0.79525415    -523.12129      809.91103     -647.56305    
     17000   34000          471.42098     -15.267387      21615.444      21666.054      11296.535      10369.519      3922.8329      3779.4308      10156.442      0             -7489.1868      0              0             -255.72175      227296.65      61.028263      61.028263      61.028263      0.79473403     486.62763     -313.05034     -219.37945    
     18000   36000          485.90178      314.80077      23068.17       22009.09       11643.534      10365.556      3755.8254      3858.7452      10130.346      0             -7379.3608      0              0             -251.96687      230683.88      61.329922      61.329922      61.329922      0.78306459     222.40965      147.53788      574.45477    
     19000   38000          469.21051      8.0650178      21682.945      21656.085      11243.566      10412.519      3885.3474      3872.8641      10096.825      0             -7442.5177      0              0             -254.528        228362.67      61.123522      61.123522      61.123522      0.79102411    -279.93413      24.46361       279.66557    
     20000   40000          480.2551       566.60239      23616.854      21740.586      11508.224      10232.362      3908.2841      3769.2033      10072.856      0             -7517.9812      0              0             -255.98826      227060         61.007076      61.007076      61.007076      0.79556232     1137.0365      942.8588      -380.08807    
     21000   42000          480.03393     -309.39736      20805.615      21845.412      11502.924      10342.487      3862.4782      3752.3445      10110.362      0             -7382.6977      0              0             -252.2347       230438.94      61.308208      61.308208      61.308208      0.78389695    -292.42232     -182.55814     -453.21162    
     22000   44000          479.02361     -20.516504      21953.257      22022.902      11478.714      10544.188      3911.2552      3792.7081      10141.054      0             -7300.8292      0              0             -249.71605      232763.15      61.513637      61.513637      61.513637      0.77606949     61.07529       595.5836      -718.20841    
     23000   46000          482.86443     -259.80885      21242.872      22120.277      11570.751      10549.526      3995.8894      3755.117       10188.824      0             -7390.3043      0              0             -251.00972      231563.52      61.407778      61.407778      61.407778      0.78008995    -702.50146     -156.55941      79.634323    
     24000   48000          480.88809      210.95799      22829.275      22116.459      11523.392      10593.066      3916.2936      3890.6226      10137.966      0             -7351.8164      0              0             -250.87354      231689.22      61.418887      61.418887      61.418887      0.77966674     160.85028      369.87883      102.14486    
     25000   50000          477.94201     -143.47291      21498.011      21983.478      11452.796      10530.682      3949.1024      3768.4182      10172.703      0             -7359.5423      0              0             -250.52226      232014.09      61.447581      61.447581      61.447581      0.77857502     224.92198     -521.42131     -133.9194     
     26000   52000          476.78825      625.6092       23898.352      21804.453      11425.149      10379.303      3916.4406      3771.9577      10106.514      0             -7415.6088      0              0             -253.27007      229496.89      61.22455       61.22455       61.22455       0.7871147      359.08625      1280.4862      237.25519    
     27000   54000          479.08532     -729.8897       19554.562      22017.368      11480.193      10537.174      3988.1653      3834.4551      10074.938      0             -7360.3837      0              0             -251.22548      231364.65      61.390193      61.390193      61.390193      0.78076051    -418.47975     -1056.2154     -714.97396    
     28000   56000          476.34744     -287.77173      20991.382      21950.524      11414.586      10535.938      3904.514       3812.8331      10303.507      0             -7484.9163      0              0             -254.33257      228538.15      61.139175      61.139175      61.139175      0.79041672     72.801413     -349.67568     -586.44093    
     29000   58000          469.61128      554.4172       23334.602      21490.488      11253.169      10237.319      3831.5945      3738.1744      10154.581      0             -7487.0312      0              0             -254.8505       228073.69      61.097728      61.097728      61.097728      0.79202637     226.58625      1431.1072      5.5580991    
     30000   60000          478.47528     -78.284291      21727.5        21988.236      11465.575      10522.661      4012.0669      3879.4364      10065.037      0             -7433.8792      0              0             -254.51337      228375.8       61.124693      61.124693      61.124693      0.79097864    -440.13094      146.59331      58.684759    
     31000   62000          482.64355     -91.820961      21568.035      21871.458      11565.458      10306          3907.4241      3858.6859      10073.941      0             -7534.051       0              0             -256.52463      226585.24      60.964526      60.964526      60.964526      0.79722924     88.7097       -304.87025     -59.302331    
     32000   64000          478.83725      28.120053      21848.446      21754.881      11474.249      10280.633      3909.2483      3815.8908      10026.215      0             -7470.7214      0              0             -254.76503      228150.21      61.10456       61.10456       61.10456       0.79176074     87.39252      -290.22716      287.1948     
     33000   66000          474.35931      246.85885      22645.498      21822.633      11366.945      10455.688      3990.5806      3812.9494      10126.894      0             -7474.7357      0              0             -254.30592      228562.09      61.141309      61.141309      61.141309      0.79033393     663.40142      191.07273     -113.89761    
     34000   68000          471.78299     -130.19892      21142.862      21578.452      11305.209      10273.243      3822.6322      3843.4227      10067.326      0             -7460.1379      0              0             -253.37603      229400.92      61.216015      61.216015      61.216015      0.78744399     448.93433     -590.03479     -249.49628    
     35000   70000          481.02202     -136.72971      21375.53       21832.112      11526.602      10305.511      3903.384       3770.352       10091.702      0             -7459.9277      0              0             -253.85163      228971.13      61.177761      61.177761      61.177761      0.78892206    -478.76778      4.4773365      64.101298    
     36000   72000          471.74038     -553.53176      19827.242      21688.094      11304.188      10383.906      3855.8765      3778.8431      10090.877      0             -7341.6913      0              0             -252.15479      230511.96      61.314683      61.314683      61.314683      0.78364862    -618.16272     -701.40472     -341.02784    
     37000   74000          473.21027     -255.74561      20917.744      21771.166      11339.411      10431.755      3959.8998      3775.6591      10181.432      0             -7485.2362      0              0             -254.02763      228812.49      61.163629      61.163629      61.163629      0.78946903    -168.6428      -428.76303     -169.83101    
     38000   76000          479.31775      326.50979      22801.078      21716.561      11485.763      10230.798      3937.5445      3765.7515      10051.389      0             -7523.8862      0              0             -255.20938      227752.98      61.069077      61.069077      61.069077      0.79314168     640.72656      291.34385      47.458944    
     39000   78000          472.45611      276.71574      22429.653      21519.066      11321.339      10197.727      3867.2099      3783.0814      10112.633      0             -7565.1979      0              0             -257.60168      225637.87      60.879442      60.879442      60.879442      0.8005765      375.50109      249.93328      204.71285    
     40000   80000          477.69542     -397.97341      20382.585      21707.352      11446.887      10260.464      3860.4083      3796.0054      10104.614      0             -7500.5638      0              0             -254.65447      228249.26      61.113402      61.113402      61.113402      0.79141713    -644.1859      -315.72322     -234.01112    
     41000   82000          485.30411     -311.23103      21064.404      22108.409      11629.212      10479.196      3971.7098      3711.5444      10166.877      0             -7370.935       0              0             -252.707        230008.25      61.269989      61.269989      61.269989      0.78536477     581.73867     -1431.0368     -84.394963    
     42000   84000          484.5772       393.26232      23310.851      22000.458      11611.793      10388.664      3919.9557      3782.7328      10137.641      0             -7451.665       0              0             -254.39999      228477.58      61.133773      61.133773      61.133773      0.79062627     849.40483      247.15956      83.222565    
     43000   86000          473.51985      223.92918      22296.625      21553.435      11346.829      10206.606      3852.9377      3801.2338      10079.357      0             -7526.9232      0              0             -255.41556      227569.12      61.052639      61.052639      61.052639      0.79378248     153.90323      406.17146      111.71285    
     44000   88000          475.94002      89.978584      21951.215      21653.362      11404.823      10248.539      3945.5933      3670.8922      10151.225      0             -7519.1715      0              0             -256.07899      226979.55      60.99987       60.99987       60.99987       0.79584427    -391.23097      577.4004       83.76632     
     45000   90000          482.43087      727.74849      24411.692      21972.236      11560.362      10411.874      3870.1275      3802.5964      10183.096      0             -7443.9455      0              0             -252.88604      229845.41      61.255527      61.255527      61.255527      0.78592119     519.45427      528.41541      1135.3758    
     46000   92000          468.26143      649.45986      23740.354      21569.525      11220.823      10348.702      4021.037       3729.6514      10063.871      0             -7465.8574      0              0             -253.60817      229190.94      61.197331      61.197331      61.197331      0.78816543     478.81354      591.40794      878.15811    
     47000   94000          481.54039      539.11254      23840.283      22035.185      11539.023      10496.162      3981.6529      3890.5911      10023.593      0             -7399.6758      0              0             -253.17169      229586.07      61.23248       61.23248       61.23248       0.78680895     643.78151      789.21599      184.3401     
     48000   96000          479.27735     -236.46449      21095.57       21891.077      11484.795      10406.282      3884.03        3771.567       10140.462      0             -7389.7763      0              0             -251.97574      230675.75      61.329202      61.329202      61.329202      0.78309218    -26.858662     -384.99235     -297.54247    
     49000   98000          479.55973     -180.77968      21161.055      21770.37       11491.561      10278.809      3838.8409      3650.417       10218.054      0             -7428.5028      0              0             -251.50345      231108.94      61.367568      61.367568      61.367568      0.78162437     21.109921     -694.24838      130.79941    
     50000   100000         474.64678      56.896491      21809.943      21619.81       11373.834      10245.977      3858.5827      3726.0352      10157.695      0             -7496.3367      0              0             -253.66729      229137.52      61.192576      61.192576      61.192576      0.78834917    -98.716326      331.17567     -61.769874    
     51000   102000         470.95884      130.138        22017.285      21583.188      11285.46       10297.727      3773.2531      3832.5136      10124.973      0             -7433.0131      0              0             -254.12831      228721.84      61.15555       61.15555       61.15555       0.78978195     237.70764      291.13071     -138.42437    
     52000   104000         480.60765     -31.773975      21706.363      21812.628      11516.672      10295.956      3846.1718      3780.6379      10141.438      0             -7472.292       0              0             -253.464        229321.31      61.208932      61.208932      61.208932      0.78771738     414.70097     -415.68901     -94.333884    
     53000   106000         475.93968      145.95023      22230.079      21740.904      11404.815      10336.089      3927.9067      3819.9828      10035.184      0             -7446.9842      0              0             -252.91664      229817.6       61.253056      61.253056      61.253056      0.78601629     724.94007     -532.95586      245.86647    
     54000   108000         474.19401      589.3051       23752.85       21787.005      11362.984      10424.021      3917.306       3880.3251      10092.724      0             -7466.3335      0              0             -254.1134       228735.26      61.156746      61.156746      61.156746      0.78973561     610.83828      179.94852      977.12851    
     55000   110000         472.50309     -40.383293      21455.296      21588.897      11322.465      10266.432      3871.8127      3805.4312      10129.999      0             -7540.8106      0              0             -256.22968      226846.07      60.98791       60.98791       60.98791       0.79631259    -218.58862      200.34045     -102.90171    
     56000   112000         475.63801      423.20258      23266.975      21861.557      11397.586      10463.971      3828.808       3929.5243      10166.026      0             -7460.3869      0              0             -255.25816      227709.44      61.065186      61.065186      61.065186      0.79329331     285.11521      285.93261      698.55993    
     57000   114000         473.53805      58.120889      21857.969      21664.074      11347.265      10316.808      3905.4994      3826.4102      10084.064      0             -7499.1657      0              0             -254.09796      228749.16      61.157985      61.157985      61.157985      0.78968761    -423.29444      115.97747      481.67964    
     58000   116000         478.54679      22.398885      21743.712      21669.764      11467.288      10202.475      3881.1238      3800.8395      10045.617      0             -7525.1054      0              0             -256.7655       226372.69      60.945457      60.945457      60.945457      0.7979778      192.67216     -455.58761      330.11211    
     59000   118000         484.05051     -131.05838      21376.119      21810.585      11599.173      10211.412      3865.3621      3782.4885      10086.497      0             -7522.9361      0              0             -255.70916      227307.83      61.029264      61.029264      61.029264      0.79469492     10.130562     -428.91307      25.607364    
     60000   120000         474.57437     -156.16226      20885.437      21404.933      11372.098      10032.835      3828.3212      3658.5071      10042.072      0             -7496.0654      0              0             -254.81816      228102.64      61.100314      61.100314      61.100314      0.79192585     57.141191     -297.04115     -228.58681    
     61000   122000         473.93926     -264.65848      20853.752      21726.738      11356.879      10369.858      3982.2484      3837.463       10077.376      0             -7527.2292      0              0             -256.98939      226175.46      60.927753      60.927753      60.927753      0.79867364    -564.69625     -420.39255      191.11338    
     62000   124000         471.65699     -42.023518      21291.168      21430.396      11302.19       10128.206      3860.4349      3748.3422      10089.844      0             -7570.4155      0              0             -255.86114      227172.82      61.017178      61.017178      61.017178      0.79516723     722.31416     -279.07089     -569.31382    
     63000   126000         477.79527      144.2001       22107.469      21630.802      11449.28       10181.522      3936.7963      3757.8261      10092.765      0             -7605.866       0              0             -256.44052      226659.56      60.971191      60.971191      60.971191      0.79696785    -120.73329      312.35258      240.98102    
     64000   128000         468.92089     -16.779374      21625.738      21681.713      11236.626      10445.088      3997.5009      3825.2461      10052.553      0             -7430.2126      0              0             -254.10633      228741.62      61.157313      61.157313      61.157313      0.78971364     149.0751      -56.643601     -142.76962    
     65000   130000         474.14375      207.98034      22262.119      21574.101      11361.78       10212.322      3826.9124      3856.2047      10093.461      0             -7564.2564      0              0             -256.24708      226830.66      60.98653       60.98653       60.98653       0.79636666    -89.394433      206.91017      506.42529    
     66000   132000         466.31213      12.465994      21374.267      21333.239      11174.113      10159.126      3866.4638      3816.4628      10042.206      0             -7566.0066      0              0             -257.56092      225673.58      60.882654      60.882654      60.882654      0.80044982     383.07224     -18.890024     -326.78424    
     67000   134000         467.59622      127.36045      21801.93       21382.511      11204.883      10177.629      3858.1078      3796.8248      10122.844      0             -7600.1483      0              0             -257.40904      225806.74      60.894626      60.894626      60.894626      0.79997781    -56.279328      536.37941     -98.018725    
     68000   136000         473.30215      164.61927      22139.889      21595.256      11341.613      10253.643      3915.6848      3810.7776      10046.291      0             -7519.1097      0              0             -256.22011      226854.54      60.988669      60.988669      60.988669      0.79628284     537.49833     -267.93387      224.29336    
     69000   138000         480.22484     -409.54693      20551.083      21924.975      11507.499      10417.476      3917.4951      3878.3838      10064.082      0             -7442.4851      0              0             -252.68982      230023.88      61.271378      61.271378      61.271378      0.7853114     -322.87882     -536.13808     -369.62388    
     70000   140000         470.99127     -96.71211       21189.421      21511.365      11286.238      10225.127      3814.6342      3848.8375      10030.047      0             -7468.3911      0              0             -254.64597      228256.88      61.114082      61.114082      61.114082      0.79139073     328.48129     -324.28392     -294.3337     
     71000   142000         477.52186     -395.4973       20151.479      21459.412      11442.728      10016.684      3745.5783      3738.6852      10102.459      0             -7570.0386      0              0             -256.32702      226759.92      60.980189      60.980189      60.980189      0.7966151     -329.44059     -378.65337     -478.39793    
     72000   144000         473.65809      519.22497      23131.166      21408.272      11350.142      10058.13       3775.2486      3774.1049      10075.068      0             -7566.292       0              0             -255.46619      227524.03      61.048606      61.048606      61.048606      0.7939398      387.66526      487.68208      682.32757    
     73000   146000         474.98995      508.96245      23317.488      21622.691      11382.057      10240.634      3892.9625      3760.933       10088.136      0             -7501.3969      0              0             -254.56856      228326.29      61.120276      61.120276      61.120276      0.79115014     577.58451      168.88634      780.4165     
     74000   148000         478.88544     -295.13552      20660.3        21640.99       11475.404      10165.586      3857.2565      3721.9641      10058.911      0             -7472.5452      0              0             -255.10924      227842.37      61.077066      61.077066      61.077066      0.79283049    -671.59812     -286.35722      72.548764    
     75000   150000         468.6439       167.43719      21995.568      21438.887      11229.988      10208.899      3878.1105      3738.9205      10098.003      0             -7506.1356      0              0             -254.96567      227970.67      61.088527      61.088527      61.088527      0.79238431    -234.60646      387.1456       349.77243    
     76000   152000         476.9761       233.44702      22613.014      21829.699      11429.651      10400.048      3885.8082      3766.6946      10159.716      0             -7412.1705      0              0             -252.63196      230076.57      61.276055      61.276055      61.276055      0.78513155     169.7188       159.27764      371.3446     
     77000   154000         475.32526     -103.09634      21323.764      21669.828      11390.092      10279.736      3837.0306      3759.2075      10094.579      0             -7411.0804      0              0             -252.53607      230163.93      61.283809      61.283809      61.283809      0.78483357    -677.5081       462.22068     -94.001599    
     78000   156000         480.92837     -252.60074      20973.795      21815.058      11524.358      10290.7        3872.1715      3762.0367      10129.453      0             -7472.9611      0              0             -254.53015      228360.74      61.12335       61.12335       61.12335       0.79103079    -55.887192     -1145.8337      443.91866    
     79000   158000         466.08993     -115.63547      20954.303      21337.202      11168.788      10168.414      3836.4648      3827.0941      10086.454      0             -7581.599       0              0             -256.0019       227047.9       61.005993      61.005993      61.005993      0.79560469    -255.99321     -49.075246     -41.837944    
     80000   160000         481.03802      537.66523      23519.493      21746.419      11526.985      10219.434      3886.7655      3827.3784      10112.146      0             -7606.8559      0              0             -257.0525       226119.93      60.922766      60.922766      60.922766      0.79886977     858.75735      615.20321      139.03514    
     81000   162000         477.65923      11.044538      21629.101      21592.61       11446.02       10146.59       3853.2189      3824.8593      10052.062      0             -7583.5501      0              0             -256.56225      226552.01      60.961547      60.961547      60.961547      0.79734616    -367.25688      326.35725      74.033243    
     82000   164000         469.98665     -115.44019      21091.299      21473.27       11262.164      10211.106      3824.8455      3883.7733      10036.367      0             -7533.8801      0              0             -256.19055      226880.71      60.991015      60.991015      60.991015      0.79619099    -268.38303     -220.77729      142.83974    
     83000   166000         476.28704     -533.32597      19798.354      21562.098      11413.139      10148.959      3934.917       3716.3468      10060.739      0             -7563.0434      0              0             -256.32665      226760.25      60.980218      60.980218      60.980218      0.79661395    -426.37254     -466.56373     -707.04164    
     84000   168000         471.28904     -169.68329      20709.173      21270.95       11293.373      9977.5774      3773.4954      3748.2489      10049.763      0             -7593.9296      0              0             -256.04225      227012.12      61.002788      61.002788      61.002788      0.7957301     -196.56787     -392.3188       79.836802    
     85000   170000         474.97298      164.65625      21998.406      21454.29       11381.65       10072.64       3806.1971      3755.8438      10037.8        0             -7527.2013      0              0             -256.52124      226588.23      60.964795      60.964795      60.964795      0.7972187      451.48557      24.730798      17.752387    
     86000   172000         466.67999      138.38833      21974.655      21514.514      11182.927      10331.586      3924.1842      3884.2106      9987.5458      0             -7464.3544      0              0             -254.94372      227990.3       61.090281      61.090281      61.090281      0.79231608     695.44912     -108.31237     -171.97177    
     87000   174000         473.75947      8.145018       21519.337      21492.466      11352.571      10139.895      3899.8818      3667.4308      10129.687      0             -7557.105       0              0             -256.94739      226212.43      60.931073      60.931073      60.931073      0.7985431     -639.44152      271.9899       391.88667    
     88000   176000         474.0301      -117.34398      21036.677      21420.929      11359.056      10061.873      3810.5734      3793.5678      10115.342      0             -7657.6103      0              0             -258.87003      224532.35      60.779852      60.779852      60.779852      0.80451829     387.38832     -244.56082     -494.85944    
     89000   178000         477.05827      280.48735      22476.176      21550.442      11431.62       10118.822      3811.7709      3764.4354      10092.95       0             -7550.334       0              0             -256.84068      226306.42      60.93951       60.93951       60.93951       0.79821147     776.30398     -206.9648       272.12287    
     90000   180000         471.23847      120.49687      21779.854      21381.859      11292.161      10089.698      3790.8594      3707.7019      10140.579      0             -7549.4415      0              0             -256.64658      226477.57      60.954869      60.954869      60.954869      0.79760825    -20.823618      305.78137      76.532874    
     91000   182000         470.06549      372.24559      22735.77       21500.007      11264.053      10235.954      3904.1333      3702.6645      10114.156      0             -7485.0002      0              0             -255.34725      227630         61.058083      61.058083      61.058083      0.79357018    -125.65284      524.86521      717.52439    
     92000   184000         467.42438      30.405159      21582.305      21480.343      11200.765      10279.578      3865.0924      3707.2828      10125.696      0             -7418.4939      0              0             -252.78022      229941.63      61.264073      61.264073      61.264073      0.78559232     290.34625     -15.850238     -183.28053    
     93000   186000         466.20119      61.264425      21429.488      21225.091      11171.454      10053.637      3833.1628      3680.7287      10019.512      0             -7479.7666      0              0             -254.0796       228765.68      61.159458      61.159458      61.159458      0.78963057     145.73878     -202.97727      241.03176    
     94000   188000         469.22402     -33.505752      21149.957      21261.398      11243.89       10017.509      3794.8069      3751.7338      9970.5875      0             -7499.6195      0              0             -254.8656       228060.18      61.096522      61.096522      61.096522      0.79207329     43.832801     -189.04929      44.699229    
     95000   190000         472.11866     -469.29796      19830.167      21393.079      11313.253      10079.826      3713.6862      3743.1734      10074.89       0             -7451.9227      0              0             -254.53678      228354.79      61.122819      61.122819      61.122819      0.7910514     -167.40067     -17.183539     -1223.3097    
     96000   192000         466.86264     -138.49397      20798.42       21258.588      11187.304      10071.284      3788.4387      3805.8465      9992.4416      0             -7515.4428      0              0             -255.12384      227829.33      61.0759        61.0759        61.0759        0.79287586    -53.560804     -429.04493      67.123836    
     97000   194000         470.6363       304.68616      22468.307      21455.196      11277.732      10177.465      3824.188       3775.0629      10083.305      0             -7505.0909      0              0             -254.93668      227996.59      61.090843      61.090843      61.090843      0.7922942      125.85889      626.70298      161.49661    
     98000   196000         470.91275     -320.85838      20318.843      21367.632      11284.356      10083.276      3740.136       3844.2107      10155.434      0             -7656.505       0              0             -259.33543      224129.4       60.743472      60.743472      60.743472      0.80596467    -363.51417     -668.16614      69.105153    
     99000   198000         473.77935      59.825291      21558.184      21360.014      11353.048      10006.966      3780.741       3753.798       10053.821      0             -7581.3943      0              0             -255.90724      227131.89      61.013514      61.013514      61.013514      0.79531052     161.09453     -176.21931      194.60065    
    100000   200000         470.0816       14.626835      21610.289      21561.432      11264.44       10296.992      3831.5585      3827.8167      10127.151      0             -7489.5339      0              0             -253.78194      229034.01      61.18336       61.18336       61.18336       0.78870549     455.84773     -555.03182      143.06459    
    101000   202000         473.34453      620.90662      23658.973      21582.49       11342.628      10239.862      3892.4734      3724.1006      10006.932      0             -7383.6438      0              0             -253.47466      229311.65      61.208073      61.208073      61.208073      0.78775053     607.88318      635.02532      619.81136    
    102000   204000         472.45879     -352.08412      20265.037      21433.031      11321.403      10111.628      3779.5065      3789.4377      10106.915      0             -7564.2311      0              0             -255.53031      227466.93      61.043499      61.043499      61.043499      0.79413909    -349.58825     -261.57669     -445.0874     
    103000   206000         479.20982      170.75611      22098.467      21535.102      11483.176      10051.926      3811.5612      3767.404       10087.898      0             -7614.9373      0              0             -256.9349       226223.43      60.93206       60.93206       60.93206       0.79850427    -103.35684      969.25111     -353.62594    
    104000   208000         468.34543      10.002897      21346.114      21313.463      11222.836      10090.627      3844.4072      3754.5604      10137.604      0             -7645.9445      0              0             -259.697        223817.36      60.715269      60.715269      60.715269      0.80708834    -185.19487     -142.61026      357.81382    
    105000   210000         465.49016      614.00287      23276.126      21261.533      11154.416      10107.117      3859.95        3764.8682      10077.404      0             -7595.1056      0              0             -258.35663      224978.53      60.820085      60.820085      60.820085      0.80292274     215.25209      556.37447      1070.382     
    106000   212000         473.11894      172.76372      21941.49       21379.915      11337.222      10042.693      3922.2994      3706.107       10078.537      0             -7664.2511      0              0             -260.7842       222884.27      60.630777      60.630777      60.630777      0.81046716     161.13108      198.27863      158.88144    
    107000   214000         471.10281      605.18169      23365.226      21380.154      11288.91       10091.244      3867.5065      3739.9293      10128.223      0             -7644.4148      0              0             -258.43185      224913.05      60.814184      60.814184      60.814184      0.80315651     841.59792      83.356967      890.5902     
    108000   216000         464.24276     -569.04437      19312.702      21189.614      11124.525      10065.089      3832.0913      3743.8143      10016.933      0             -7527.7498      0              0             -257.00332      226163.21      60.926653      60.926653      60.926653      0.79871691    -356.74605     -493.98257     -856.40448    
    109000   218000         465.63101     -729.54927      19127.386      21541.323      11157.791      10383.532      4053.3156      3905.2478      10018.876      0             -7593.9073      0              0             -256.19184      226879.57      60.990912      60.990912      60.990912      0.79619499    -1400.9126     -686.56768     -101.16754    
    110000   220000         470.95005     -31.75546       21250.722      21355.232      11285.25       10069.982      3906.3797      3683.0341      10080.78       0             -7600.2116      0              0             -257.57224      225663.66      60.881762      60.881762      60.881762      0.80048501    -102.03674      171.25415     -164.48379    
    111000   222000         475.4859       308.58406      22364.08       21349.842      11393.941      9955.9004      3866.881       3777.8114      9933.1776      0             -7621.9695      0              0             -257.91114      225367.13      60.855083      60.855083      60.855083      0.80153825     519.96931      651.88162     -246.09875    
    112000   224000         460.8349       97.278105      21371.04       21049.858      11042.863      10006.995      3866.4971      3670.9028      10023.629      0             -7554.034       0              0             -256.74404      226391.6       60.947155      60.947155      60.947155      0.79791114    -201.47158      158.34393      334.96197    
    113000   226000         467.75728     -429.35571      19991.562      21399.979      11208.742      10191.236      3969.4457      3778.5893      10090.299      0             -7647.0979      0              0             -258.41792      224925.17      60.815276      60.815276      60.815276      0.80311323    -143.30812     -95.986493     -1048.7725    
    114000   228000         469.95248      251.58137      22184.587      21354.295      11261.345      10092.95       3902.0088      3641.2107      10129.03       0             -7579.3004      0              0             -256.85268      226295.85      60.938561      60.938561      60.938561      0.79824875     273.76819      583.08586     -102.10996    
    115000   230000         471.84621     -21.964052      21320.175      21392.89       11306.724      10086.165      3852.3451      3747.7644      10078.066      0             -7592.0098      0              0             -256.05221      227003.29      61.001997      61.001997      61.001997      0.79576105    -959.50241      749.87309      143.73717    
    116000   232000         472.19313     -179.09554      20810.095      21402.805      11315.038      10087.767      3848.3953      3740.3514      10045.353      0             -7546.332       0              0             -256.14087      226924.71      60.994957      60.994957      60.994957      0.7960366     -725.58623     -379.51118      567.8108     
    117000   234000         472.60962     -9.7806191      21230.17       21262.632      11325.018      9937.6145      3760.5795      3672.8502      10040.821      0             -7536.6358      0              0             -255.40254      227580.73      61.053677      61.053677      61.053677      0.79374199    -169.63861      113.02253      27.274224    
    118000   236000         468.69287     -135.16342      20858.283      21304.984      11231.162      10073.823      3816.8418      3763.7905      10054.64       0             -7561.45        0              0             -256.4946       226611.77      60.966906      60.966906      60.966906      0.79713591    -72.550324     -311.07076     -21.86917     
    119000   238000         468.6673      -140.88316      20918.603      21385.932      11230.549      10155.384      3834.0404      3718.3498      10119.655      0             -7516.6616      0              0             -255.54803      227451.15      61.042088      61.042088      61.042088      0.79419416    -257.40293      280.5874      -445.83397    
    120000   240000         469.58339      324.81699      22567.451      21490.264      11252.501      10237.764      3827.69        3808.3506      10078.584      0             -7476.8609      0              0             -255.61395      227392.5       61.036841      61.036841      61.036841      0.79439902     175.7852       16.90385       781.76192    
    121000   242000         473.44397      893.89793      24474.715      21514.225      11345.011      10169.214      3979.2417      3770.0796      9977.8863      0             -7557.9934      0              0             -255.9534       227090.93      61.009846      61.009846      61.009846      0.79545397     710.72156      668.02837      1302.9439    
    122000   244000         475.809        276.42928      22333.723      21421.002      11401.684      10019.319      3763.568       3767.6078      10064.461      0             -7576.3185      0              0             -256.73347      226400.93      60.947992      60.947992      60.947992      0.79787826     549.85818      67.915034      211.51463    
    123000   246000         467.75881     -258.57537      20499.547      21357.353      11208.779      10148.574      3836.0131      3669.4164      10142.331      0             -7499.1865      0              0             -255.52564      227471.08      61.043871      61.043871      61.043871      0.79412458    -320.93018     -415.47296     -39.322977    
    124000   248000         464.65785      74.027839      21317.477      21074.641      11134.472      9940.1691      3824.8743      3644.5886      10059.876      0             -7589.1699      0              0             -258.41519      224927.54      60.81549       60.81549       60.81549       0.80310475     275.3891      -259.03175      205.72617    
    125000   250000         476.41649      256.94666      21993.957      21156.198      11416.241      9739.957       3756.0616      3661.5507      9990.7737      0             -7668.429       0              0             -259.99232      223563.12      60.692271      60.692271      60.692271      0.80800615     107.56398      716.42806     -53.152066    
    126000   252000         470.51822     -281.24986      20485.684      21410.033      11274.902      10135.13       3953.6417      3772.2987      10005.56       0             -7596.3697      0              0             -257.92473      225355.26      60.854014      60.854014      60.854014      0.80158049    -293.53285      10.536555     -560.75329    
    127000   254000         474.16909      215.32879      22209.913      21500.032      11362.387      10137.646      3964.6011      3789.6149      10010.297      0             -7626.8675      0              0             -257.13047      226051.37      60.916608      60.916608      60.916608      0.79911209     392.32169      526.56698     -272.90231    
    128000   256000         474.17746      112.41474      21912.413      21539.96       11362.587      10177.372      3840.8367      3862.1153      10006.005      0             -7531.5845      0              0             -255.85159      227181.29      61.017937      61.017937      61.017937      0.79513757     437.29047      200.07519     -300.12144    
    129000   258000         462.15005     -63.46118       21003.331      21214.555      11074.378      10140.177      3856.2828      3744.04        10058.809      0             -7518.9545      0              0             -254.68404      228222.76      61.111037      61.111037      61.111037      0.79150904    -226.39046      68.469616     -32.462694    
    130000   260000         468.28187      308.91029      22346.862      21328.201      11221.313      10106.887      3874.4506      3665.6771      10096.482      0             -7529.7217      0              0             -257.06268      226110.98      60.921962      60.921962      60.921962      0.79890141     339.0861       74.306005      513.33876    
    131000   262000         467.8998      -392.07072      19952.739      21251.375      11212.157      10039.218      3818.1906      3732.902       10053.265      0             -7565.1396      0              0             -255.92547      227115.71      61.012065      61.012065      61.012065      0.79536716    -31.972299     -347.11168     -797.12818    
    132000   264000         472.804       -350.42458      20284.073      21441.402      11329.676      10111.727      3837.9186      3803.381       10036.469      0             -7566.0419      0              0             -256.66934      226457.49      60.953067      60.953067      60.953067      0.79767897    -149.37131     -476.0751      -425.82734    
    133000   266000         459.71853      313.66336      22005.552      20969.675      11016.112      9953.5632      3820.802       3770.5957      9968.5423      0             -7606.3768      0              0             -256.68014      226447.96      60.952212      60.952212      60.952212      0.79771254     106.35939      611.8675       222.76318    
    134000   268000         463.98104      509.94444      22929.981      21252.645      11118.253      10134.392      3906.6886      3709.6629      10128.921      0             -7610.8801      0              0             -257.71485      225538.78      60.870529      60.870529      60.870529      0.80092822     723.32923      640.49566      166.00844    
    135000   270000         464.7562      -279.89128      20333.983      21261.443      11136.828      10124.615      3897.145       3625.3341      10099.638      0             -7497.5017      0              0             -255.81784      227211.26      61.02062       61.02062       61.02062       0.79503267    -433.83342     -146.57023     -259.2702     
    136000   272000         469.97038     -64.574661      21202.605      21417.066      11261.774      10155.291      3795.0107      3832.9404      10087.141      0             -7559.8008      0              0             -255.24116      227724.62      61.066542      61.066542      61.066542      0.79324046    -330.44566      370.28731     -233.56564    
    137000   274000         465.94729      130.25418      21534.539      21102.935      11165.37       9937.5646      3751.2067      3728.0454      10047.741      0             -7589.4285      0              0             -255.82478      227205.1       61.020068      61.020068      61.020068      0.79505425     142.60363     -427.48841      675.64732    
    138000   276000         466.98692     -361.80636      20045.324      21237.53       11190.282      10047.247      3852.3509      3641.4571      10140.438      0             -7586.9987      0              0             -257.25356      225943.21      60.906891      60.906891      60.906891      0.79949462    -381.76299     -714.11206      10.455986    
    139000   278000         467.83811     -613.60804      19159.204      21200.006      11210.679      9989.3265      3769.7816      3801.96        10015.446      0             -7597.8612      0              0             -254.87476      228051.99      61.09579       61.09579       61.09579       0.79210175    -193.2747      -661.60925     -985.94017    
    140000   280000         468.76749      335.18335      22556.584      21448.69       11232.95       10215.74       3885.189       3746.9317      10108.068      0             -7524.4492      0              0             -256.46052      226641.88      60.969606      60.969606      60.969606      0.79703        777.0374      -326.6591       555.17175    
    141000   282000         462.50955     -434.86585      19398.971      20829.668      11082.992      9746.6761      3667.3518      3623.2712      10076.794      0             -7620.7409      0              0             -257.65826      225588.32      60.874985      60.874985      60.874985      0.80075236    -423.8751      -310.96804     -569.7544     
    142000   284000         472.98368     -100.30143      21038.498      21370.567      11333.981      10036.585      3786.2581      3701.2687      10100.415      0             -7551.3568      0              0             -256.04468      227009.97      61.002595      61.002595      61.002595      0.79573765    -627.13094      863.69202     -537.46537    
    143000   286000         467.56352     -246.11664      20516.504      21336.895      11204.099      10132.796      3738.6839      3756.9624      10102.073      0             -7464.9235      0              0             -254.3061       228561.93      61.141295      61.141295      61.141295      0.79033448    -4.1959058     -188.77158     -545.38243    
    144000   288000         470.85882      155.27873      21755.75       21241.842      11283.064      9958.7783      3806.9205      3623.5524      10039.727      0             -7511.4219      0              0             -256.13171      226932.84      60.995685      60.995685      60.995685      0.79600811    -358.20912      747.77058      76.274738    
    145000   290000         470.53672     -671.84502      19298.282      21555.12       11275.345      10279.775      3850.7395      3743.6053      10077.84       0             -7392.4094      0              0             -252.35107      230332.66      61.298782      61.298782      61.298782      0.78425862    -511.64815     -382.37979     -1121.5071    
    146000   292000         464.32186     -195.65696      20892.725      21549.332      11126.42       10422.912      3863.4473      3787.1256      10192.66       0             -7420.3208      0              0             -252.59604      230109.29      61.27896       61.27896       61.27896       0.78501993     504.24214     -825.97497     -265.23805    
    147000   294000         464.4793      -281.77747      20415.342      21349.966      11130.193      10219.773      3850.9942      3796.6095      10096.608      0             -7524.4388      0              0             -255.56753      227433.8       61.040536      61.040536      61.040536      0.79425475    -987.32532      146.97244     -4.9795349    
    148000   296000         461.53701     -617.56519      19309.391      21362.316      11059.688      10302.629      3861.1995      3768.0641      10195.753      0             -7522.3881      0              0             -255.00354      227936.81      61.085503      61.085503      61.085503      0.79250199    -903.15291     -463.18419     -486.35848    
    149000   298000         478.66666      180.62889      22134.417      21536.785      11470.161      10066.625      3781.5732      3736.8213      10101.905      0             -7553.6745      0              0             -256.20669      226866.42      60.989734      60.989734      60.989734      0.79624113     131.12741     -45.781702      456.54095    
    150000   300000         467.89803      167.24034      21627.488      21070.943      11212.115      9858.8276      3806.1744      3585.0327      10031.239      0             -7563.6181      0              0             -254.72807      228183.31      61.107516      61.107516      61.107516      0.79164588     137.93455      100.82067      262.9658     
    151000   302000         470.76158     -382.02072      20079.167      21341.618      11280.734      10060.885      3888.9335      3748.1595      9987.1539      0             -7563.3622      0              0             -256.51265      226595.82      60.965476      60.965476      60.965476      0.797192      -121.04918     -1073.0734      48.06046     
    152000   304000         468.60457     -95.693184      20940.092      21256.745      11229.046      10027.7        3844.875       3708.2516      10048.802      0             -7574.2289      0              0             -256.17326      226896.02      60.992387      60.992387      60.992387      0.79613725    -101.8826       820.72614     -1005.9231    
    153000   306000         475.20376      545.42739      23396.595      21565.274      11387.18       10178.093      3822.237       3771.8168      10005.63       0             -7421.5908      0              0             -252.4696       230224.53      61.289188      61.289188      61.289188      0.78462698    -7.4707041      694.16759      949.58528    
    154000   308000         470.86446      639.6404       23243.51       21136.311      11283.199      9853.1124      3725.5842      3795.6666      9937.9872      0             -7606.1257      0              0             -257.31607      225888.32      60.901959      60.901959      60.901959      0.79968887     500.87162      691.488        726.56158    
    155000   310000         466.01323     -624.74312      19041.066      21101.465      11166.95       9934.5151      3778.2622      3744.0846      10009.946      0             -7597.7782      0              0             -257.0317       226138.24      60.92441       60.92441       60.92441       0.7988051     -295.71485     -555.0535      -1023.461     
    156000   312000         463.74482     -263.65102      20167.586      21044.28       11112.593      9931.6868      3744.4386      3684.5188      10012.113      0             -7509.3833      0              0             -254.92828      228004.11      61.091514      61.091514      61.091514      0.79226809    -664.24402     -330.6162       203.90716    
    157000   314000         470.9452       921.52503      24244.564      21196.08       11285.134      9910.9467      3765.1558      3622.8476      10085.124      0             -7562.1811      0              0             -256.24759      226830.21      60.986489      60.986489      60.986489      0.79636826     1052.91        28.41256       1683.2526    
    158000   316000         467.44197     -369.65087      19936.43       21162.233      11201.187      9961.0467      3820.0429      3717.5521      10000.452      0             -7577           0              0             -255.62757      227380.38      61.035756      61.035756      61.035756      0.79444135     231.83417     -550.18718     -790.5996     
    159000   318000         470.45494      108.62627      21466.52       21107.05       11273.386      9833.6642      3753.4436      3655.3362      9998.5314      0             -7573.647       0              0             -256.15848      226909.12      60.99356       60.99356       60.99356       0.7960913     -49.644679      54.311357      321.21212    
    160000   320000         467.52121     -292.27057      20264.573      21230.173      11203.085      10027.087      3880.3689      3614.3986      10117.3        0             -7584.9801      0              0             -256.58117      226535.31      60.960048      60.960048      60.960048      0.79740494    -171.75925     -36.449515     -668.60293    
    161000   322000         477.03202     -470.33515      19875.402      21435.856      11430.99       10004.866      3782.7725      3754.4785      10049.119      0             -7581.5039      0              0             -255.50126      227492.79      61.045813      61.045813      61.045813      0.7940488     -651.34413     -414.77157     -344.88975    
    162000   324000         456.75827     -805.53931      18416.968      21072.033      10945.176      10126.857      3757.1437      3805.9505      10156.719      0             -7592.9556      0              0             -257.18644      226002.18      60.912189      60.912189      60.912189      0.79928601    -528.02431     -882.43759     -1006.156     
    163000   326000         470.18341     -195.03787      20553.552      21200.204      11266.879      9933.3251      3740.9201      3777.6003      9961.2021      0             -7546.3974      0              0             -255.67293      227340.05      61.032147      61.032147      61.032147      0.79458231     107.14457     -514.32558     -177.9326     
    164000   328000         461.03573     -179.98775      20405.607      21001.429      11047.676      9953.7536      3812.0855      3736.6512      9988.3862      0             -7583.3694      0              0             -256.07232      226985.46      61.0004        61.0004        61.0004        0.79582356    -396.42274     -346.30743      202.76693    
    165000   330000         467.66394      225.24835      21895.869      21154.145      11206.506      9947.6394      3789.6545      3691.5912      10061.444      0             -7595.0499      0              0             -257.42799      225790.11      60.893131      60.893131      60.893131      0.8000367      294.76408      69.21984       311.76112    
    166000   332000         462.17589     -418.26377      19651.054      21020.717      11074.997      9945.7201      3851.8803      3719.2687      9991.7847      0             -7617.2136      0              0             -258.86489      224536.81      60.780254      60.780254      60.780254      0.8045023     -1032.4556     -69.548748     -152.78697    
    167000   334000         461.78081     -190.77406      20389.795      21025.966      11065.53       9960.436       3797.8446      3659.9132      9985.5125      0             -7482.8343      0              0             -254.204        228653.73      61.14948       61.14948       61.14948       0.79001718    -260.42706     -239.46699     -72.42814     
    168000   336000         472.24075     -225.86942      20769.792      21516.62       11316.178      10200.441      3828.2291      3834.5767      10086.354      0             -7548.7188      0              0             -256.37382      226718.53      60.976478      60.976478      60.976478      0.79676055    -91.184624     -820.94223      234.5186     
    169000   338000         460.16028      27.766296      21155.505      21064.108      11026.697      10037.41       3888.9906      3674.5235      10065.145      0             -7591.2494      0              0             -257.52678      225703.49      60.885344      60.885344      60.885344      0.80034374     271.45569     -153.47674     -34.68007     
    170000   340000         469.53352      199.10617      21838.593      21183.553      11251.306      9932.2466      3776.4477      3676.4542      10090.464      0             -7611.1197      0              0             -257.66375      225583.52      60.874554      60.874554      60.874554      0.8007694      374.75367      463.5466      -240.98176    
    171000   342000         464.06584      841.33096      23808.83       21032.351      11120.285      9912.0654      3752.3734      3678.3296      10073.385      0             -7592.0225      0              0             -256.86743      226282.85      60.937394      60.937394      60.937394      0.79829461     678.70833      756.47927      1088.8053    
    172000   344000         469.47725     -213.48145      20395.594      21098.057      11249.957      9848.0996      3717.3669      3668.8679      10088.768      0             -7626.9035      0              0             -257.61615      225625.19      60.878302      60.878302      60.878302      0.80062149    -891.0886      -28.661758      279.30599    
    173000   346000         458.14704      540.65953      22754.731      20979.207      10978.455      10000.752      3744.9867      3819.4948      10063.066      0             -7626.7951      0              0             -258.1272       225178.5       60.8381        60.8381        60.8381        0.8022097      332.99468      1.0746666      1287.9092    
    174000   348000         459.34557     -14.523694      21153.692      21202.215      11007.175      10195.041      3871.9541      3741.732       10081.657      0             -7500.3029      0              0             -253.72459      229085.78      61.187969      61.187969      61.187969      0.78852726     148.56244     -348.61903      156.48551    
    175000   350000         466.32996      607.97525      23053.296      21047.768      11174.54       9873.228       3684.1561      3762.6549      10074.551      0             -7648.1335      0              0             -256.97666      226186.67      60.928759      60.928759      60.928759      0.79863407     628.34691      507.14971      688.42913    
    176000   352000         464.73861     -340.04065      19947.386      21071.013      11136.407      9934.6058      3734.5517      3694.7935      9993.886       0             -7488.6255      0              0             -256.53425      226576.74      60.963764      60.963764      60.963764      0.79725915     158.89778     -881.54153     -297.47821    
    177000   354000         464.58962     -39.79366       20776.13       20907.246      11132.836      9774.4098      3738.6175      3679.2866      9991.1762      0             -7634.6706      0              0             -257.27229      225926.76      60.905413      60.905413      60.905413      0.79955282    -348.44873      91.518865      137.54889    
    178000   356000         470.97768      478.54023      22727.575      21150.655      11285.912      9864.7428      3823.5109      3630.431       10025.707      0             -7614.9056      0              0             -257.244        225951.6       60.907645      60.907645      60.907645      0.79946491     75.524762      847.67136      512.42456    
    179000   358000         468.84527     -102.93823      20815.76       21153.6        11234.813      9918.7863      3877.6432      3648.0046      10045.961      0             -7652.822       0              0             -258.28693      225039.24      60.825555      60.825555      60.825555      0.80270614    -537.27928      147.52533      80.939257    
    180000   360000         471.92702      477.87301      22666.475      21101.677      11308.661      9793.0167      3742.5631      3707.9508      10007.513      0             -7665.0102      0              0             -258.87552      224527.58      60.779422      60.779422      60.779422      0.80453536     807.51142     -140.32906      766.43668    
    181000   362000         460.73037     -52.591055      20668.289      20839.919      11040.358      9799.5602      3774.103       3712.6365      9988.0152      0             -7675.1945      0              0             -259.75077      223771.02      60.711078      60.711078      60.711078      0.80725546     423.59861     -34.370692     -547.00109    
    182000   364000         463.7875       28.461262      21193.638      21099.945      11113.616      9986.3299      3810.5541      3801.3625      9994.707       0             -7620.2938      0              0             -257.50425      225723.25      60.88712       60.88712       60.88712       0.80027371    -531.9454       275.21227      342.11691    
    183000   366000         469.23796     -343.56104      20077.977      21204.398      11244.223      9960.1747      3819.5818      3682.5274      10053.432      0             -7595.3663      0              0             -258.54718      224812.72      60.80514       60.80514       60.80514       0.80351493    -734.60116     -581.49614      285.41417    
    184000   368000         462.55767      454.75777      22601.432      21100.391      11084.146      10016.245      3831.7003      3694.4788      10076.455      0             -7586.3888      0              0             -256.81714      226327.17      60.941372      60.941372      60.941372      0.7981383      222.02798      986.63199      155.61333    
    185000   370000         469.32382      141.87362      21633.545      21166.219      11246.281      9919.9385      3811.6693      3712.4281      9981.1137      0             -7585.2726      0              0             -257.34656      225861.56      60.899553      60.899553      60.899553      0.79978364     636.59532     -427.38431      216.40985    
    186000   372000         464.47083     -65.835139      20717.529      20935.055      11129.99       9805.0649      3802.0014      3590.1777      10012.08       0             -7599.1944      0              0             -256.55729      226556.4       60.96194       60.96194       60.96194       0.79733074     126.76154     -258.38584     -65.88112     
    187000   374000         469.76611      172.96426      21673.328      21105.78       11256.879      9848.9003      3685.8982      3753.6205      10022.007      0             -7612.6255      0              0             -258.33907      224993.83      60.821464      60.821464      60.821464      0.80286816     336.675       -25.328591      207.54638    
    188000   376000         476.13348      21.960177      21214.568      21142.346      11409.459      9732.8872      3745.6081      3625.4664      9999.0824      0             -7637.2697      0              0             -257.75355      225504.92      60.867483      60.867483      60.867483      0.80104849     446.90308      168.67458     -549.69712    
    189000   378000         469.54567      685.65367      23371.246      21107.704      11251.597      9856.1073      3785.2141      3710.8774      9949.0763      0             -7589.0605      0              0             -256.77506      226364.25      60.944701      60.944701      60.944701      0.79800752     1274.5343      614.21333      168.2134     
    190000   380000         460.29217      46.396199      21157.536      21003.338      11029.858      9973.4804      3769.6539      3665.9325      10047.419      0             -7509.525       0              0             -255.05971      227886.62      61.081019      61.081019      61.081019      0.79267656    -419.30157      505.01222      53.477943    
    191000   382000         462.78796      313.19367      22081.166      21039.084      11089.664      9949.4199      3743.7746      3671.847       10065.829      0             -7532.0308      0              0             -254.76956      228146.16      61.104198      61.104198      61.104198      0.79177481     463.51477     -1.7299821      477.79622    
    192000   384000         462.99719     -147.1214       20517.032      21000.692      11094.677      9906.0147      3855.9385      3705.1959      9952.0381      0             -7607.1579      0              0             -257.8527       225418.21      60.85968       60.85968       60.85968       0.80135662    -291.18359      500.68696     -650.86756    
    193000   386000         462.98264      407.96272      22315.219      20980.938      11094.329      9886.6095      3718.4982      3699.6319      10086.051      0             -7617.5714      0              0             -259.18497      224259.51      60.755224      60.755224      60.755224      0.80549707     25.192882      517.6441       681.05117    
    194000   388000         457.96583     -111.1531       20584.035      20953.287      10974.112      9979.1745      3760.9845      3719.9732      10027.337      0             -7529.1206      0              0             -255.17311      227785.34      61.071969      61.071969      61.071969      0.79302898    -120.45797     -277.3176       64.316283    
    195000   390000         465.51786     -291.83856      20082.426      21044.739      11155.08       9889.6592      3815.6229      3640.3093      10036.869      0             -7603.142       0              0             -257.07685      226098.52      60.920843      60.920843      60.920843      0.79894544    -343.79275     -53.61108      -478.11186    
    196000   392000         464.62162      99.462555      21489.958      21163.287      11133.603      10029.684      3858.5094      3745.1865      10005.772      0             -7579.7843      0              0             -258.09892      225203.17      60.840321      60.840321      60.840321      0.80212183     192.09844     -48.266912      154.55614    
    197000   394000         462.34465      454.52259      22502.939      21002.063      11079.041      9923.0217      3831.6848      3713.415       9921.7351      0             -7543.8132      0              0             -256.71257      226419.36      60.949646      60.949646      60.949646      0.79781331     178.94268      319.00309      865.622      
    198000   396000         466.11848      127.59044      21499.529      21078.957      11169.472      9909.4851      3777.4953      3734.3762      9972.4386      0             -7574.825       0              0             -257.16696      226019.3       60.913727      60.913727      60.913727      0.79922547     5.0662796     -185.01308      562.71811    
    199000   398000         465.43188      68.380737      21360.637      21137.036      11153.019      9984.0164      3812.6179      3761.2504      10039.318      0             -7629.1697      0              0             -259.23631      224215.1       60.751213      60.751213      60.751213      0.80565662    -459.75163      174.41255      490.48129    
[...]
    958000   1916000        402.53206     -266.5757       16831.414      17676.48       9645.768       8030.7121      3313.6853      3269.1862      9584.0291      0             -8136.1884      0              0             -267.403        217367.4       60.126345      60.126345      60.126345      0.83103713    -176.65069     -471.57162     -151.50479    
    959000   1918000        407.75178     -517.98628      16258.178      17892.254      9770.8466      8121.4078      3410.0478      3209.299       9598.4639      0             -8096.4029      0              0             -268.70911      216310.84      60.028768      60.028768      60.028768      0.83509627    -730.92246     -215.5934      -607.44296    
    960000   1920000        394.76563     -261.33273      16552.432      17380.003      9459.6631      7920.3403      3277.4312      3157.0009      9565.0707      0             -8079.1624      0              0             -267.6857       217137.84      60.105171      60.105171      60.105171      0.83191569    -806.40312     -192.27622      214.68114    
    961000   1922000        400.50721      40.362084      17590.348      17462.806      9597.2469      7865.5586      3273.1185      3166.3878      9567.7721      0             -8141.7198      0              0             -268.25994      216673.03      60.062253      60.062253      60.062253      0.83370033    -397.13426      254.35494      263.86557    
    962000   1924000        397.32528      46.409444      17644.322      17499.066      9520.9992      7978.0666      3394.5502      3154.1918      9607.3317      0             -8178.0072      0              0             -270.83801      214610.55      59.871071      59.871071      59.871071      0.84171247     228.10907     -175.46835      86.587617    
    963000   1926000        400.4299       54.825791      17810.101      17636.89       9595.3943      8041.496       3302.7433      3210.9483      9653.4741      0             -8125.6697      0              0             -268.31559      216628.1       60.058101      60.058101      60.058101      0.83387326     193.82986     -277.12127      247.76879    
    964000   1928000        406.24274      205.56015      18293.428      17649.453      9734.6858      7914.7667      3266.048       3200.4068      9630.0471      0             -8181.7352      0              0             -270.58652      214810.02      59.889614      59.889614      59.889614      0.84093088     305.25736     -409.87216      721.29525    
    965000   1930000        404.32365      174.93415      18299.737      17744.325      9688.6992      8055.6257      3316.4861      3219.3552      9624.3405      0             -8104.5561      0              0             -266.99073      217703.04      60.157277      60.157277      60.157277      0.82975587     68.615728      296.17983      160.00689    
    966000   1932000        403.79224      257.96576      18642.088      17828.017      9675.9653      8152.052       3456.2484      3156.0528      9630.7236      0             -8090.9727      0              0             -268.61898      216383.42      60.035481      60.035481      60.035481      0.83481616    -190.24494      613.87931      350.26292    
    967000   1934000        397.2246      -90.469725      17226.035      17510.65       9518.5866      7992.0631      3296.0343      3197.9313      9647.4806      0             -8149.383       0              0             -269.45288      215713.77      59.973485      59.973485      59.973485      0.83740774     193.22593     -488.18853      23.553426    
    968000   1936000        401.90827      69.855529      17566.146      17346.838      9630.8203      7716.0181      3233.0134      3115.0562      9600.4862      0             -8232.5377      0              0             -270.01269      215266.53      59.932009      59.932009      59.932009      0.83914754     205.09865      171.90075     -167.43281    
    969000   1938000        403.92994     -275.90204      16693.617      17560.566      9679.265       7881.3006      3227.1269      3288.3165      9553.8477      0             -8187.9905      0              0             -269.77282      215457.94      59.949767      59.949767      59.949767      0.83840205    -11.694444     -520.358       -295.65369    
    970000   1940000        402.94987      189.29416      18140.698      17551.536      9655.7798      7895.7562      3282.7175      3257.2933      9631.6257      0             -8275.8803      0              0             -272.35726      213413.42      59.75954       59.75954       59.75954       0.84643401     550.65927     -489.90172      507.12494    
    971000   1942000        403.25176      19.251544      17716.163      17655.492      9663.0138      7992.478       3289.6695      3189.5975      9626.9518      0             -8113.7408      0              0             -268.97947      216093.43      60.008649      60.008649      60.008649      0.83593648    -56.556908     -199.17232      313.48386    
    972000   1944000        406.06054      269.34626      18628.944      17777.482      9730.32        8047.1615      3350.6845      3224.7428      9558.5276      0             -8086.7933      0              0             -268.15255      216759.81      60.07027       60.07027       60.07027       0.83336657     303.62268     -479.52447      983.94057    
    973000   1946000        398.45458      694.09535      19559.469      17390.005      9548.0602      7841.9447      3339.9654      3147.5242      9560.3263      0             -8205.8712      0              0             -271.20842      214317.44      59.843801      59.843801      59.843801      0.84286364     466.41964      442.5544       1173.312     
    974000   1948000        394.85739      66.836651      17525.112      17316.347      9461.8619      7854.4849      3235.8198      3222.364       9573.7934      0             -8177.4924      0              0             -271.38932      214174.58      59.830501      59.830501      59.830501      0.84342585     378.61574      42.663407     -220.76919    
    975000   1950000        402.34348     -383.39011      16357.82       17566.261      9641.249       7925.0117      3307.9514      3178.2063      9605.5811      0             -8166.7271      0              0             -268.9379       216126.83      60.011741      60.011741      60.011741      0.83580729    -300.61534     -266.80131     -582.75369    
    976000   1952000        408.67894      40.923423      17944.155      17814.103      9793.0639      8021.0394      3295.5854      3216.633       9594.3819      0             -8085.561       0              0             -266.74248      217905.66      60.175933      60.175933      60.175933      0.82898435    -372.51215     -169.86583      665.14825    
    977000   1954000        403.2968      -255.83692      16916.738      17720.103      9664.0931      8056.0095      3333.3382      3239.8794      9665.9423      0             -8183.1504      0              0             -269.95232      215314.67      59.936476      59.936476      59.936476      0.83895992    -170.63432     -8.2573196     -588.61911    
    978000   1956000        391.04722     -353.68491      16086.064      17202.717      9370.5597      7832.1572      3282.9417      3147.3779      9581.7708      0             -8179.9332      0              0             -268.49424      216483.96      60.044777      60.044777      60.044777      0.83442848    -375.69167     -504.1699      -181.19316    
    979000   1958000        404.09714     -159.37367      17043.299      17540.356      9683.2714      7857.0845      3269.7377      3172.7297      9620.0437      0             -8205.4266      0              0             -271.79826      213852.34      59.80048       59.80048       59.80048       0.84469675     134.1805       270.81459     -883.11611    
    980000   1960000        399.1087      -261.51543      16760.375      17579.333      9563.7348      8015.5978      3342.0779      3308.4818      9536.1236      0             -8171.0855      0              0             -270.69015      214727.78      59.88197       59.88197       59.88197       0.84125296    -599.78557     -385.23331      200.47258    
    981000   1962000        400.93157      198.47424      18146.45       17525.073      9607.4157      7917.6572      3304.3257      3125.5742      9622.2966      0             -8134.5394      0              0             -270.76068      214671.84      59.87677       59.87677       59.87677       0.84147216     207.52499      240.99482      146.9029     
    982000   1964000        394.58412     -434.00159      15997.323      17357.948      9455.3135      7902.6343      3304.3767      3194.9946      9580.64        0             -8177.3769      0              0             -270.38925      214966.74      59.904174      59.904174      59.904174      0.84031782    -451.55752     -261.41137     -589.03588    
    983000   1966000        406.98881     -365.61802      16423.54       17568.81       9752.5639      7816.2465      3229.1488      3202.8012      9599.0035      0             -8214.707       0              0             -270.61764      214785.31      59.887317      59.887317      59.887317      0.84102762    -5.6512341     -1063.0549     -28.147928    
    984000   1968000        406.14144      837.20373      20480.881      17814.019      9732.2585      8081.7608      3315.0003      3229.8088      9584.1378      0             -8047.1862      0              0             -266.11365      218420.57      60.223295      60.223295      60.223295      0.82703007     1104.7971      330.8865       1075.9276    
    985000   1970000        403.92515     -297.26764      16783.918      17727.436      9679.15        8048.2861      3313.0569      3202.8619      9605.1416      0             -8072.7744      0              0             -267.07549      217633.95      60.150912      60.150912      60.150912      0.83001928    -836.43563     -53.22405      -2.1432392    
    986000   1972000        403.83745      352.31201      18752.414      17646.208      9677.0487      7969.1592      3293.8433      3214.4848      9604.2414      0             -8143.4104      0              0             -269.97774      215294.4       59.934595      59.934595      59.934595      0.83903891     806.50692     -96.778703      347.20782    
    987000   1974000        399.62412      326.39447      18495.794      17462.052      9576.0856      7885.9668      3297.6105      3166.8562      9532.8082      0             -8111.3081      0              0             -267.65003      217166.78      60.107841      60.107841      60.107841      0.83180484     248.90907      43.959377      686.31495    
    988000   1976000        399.02042     -481.91751      15853.61       17375.423      9561.6194      7813.8037      3237.087       3186.0056      9517.7626      0             -8127.0514      0              0             -268.44041      216527.36      60.04879       60.04879       60.04879       0.8342612     -496.65522     -766.00079     -183.09653    
    989000   1978000        401.27319     -89.816179      17140.692      17424.442      9615.602       7808.8396      3264.851       3152.1682      9501.2386      0             -8109.4182      0              0             -268.32203      216622.9       60.05762       60.05762       60.05762       0.83389329     100.93761     -197.77523     -172.61092    
    990000   1980000        405.3945      -40.571248      17270.207      17397.767      9714.3598      7683.4069      3204.3562      3149.6182      9504.527       0             -8175.0946      0              0             -269.61389      215584.94      59.961544      59.961544      59.961544      0.83790814    -155.98066     -504.77634      539.04326    
    991000   1982000        400.83971      516.40585      19201.293      17575.859      9605.2145      7970.6447      3257.5011      3262.6055      9604.017       0             -8153.4788      0              0             -269.31372      215825.23      59.983813      59.983813      59.983813      0.83697527    -143.97014      958.11564      735.07206    
    992000   1984000        397.18915     -173.36912      16946.741      17493.944      9517.7372      7976.2068      3113.7313      3354.9891      9620.9782      0             -8113.4918      0              0             -268.57162      216421.58      60.03901       60.03901       60.03901       0.83466897     265.36848     -20.138832     -765.337      
    993000   1986000        396.29442      672.8817       19373.429      17266.416      9496.297       7770.1187      3227.2439      3216.038       9573.4997      0             -8246.663       0              0             -270.7123       214710.21      59.880336      59.880336      59.880336      0.8413218      655.65889      606.91272      756.07348    
    994000   1988000        392.75707     -173.04122      16706.385      17247.884      9411.5324      7836.3519      3253.6135      3254.6803      9541.7857      0             -8213.7276      0              0             -270.88684      214571.86      59.867473      59.867473      59.867473      0.84186423     2.9229131     -743.34731      221.30075    
    995000   1990000        405.59503     -46.2339        17432.133      17577.723      9719.165       7858.5581      3270.6268      3242.8508      9530.6695      0             -8185.589       0              0             -269.19437      215920.91      59.992676      59.992676      59.992676      0.83660437     203.58246      191.85991     -534.14407    
    996000   1992000        399.53444      715.26835      19747.938      17511.308      9573.9366      7937.3714      3281.1884      3162.601       9662.9732      0             -8169.3912      0              0             -271.08871      214412.08      59.852609      59.852609      59.852609      0.84249161     692.06231      721.91876      731.82397    
    997000   1994000        399.70162     -205.82553      16853.126      17493.764      9577.9428      7915.8211      3322.1371      3211.8367      9612.161       0             -8230.3136      0              0             -272.34727      213421.25      59.76027       59.76027       59.76027       0.84640297    -176.35471     -427.66262     -13.459253    
    998000   1996000        401.57457      199.15435      18127.484      17503.852      9622.8239      7881.0283      3260.1621      3195.5198      9637.2423      0             -8211.8959      0              0             -270.70611      214715.12      59.880793      59.880793      59.880793      0.84130256     266.90484      319.97216      10.586062    
    999000   1998000        404.24354     -310.3686       16521.371      17501.97       9686.7796      7815.1901      3169.2531      3203.8218      9587.2036      0             -8145.0884      0              0             -268.30143      216639.53      60.059157      60.059157      60.059157      0.83382927    -365.03531     -2.6888018     -563.3817     
   1000000   2000000        405.40125      354.7003       18660.378      17541.03       9714.5215      7826.5089      3207.5135      3181.7316      9581.313       0             -8144.0492      0              0             -268.61686      216385.13      60.035639      60.035639      60.035639      0.83480957     299.77562      282.16757      482.1577     
Loop time of 1711.79 on 1 procs for 1000000 steps with 8040 atoms

Performance: 100.947 ns/day, 0.238 hours/ns, 584.184 timesteps/s, 4.697 Matom-step/s
99.5% CPU use with 1 MPI tasks x 1 OpenMP threads

MPI task timing breakdown:
Section |  min time  |  avg time  |  max time  |%varavg| %total
---------------------------------------------------------------
Pair    | 182.48     | 182.48     | 182.48     |   0.0 | 10.66
Bond    | 1208.1     | 1208.1     | 1208.1     |   0.0 | 70.58
Neigh   | 0.70283    | 0.70283    | 0.70283    |   0.0 |  0.04
Comm    | 105.4      | 105.4      | 105.4      |   0.0 |  6.16
Output  | 16.311     | 16.311     | 16.311     |   0.0 |  0.95
Modify  | 154.08     | 154.08     | 154.08     |   0.0 |  9.00
Other   |            | 44.72      |            |       |  2.61

Nlocal:           8040 ave        8040 max        8040 min
Histogram: 1 0 0 0 0 0 0 0 0 0
Nghost:          20892 ave       20892 max       20892 min
Histogram: 1 0 0 0 0 0 0 0 0 0
Neighs:              0 ave           0 max           0 min
Histogram: 1 0 0 0 0 0 0 0 0 0

Total # of neighbors = 0
Ave neighs/atom = 0
Ave special neighs/atom = 5.9701493
Neighbor list builds = 34643
Dangerous builds = 0

# --- Cleanup ---
unfix npt_fix

undump dump_npt

# --- Write Output ---
write_dump all custom npt_cool_melt_last.dump id type mol x y z xu yu zu vx vy vz modify sort id
write_data /home/arz2/PolyJarvis/data/cis-PBD3/lammps/npt_cool_melt/npt_cool_melt_out.data
System init for write_data ...
Generated 3 of 3 mixed pair_coeff terms from arithmetic mixing rule

print "STAGE COMPLETE: NPT T=480.0->400.0K P=1.0->1.0atm steps=1000000"
STAGE COMPLETE: NPT T=480.0->400.0K P=1.0->1.0atm steps=1000000
quit
  | 0.70283    | 0.70283    |   0.0 |  0.04
Comm    | 105.4      | 105.4      | 105.4      |   0.0 |  6.16
Output  | 16.311     | 16.311     | 16.311     |   0.0 |  0.95
Modify  | 154.08     | 154.08     | 154.08     |   0.0 |  9.00
Other   |            | 44.72      |            |       |  2.61

Nlocal:           8040 ave        8040 max        8040 min
Histogram: 1 0 0 0 0 0 0 0 0 0
Nghost:          20892 ave       20892 max       20892 min
Histogram: 1 0 0 0 0 0 0 0 0 0
Neighs:              0 ave           0 max           0 min
Histogram: 1 0 0 0 0 0 0 0 0 0

Total # of neighbors = 0
Ave neighs/atom = 0
Ave special neighs/atom = 5.9701493
Neighbor list builds = 34643
Dangerous builds = 0
System init for write_data ...


---------------------------------------------------------------------
      Device Time Info (average): 
---------------------------------------------------------------------
Data Transfer:   87.4881 s.
Neighbor copy:   5.4700 s.
Neighbor build:  18.5334 s.
Force calc:      554.8668 s.
Device Overhead: 31.8496 s.
CPU Neighbor:    11.1455 s.
CPU Cast/Pack:   74.6393 s.
CPU Driver_Time: 12.7756 s.
CPU Idle_Time:   1.8697 s.
Average split:   1.0000.
Max Mem / Proc:  94.80 MB.
Prefetch mode:   None.
Vector width:    32.
Lanes / atom:    4.
Pair block:      256.
Neigh block:     128.
Neigh mode:      Hybrid (binning on host) with subgroup support.
Neigh sorting:   Unavailable or disabled.
---------------------------------------------------------------------


--------------------------------------------------------------------------
- Using acceleration for lj/cut:
-  with 1 proc(s) per device.
-  with 1 thread(s) per proc.
-  Horizontal vector operations: ENABLED
-  Shared memory system: No
--------------------------------------------------------------------------
Device 0: Quadro RTX 6000, 72 CUs, 23/24 GB, 1.8 GHZ (Mixed Precision)
--------------------------------------------------------------------------

Initializing Device and compiling on process 0...Done.
Initializing Device 0 on core 0...Done.

Generated 3 of 3 mixed pair_coeff terms from arithmetic mixing rule
STAGE COMPLETE: NPT T=480.0->400.0K P=1.0->1.0atm steps=1000000
Cuda driver error 4 in call at file '/home/arz2/lammps/lib/gpu/geryon/nvd_timer.h' in line 98.
Cuda driver error 4 in call at file '/home/arz2/lammps/lib/gpu/geryon/nvd_timer.h' in line 99.
Cuda driver error 4 in call at file '/home/arz2/lammps/lib/gpu/geryon/nvd_timer.h' in line 98.
Cuda driver error 4 in call at file '/home/arz2/lammps/lib/gpu/geryon/nvd_timer.h' in line 99.
Cuda driver error 4 in call at file '/home/arz2/lammps/lib/gpu/geryon/nvd_timer.h' in line 98.
Cuda driver error 4 in call at file '/home/arz2/lammps/lib/gpu/geryon/nvd_timer.h' in line 99.
