units real
atom_style full
boundary p p p

# --- Force Field Styles ---
pair_style lj/class2/coul/long 9.5 9.5
kspace_style pppm 1e-6
dielectric 1.000000
bond_style class2
angle_style class2
dihedral_style class2
improper_style class2
special_bonds lj/coul 0 0 1
pair_modify mix sixthpower tail yes
neighbor 2.0 bin
neigh_modify delay 0 every 1 check yes
neigh_modify one 4000
# KOKKOS: package loaded via -pk kokkos on the command line

read_data /home/arz2/PolyJarvis/data/PSU4/lammps/equil/npt_production/npt_production_out.data
Reading data file ...
  orthogonal box = (4.9286449 4.9286449 4.9286449) to (56.963997 56.963997 56.963997)
  1 by 1 by 1 MPI processor grid
  reading atoms ...
  10816 atoms
  reading velocities ...
  10816 velocities
  scanning bonds ...
  4 = max bonds/atom
  scanning angles ...
  16 = max angles/atom
  scanning dihedrals ...
  38 = max dihedrals/atom
  scanning impropers ...
  12 = max impropers/atom
  orthogonal box = (4.9286449 4.9286449 4.9286449) to (56.963997 56.963997 56.963997)
  1 by 1 by 1 MPI processor grid
  reading bonds ...
  11608 bonds
  reading angles ...
  19600 angles
  reading dihedrals ...
  29184 dihedrals
  reading impropers ...
  8000 impropers
Finding 1-2 1-3 1-4 neighbors ...
  special bond factors lj:    0        0        1       
  special bond factors coul:  0        0        1       
     4 = max # of 1-2 neighbors
    10 = max # of 1-3 neighbors
    14 = max # of special neighbors
  special bonds CPU = 0.006 seconds
  read_data CPU = 0.417 seconds
include /home/arz2/PolyJarvis/data/PSU4/lammps/equil/emc_build.params
# LAMMPS parameters created by EMC v9.4.4, build Jul 31 2025 20:33:44

# Variables

variable	seed		index	734512
variable	ntotal		index	10816
variable	fshape		index	1
variable	output		index	emc_build
variable	field		index	pcff/pcff
variable	location1	index	/home/arz2/emc/field/
variable	nav		index	0.6022141179
variable	temperature	index	300
variable	radius		index	5
variable	nrelax		index	100
variable	weight_nonbond	index	0.0001
variable	weight_bond	index	0.0001
variable	weight_focus	index	1
variable	cutoff		index	9.5
variable	charge_cutoff	index	9.5
variable	kappa		index	4
variable	density1	index	0.62
variable	lprevious	index	0
variable	lphase		index	61.8926417911
variable	f_poly		index	8
variable	chem_repeat	index	*Oc1ccc(C(C)(C)c2ccc(Oc3ccc(S(=O)(=O)c4ccc(*)cc4)cc3)cc2)cc1
variable	chem_cap	index	*[H]
variable	lg_repeat	index	54
variable	lg_cap		index	1
variable	norm_poly	index	100
variable	l_poly		index	1352
variable	mg_repeat	index	414.52744
variable	mg_cap		index	0
variable	m_poly		index	10363.186
variable	n_poly		index	8
variable	mtotal		index	88523.72552
variable	nphase1		index	10816
variable	mphase1		index	88523.72552
variable	vphase1		index	237092.087694
variable	lbox		index	61.8926417911
variable	lphase1		index	61.8926417911
variable	lxx		index	61.8926417911
variable	lyy		index	61.8926417911
variable	lzz		index	61.8926417911
variable	lzy		index	0
variable	lzx		index	0
variable	lyx		index	0
variable	vtotal		index	237092.087694
variable	nl_poly		index	8

# Types

variable	type_c		index	1
variable	type_cp		index	2
variable	type_hc		index	3
variable	type_ho		index	4
variable	type_oe		index	5
variable	type_oc		index	6
variable	type_oh		index	7
variable	type_sf		index	8

variable	type_bond_c_c	index	1
variable	type_bond_c_cp	index	2
variable	type_bond_c_hc	index	3
variable	type_bond_cp_cp	index	4
variable	type_bond_cp_hc	index	5
variable	type_bond_cp_oc	index	6
variable	type_bond_cp_oh	index	7
variable	type_bond_cp_sf	index	8
variable	type_bond_ho_oh	index	9
variable	type_bond_oe_sf	index	10

variable	type_angle_c_c_c index	1
variable	type_angle_c_c_cp index	2
variable	type_angle_c_c_hc index	3
variable	type_angle_c_cp_cp index	4
variable	type_angle_cp_c_cp index	5
variable	type_angle_cp_cp_cp index	6
variable	type_angle_cp_cp_hc index	7
variable	type_angle_cp_cp_oc index	8
variable	type_angle_cp_cp_oh index	9
variable	type_angle_cp_cp_sf index	10
variable	type_angle_cp_oc_cp index	11
variable	type_angle_cp_oh_ho index	12
variable	type_angle_cp_sf_cp index	13
variable	type_angle_cp_sf_oe index	14
variable	type_angle_hc_c_hc index	15
variable	type_angle_oe_sf_oe index	16

# Clusters

variable	n0_poly		index	1
variable	n1_poly		index	8
variable	nl_poly		index	8

# Flags

variable	flag_charged	index	1

# Masses

mass		1    12.01115  # c
mass		2    12.01115  # cp
mass		3     1.00797  # hc
mass		4     1.00797  # ho
mass		5    15.99940  # o=
mass		6    15.99940  # oc
mass		7    15.99940  # oh
mass		8    32.06400  # sf

# Potentials

pair_modify	mix sixthpower tail yes
special_bonds	lj/coul 0 0 1

# Pair Coeffs

pair_coeff	 1  1    0.05400    4.01000  # c,c
pair_coeff	 2  2    0.06400    4.01000  # cp,cp
pair_coeff	 3  3    0.02000    2.99500  # hc,hc
pair_coeff	 4  4    0.01300    1.09800  # ho,ho
pair_coeff	 5  5    0.06000    3.53500  # o=,o=
pair_coeff	 6  6    0.24000    3.53500  # oc,oc
pair_coeff	 7  7    0.24000    3.53500  # oh,oh
pair_coeff	 8  8    0.25000    4.02700  # sf,sf

# Bond Coeffs

bond_coeff	 1    1.53000  299.67000 -501.77000  679.81000  # c,c
bond_coeff	 2    1.50100  321.90210 -521.82080  572.16280  # c,cp
bond_coeff	 3    1.10100  345.00000 -691.89000  844.60000  # c,hc
bond_coeff	 4    1.41700  470.83610 -627.61790 1327.63450  # cp,cp
bond_coeff	 5    1.09820  372.82510 -803.45260  894.31730  # cp,hc
bond_coeff	 6    1.37680  428.87980 -738.23510 1114.96550  # cp,oc
bond_coeff	 7    1.37680  428.87980 -738.23510 1114.96550  # cp,oh
bond_coeff	 8    1.72000  239.80240    0.00000    0.00000  # cp,sf
bond_coeff	 9    0.96500  532.50620 -1282.90500 2004.76580  # ho,oh
bond_coeff	10    1.43080  743.76000    0.00000    0.00000  # o=,sf

# Angle Coeffs

angle_coeff	 1  112.67000   39.51600   -7.44300   -9.55830  # c,c,c
angle_coeff	 2  108.40000   43.95940   -8.39240   -9.33790  # c,c,cp
angle_coeff	 3  110.77000   41.45300  -10.60400    5.12900  # c,c,hc
angle_coeff	 4  120.05000   44.71480  -22.73520    0.00000  # c,cp,cp
angle_coeff	 5  111.00000   44.32340   -9.44540    0.00000  # cp,c,cp
angle_coeff	 6  118.90000   61.02260  -34.99310    0.00000  # cp,cp,cp
angle_coeff	 7  117.94000   35.15580  -12.46820    0.00000  # cp,cp,hc
angle_coeff	 8  123.42000   73.67810  -21.67870    0.00000  # cp,cp,oc
angle_coeff	 9  123.42000   73.67810  -21.67870    0.00000  # cp,cp,oh
angle_coeff	10  120.00000   60.00000    0.00000    0.00000  # cp,cp,sf
angle_coeff	11  109.50000   60.00000    0.00000    0.00000  # cp,oc,cp
angle_coeff	12  108.19000   53.12500   -8.50160    0.00000  # cp,oh,ho
angle_coeff	13  102.00000   58.00000    0.00000    0.00000  # cp,sf,cp
angle_coeff	14  113.10000   42.30000    0.00000    0.00000  # cp,sf,o=
angle_coeff	15  107.66000   39.64100  -12.92100   -2.43180  # hc,c,hc
angle_coeff	16  119.32900  135.00000    0.00000    0.00000  # o=,sf,o=

# BondBond Coeffs

angle_coeff	 1 bb    0.00000    1.53000    1.53000  # c,c,c
angle_coeff	 2 bb    0.00000    1.53000    1.50100  # c,c,cp
angle_coeff	 3 bb    3.38720    1.53000    1.10100  # c,c,hc
angle_coeff	 4 bb   12.06760    1.50100    1.41700  # c,cp,cp
angle_coeff	 5 bb    0.00000    1.50100    1.50100  # cp,c,cp
angle_coeff	 6 bb   68.28560    1.41700    1.41700  # cp,cp,cp
angle_coeff	 7 bb    1.07950    1.41700    1.09820  # cp,cp,hc
angle_coeff	 8 bb   48.47540    1.41700    1.37680  # cp,cp,oc
angle_coeff	 9 bb   48.47540    1.41700    1.37680  # cp,cp,oh
angle_coeff	10 bb    0.00000    1.41700    1.72000  # cp,cp,sf
angle_coeff	11 bb    0.00000    1.37680    1.37680  # cp,oc,cp
angle_coeff	12 bb   20.65770    1.37680    0.96500  # cp,oh,ho
angle_coeff	13 bb    0.00000    1.72000    1.72000  # cp,sf,cp
angle_coeff	14 bb    0.00000    1.72000    1.43080  # cp,sf,o=
angle_coeff	15 bb    5.33160    1.10100    1.10100  # hc,c,hc
angle_coeff	16 bb   40.00000    1.43080    1.43080  # o=,sf,o=

# BondAngle Coeffs

angle_coeff	 1 ba    8.01600    8.01600    1.53000    1.53000  # c,c,c
angle_coeff	 2 ba    0.00000    0.00000    1.53000    1.50100  # c,c,cp
angle_coeff	 3 ba   20.75400   11.42100    1.53000    1.10100  # c,c,hc
angle_coeff	 4 ba   47.05790   31.07710    1.50100    1.41700  # c,cp,cp
angle_coeff	 5 ba    0.00000    0.00000    1.50100    1.50100  # cp,c,cp
angle_coeff	 6 ba   28.87080   28.87080    1.41700    1.41700  # cp,cp,cp
angle_coeff	 7 ba   20.00330   24.21830    1.41700    1.09820  # cp,cp,hc
angle_coeff	 8 ba   58.47900  107.68060    1.41700    1.37680  # cp,cp,oc
angle_coeff	 9 ba   58.47900  107.68060    1.41700    1.37680  # cp,cp,oh
angle_coeff	10 ba    0.00000    0.00000    1.41700    1.72000  # cp,cp,sf
angle_coeff	11 ba    0.00000    0.00000    1.37680    1.37680  # cp,oc,cp
angle_coeff	12 ba   53.86140   23.92240    1.37680    0.96500  # cp,oh,ho
angle_coeff	13 ba    0.00000    0.00000    1.72000    1.72000  # cp,sf,cp
angle_coeff	14 ba    0.00000    0.00000    1.72000    1.43080  # cp,sf,o=
angle_coeff	15 ba   18.10300   18.10300    1.10100    1.10100  # hc,c,hc
angle_coeff	16 ba    0.00000    0.00000    1.43080    1.43080  # o=,sf,o=

# Dihedral Coeffs

dihedral_coeff	 1    0.00000    0.00000    0.03160    0.00000   -0.16810    0.00000  # c,c,c,hc
dihedral_coeff	 2   -0.28020    0.00000   -0.06780    0.00000   -0.01220    0.00000  # c,c,cp,cp
dihedral_coeff	 3    0.00000    0.00000    4.40720    0.00000    0.00000    0.00000  # c,cp,cp,cp
dihedral_coeff	 4    0.00000    0.00000    1.55900    0.00000    0.00000    0.00000  # c,cp,cp,hc
dihedral_coeff	 5   -0.02280    0.00000    0.02800    0.00000   -0.18630    0.00000  # cp,c,c,hc
dihedral_coeff	 6   -0.28020    0.00000   -0.06780    0.00000   -0.01220    0.00000  # cp,c,cp,cp
dihedral_coeff	 7    8.36670    0.00000    1.19320    0.00000    0.00000    0.00000  # cp,cp,cp,cp
dihedral_coeff	 8    0.00000    0.00000    3.96610    0.00000    0.00000    0.00000  # cp,cp,cp,hc
dihedral_coeff	 9    0.00000    0.00000    4.84980    0.00000    0.00000    0.00000  # cp,cp,cp,oc
dihedral_coeff	10    0.00000    0.00000    4.84980    0.00000    0.00000    0.00000  # cp,cp,cp,oh
dihedral_coeff	11    0.00000    0.00000    3.00000    0.00000    0.00000    0.00000  # cp,cp,cp,sf
dihedral_coeff	12    0.00000    0.00000    1.80000    0.00000    0.00000    0.00000  # cp,cp,oc,cp
dihedral_coeff	13   -0.69000    0.00000    0.50970    0.00000    0.00950    0.00000  # cp,cp,oh,ho
dihedral_coeff	14    0.00000    0.00000    1.50000    0.00000    0.00000    0.00000  # cp,cp,sf,cp
dihedral_coeff	15    0.00000    0.00000    1.50000    0.00000    0.00000    0.00000  # cp,cp,sf,o=
dihedral_coeff	16    0.00000    0.00000    1.87690    0.00000    0.00000    0.00000  # hc,cp,cp,hc
dihedral_coeff	17    0.00000    0.00000    1.72340    0.00000    0.00000    0.00000  # hc,cp,cp,oc
dihedral_coeff	18    0.00000    0.00000    1.72340    0.00000    0.00000    0.00000  # hc,cp,cp,oh
dihedral_coeff	19    0.00000    0.00000    3.00000    0.00000    0.00000    0.00000  # hc,cp,cp,sf

# MiddleBondTorsion Coeffs

dihedral_coeff	 1 mbt  -14.87900   -3.65810   -0.31380    1.53000  # c,c,c,hc
dihedral_coeff	 2 mbt    0.00000    0.00000    0.00000    1.50100  # c,c,cp,cp
dihedral_coeff	 3 mbt    0.00000    9.17920    0.00000    1.41700  # c,cp,cp,cp
dihedral_coeff	 4 mbt    0.00000    3.94210    0.00000    1.41700  # c,cp,cp,hc
dihedral_coeff	 5 mbt    0.00000    0.00000    0.00000    1.53000  # cp,c,c,hc
dihedral_coeff	 6 mbt    0.00000    0.00000    0.00000    1.50100  # cp,c,cp,cp
dihedral_coeff	 7 mbt   27.59890   -2.31200    0.00000    1.41700  # cp,cp,cp,cp
dihedral_coeff	 8 mbt    0.00000   -1.15210    0.00000    1.41700  # cp,cp,cp,hc
dihedral_coeff	 9 mbt    0.00000    4.82550    0.00000    1.41700  # cp,cp,cp,oc
dihedral_coeff	10 mbt    0.00000    4.82550    0.00000    1.41700  # cp,cp,cp,oh
dihedral_coeff	11 mbt    0.00000    0.00000    0.00000    1.41700  # cp,cp,cp,sf
dihedral_coeff	12 mbt    0.00000    0.00000    0.00000    1.37680  # cp,cp,oc,cp
dihedral_coeff	13 mbt    1.15800    3.26970    3.51320    1.37680  # cp,cp,oh,ho
dihedral_coeff	14 mbt    0.00000    0.00000    0.00000    1.72000  # cp,cp,sf,cp
dihedral_coeff	15 mbt    0.00000    0.00000    0.00000    1.72000  # cp,cp,sf,o=
dihedral_coeff	16 mbt    0.00000    4.82280    0.00000    1.41700  # hc,cp,cp,hc
dihedral_coeff	17 mbt    0.00000    5.54320    0.00000    1.41700  # hc,cp,cp,oc
dihedral_coeff	18 mbt    0.00000    5.54320    0.00000    1.41700  # hc,cp,cp,oh
dihedral_coeff	19 mbt    0.00000    0.00000    0.00000    1.41700  # hc,cp,cp,sf

# EndBondTorsion Coeffs

dihedral_coeff	 1 ebt    0.24860    0.24220   -0.09250    0.08140    0.05910    0.22190    1.53000    1.10100  # c,c,c,hc
dihedral_coeff	 2 ebt    0.00000    0.00000    0.00000    0.00000    0.00000    0.00000    1.53000    1.41700  # c,c,cp,cp
dihedral_coeff	 3 ebt    0.00000    0.24210    0.00000    0.00000   -0.69180    0.00000    1.50100    1.41700  # c,cp,cp,cp
dihedral_coeff	 4 ebt    0.00000   -1.79700    0.00000    0.00000   -0.48790    0.00000    1.50100    1.09820  # c,cp,cp,hc
dihedral_coeff	 5 ebt    0.00000    0.00000    0.00000    0.00000    0.00000    0.00000    1.50100    1.10100  # cp,c,c,hc
dihedral_coeff	 6 ebt    0.00000    0.00000    0.00000    0.00000    0.00000    0.00000    1.50100    1.41700  # cp,c,cp,cp
dihedral_coeff	 7 ebt   -0.11850    6.32040    0.00000   -0.11850    6.32040    0.00000    1.41700    1.41700  # cp,cp,cp,cp
dihedral_coeff	 8 ebt    0.00000   -6.89580    0.00000    0.00000   -0.46690    0.00000    1.41700    1.09820  # cp,cp,cp,hc
dihedral_coeff	 9 ebt    0.00000    0.26550    0.00000    0.00000    4.89050    0.00000    1.41700    1.37680  # cp,cp,cp,oc
dihedral_coeff	10 ebt    0.00000    0.26550    0.00000    0.00000    4.89050    0.00000    1.41700    1.37680  # cp,cp,cp,oh
dihedral_coeff	11 ebt    0.00000    0.00000    0.00000    0.00000    0.00000    0.00000    1.41700    1.72000  # cp,cp,cp,sf
dihedral_coeff	12 ebt    0.00000    0.00000    0.00000    0.00000    0.00000    0.00000    1.41700    1.37680  # cp,cp,oc,cp
dihedral_coeff	13 ebt    0.90000   -1.34560    1.19000    3.41320    0.58730   -0.13230    1.41700    0.96500  # cp,cp,oh,ho
dihedral_coeff	14 ebt    0.00000    0.00000    0.00000    0.00000    0.00000    0.00000    1.41700    1.72000  # cp,cp,sf,cp
dihedral_coeff	15 ebt    0.00000    0.00000    0.00000    0.00000    0.00000    0.00000    1.41700    1.43080  # cp,cp,sf,o=
dihedral_coeff	16 ebt    0.00000   -0.68900    0.00000    0.00000   -0.68900    0.00000    1.09820    1.09820  # hc,cp,cp,hc
dihedral_coeff	17 ebt    0.00000   -1.58670    0.00000    0.00000    4.26410    0.00000    1.09820    1.37680  # hc,cp,cp,oc
dihedral_coeff	18 ebt    0.00000   -1.58670    0.00000    0.00000    4.26410    0.00000    1.09820    1.37680  # hc,cp,cp,oh
dihedral_coeff	19 ebt    0.00000    0.00000    0.00000    0.00000    0.00000    0.00000    1.09820    1.72000  # hc,cp,cp,sf

# AngleTorsion Coeffs

dihedral_coeff	 1 at   -0.24540    0.00000   -0.11360    0.31130    0.45160   -0.19880  112.67000  110.77000  # c,c,c,hc
dihedral_coeff	 2 at    0.00000    0.00000    0.00000    0.00000    0.00000    0.00000  108.40000  120.05000  # c,c,cp,cp
dihedral_coeff	 3 at    0.00000   -4.46830    0.00000    0.00000    3.89870    0.00000  120.05000  118.90000  # c,cp,cp,cp
dihedral_coeff	 4 at    0.00000   -0.12420    0.00000    0.00000    3.46010    0.00000  120.05000  117.94000  # c,cp,cp,hc
dihedral_coeff	 5 at    0.00000    0.00000    0.00000    0.00000    0.00000    0.00000  108.40000  110.77000  # cp,c,c,hc
dihedral_coeff	 6 at    0.00000    0.00000    0.00000    0.00000    0.00000    0.00000  111.00000  120.05000  # cp,c,cp,cp
dihedral_coeff	 7 at    1.97670    1.02390    0.00000    1.97670    1.02390    0.00000  118.90000  118.90000  # cp,cp,cp,cp
dihedral_coeff	 8 at    0.00000    2.50140    0.00000    0.00000    2.71470    0.00000  118.90000  117.94000  # cp,cp,cp,hc
dihedral_coeff	 9 at    0.00000   10.01550    0.00000    0.00000    1.74040    0.00000  118.90000  123.42000  # cp,cp,cp,oc
dihedral_coeff	10 at    0.00000   10.01550    0.00000    0.00000    1.74040    0.00000  118.90000  123.42000  # cp,cp,cp,oh
dihedral_coeff	11 at    0.00000    0.00000    0.00000    0.00000    0.00000    0.00000  118.90000  120.00000  # cp,cp,cp,sf
dihedral_coeff	12 at    0.00000    0.00000    0.00000    0.00000    0.00000    0.00000  123.42000  109.50000  # cp,cp,oc,cp
dihedral_coeff	13 at   -5.13600   -1.01220    0.00000    4.68520    0.02300   -0.59800  123.42000  108.19000  # cp,cp,oh,ho
dihedral_coeff	14 at    0.00000    0.00000    0.00000    0.00000    0.00000    0.00000  120.00000  102.00000  # cp,cp,sf,cp
dihedral_coeff	15 at    0.00000    0.00000    0.00000    0.00000    0.00000    0.00000  120.00000  113.10000  # cp,cp,sf,o=
dihedral_coeff	16 at    0.00000    2.45010    0.00000    0.00000    2.45010    0.00000  117.94000  117.94000  # hc,cp,cp,hc
dihedral_coeff	17 at    0.00000    1.87290    0.00000    0.00000    2.57060    0.00000  117.94000  123.42000  # hc,cp,cp,oc
dihedral_coeff	18 at    0.00000    1.87290    0.00000    0.00000    2.57060    0.00000  117.94000  123.42000  # hc,cp,cp,oh
dihedral_coeff	19 at    0.00000    0.00000    0.00000    0.00000    0.00000    0.00000  117.94000  120.00000  # hc,cp,cp,sf

# AngleAngleTorsion Coeffs

dihedral_coeff	 1 aat  -16.16400  112.67000  110.77000  # c,c,c,hc
dihedral_coeff	 2 aat    0.00000  108.40000  120.05000  # c,c,cp,cp
dihedral_coeff	 3 aat  -14.40970  120.05000  118.90000  # c,cp,cp,cp
dihedral_coeff	 4 aat    4.44440  120.05000  117.94000  # c,cp,cp,hc
dihedral_coeff	 5 aat    0.00000  108.40000  110.77000  # cp,c,c,hc
dihedral_coeff	 6 aat    0.00000  111.00000  120.05000  # cp,c,cp,cp
dihedral_coeff	 7 aat    0.00000  118.90000  118.90000  # cp,cp,cp,cp
dihedral_coeff	 8 aat   -4.81410  118.90000  117.94000  # cp,cp,cp,hc
dihedral_coeff	 9 aat  -21.02470  118.90000  123.42000  # cp,cp,cp,oc
dihedral_coeff	10 aat  -21.02470  118.90000  123.42000  # cp,cp,cp,oh
dihedral_coeff	11 aat    0.00000  118.90000  120.00000  # cp,cp,cp,sf
dihedral_coeff	12 aat    0.00000  123.42000  109.50000  # cp,cp,oc,cp
dihedral_coeff	13 aat   -4.60720  123.42000  108.19000  # cp,cp,oh,ho
dihedral_coeff	14 aat    0.00000  120.00000  102.00000  # cp,cp,sf,cp
dihedral_coeff	15 aat    0.00000  120.00000  113.10000  # cp,cp,sf,o=
dihedral_coeff	16 aat    0.35980  117.94000  117.94000  # hc,cp,cp,hc
dihedral_coeff	17 aat    4.22960  117.94000  123.42000  # hc,cp,cp,oc
dihedral_coeff	18 aat    4.22960  117.94000  123.42000  # hc,cp,cp,oh
dihedral_coeff	19 aat    0.00000  117.94000  120.00000  # hc,cp,cp,sf

# BondBond13 Coeffs

dihedral_coeff	 1 bb13    0.00000    1.53000    1.10100  # c,c,c,hc
dihedral_coeff	 2 bb13    0.00000    1.53000    1.41700  # c,c,cp,cp
dihedral_coeff	 3 bb13    2.50850    1.50100    1.41700  # c,cp,cp,cp
dihedral_coeff	 4 bb13    0.87430    1.50100    1.09820  # c,cp,cp,hc
dihedral_coeff	 5 bb13    0.00000    1.50100    1.10100  # cp,c,c,hc
dihedral_coeff	 6 bb13    0.00000    1.50100    1.41700  # cp,c,cp,cp
dihedral_coeff	 7 bb13   53.00000    1.41700    1.41700  # cp,cp,cp,cp
dihedral_coeff	 8 bb13   -6.27410    1.41700    1.09820  # cp,cp,cp,hc
dihedral_coeff	 9 bb13   -2.24360    1.41700    1.37680  # cp,cp,cp,oc
dihedral_coeff	10 bb13   -2.24360    1.41700    1.37680  # cp,cp,cp,oh
dihedral_coeff	11 bb13    0.00000    1.41700    1.72000  # cp,cp,cp,sf
dihedral_coeff	12 bb13    0.00000    1.41700    1.37680  # cp,cp,oc,cp
dihedral_coeff	13 bb13    1.15900    1.41700    0.96500  # cp,cp,oh,ho
dihedral_coeff	14 bb13    0.00000    1.41700    1.72000  # cp,cp,sf,cp
dihedral_coeff	15 bb13    0.00000    1.41700    1.43080  # cp,cp,sf,o=
dihedral_coeff	16 bb13   -1.70770    1.09820    1.09820  # hc,cp,cp,hc
dihedral_coeff	17 bb13    2.05170    1.09820    1.37680  # hc,cp,cp,oc
dihedral_coeff	18 bb13    2.05170    1.09820    1.37680  # hc,cp,cp,oh
dihedral_coeff	19 bb13    0.00000    1.09820    1.72000  # hc,cp,cp,sf

# Improper Coeffs

improper_coeff	 1    0.00000    0.00000  # c,c,c,cp
improper_coeff	 2    0.00000    0.00000  # c,c,cp,cp
improper_coeff	 3    0.00000    0.00000  # c,c,hc,hc
improper_coeff	 4    0.00000    0.00000  # c,hc,hc,hc
improper_coeff	 5    7.81530    0.00000  # cp,c,cp,cp
improper_coeff	 6    4.89120    0.00000  # cp,cp,cp,hc
improper_coeff	 7   13.04210    0.00000  # cp,cp,cp,oc
improper_coeff	 8   13.04210    0.00000  # cp,cp,cp,oh
improper_coeff	 9    0.00000    0.00000  # cp,cp,cp,sf
improper_coeff	10    0.00000    0.00000  # sf,cp,cp,o=
improper_coeff	11    0.00000    0.00000  # sf,cp,o=,o=

# AngleAngle Coeffs

improper_coeff	 1 aa    0.00000    0.00000    0.00000  112.67000  108.40000  108.40000  # c,c,c,cp
improper_coeff	 2 aa    0.00000    0.00000    0.00000  108.40000  108.40000  111.00000  # c,c,cp,cp
improper_coeff	 3 aa    0.27380   -0.48250    0.27380  110.77000  110.77000  107.66000  # c,c,hc,hc
improper_coeff	 4 aa   -0.31570   -0.31570   -0.31570  107.66000  107.66000  107.66000  # c,hc,hc,hc
improper_coeff	 5 aa    0.00000    0.00000    0.00000  120.05000  120.05000  118.90000  # cp,c,cp,cp
improper_coeff	 6 aa    0.00000    0.00000    0.00000  118.90000  117.94000  117.94000  # cp,cp,cp,hc
improper_coeff	 7 aa    0.00000    0.00000    0.00000  118.90000  123.42000  123.42000  # cp,cp,cp,oc
improper_coeff	 8 aa    0.00000    0.00000    0.00000  118.90000  123.42000  123.42000  # cp,cp,cp,oh
improper_coeff	 9 aa    0.00000    0.00000    0.00000  118.90000  120.00000  120.00000  # cp,cp,cp,sf
improper_coeff	10 aa    0.00000    0.00000    0.00000  102.00000  113.10000  113.10000  # sf,cp,cp,o=
improper_coeff	11 aa    0.00000    0.00000    0.00000  113.10000  113.10000  119.32900  # sf,cp,o=,o=


# --- Thermo Output ---
thermo_style custom step time temp press enthalpy etotal ke pe ebond eangle edihed eimp evdwl ecoul elong etail vol lx ly lz density pxx pyy pzz
thermo_modify flush yes
thermo 1000

# --- Trajectory ---
dump dump_npt all custom 1000 npt_cool300.dump id type mol x y z ix iy iz vx vy vz

# --- Restart Checkpointing ---
# No restart checkpointing

# --- Initial Velocities (optional) ---
# Velocities read from data file

# --- SHAKE Constraints ---
# SHAKE disabled

# --- NPT Thermostat + Barostat (Nose-Hoover) ---
# T_damp = 100.0 fs  (heat bath coupling)
# P_damp = 1000.0 fs  (pressure bath coupling, ~10x T_damp typical)
# Ramp: T=700.0->300.0K  P=1.0->1.0atm
timestep 1.0
fix npt_fix all npt temp 700.0 300.0 100.0 iso 1.0 1.0 1000.0

run 1000000
PPPM Kokkos initialization ...
  using 12-bit tables for long-range coulomb
  G vector (1/distance) = 0.29849062
  grid = 36 36 36
  stencil order = 5
  estimated absolute RMS force accuracy = 0.00032686722
  estimated relative force accuracy = 9.8435093e-07
  using double precision cuFFT
  3d grid and FFT values/proc = 79507 46656
Generated 28 of 28 mixed pair_coeff terms from sixthpower/sixthpower mixing rule
Neighbor list info ...
  update: every = 1 steps, delay = 0 steps, check = yes
  max neighbors/atom: 4000, page size: 100000
  master list distance cutoff = 11.5
  ghost atom cutoff = 11.5
  binsize = 11.5, bins = 5 5 5
  1 neighbor lists, perpetual/occasional/extra = 1 0 0
  (1) pair lj/class2/coul/long/kk, perpetual
      attributes: full, newton off, kokkos_device
      pair build: full/bin/kk/device
      stencil: full/bin/3d
      bin: kk/device
Per MPI rank memory allocation (min/avg/max) = 61.41 | 61.41 | 61.41 Mbytes
   Step          Time           Temp          Press         Enthalpy        TotEng         KinEng         PotEng         E_bond        E_angle        E_dihed        E_impro         E_vdwl         E_coul         E_long         E_tail         Volume           Lx             Ly             Lz          Density          Pxx            Pyy            Pzz      
         0   0              709.20614     -713.11677      50743.029      52208.348      22863.005      29345.343      9794.2215      8941.774       7298.1223      903.89967      1335.2421      8106.11       -7034.0267     -776.03964      140894.97      52.035352      52.035352      52.035352      1.0433097     -805.72813     -619.96159     -713.66059    
      1000   1000           696.63232      1871.7219      55179.232      51370.286      22457.657      28912.629      9525.7167      8911.94        7072.8594      872.73179      1466.5538      8100.52       -7037.6927     -783.59528      139536.42      51.867565      51.867565      51.867565      1.0534675      915.32671      1582.5432      3117.2958    
      2000   2000           691.72731      426.54133      51991.24       51105.651      22299.532      28806.119      9640.9535      8713.387       7069.0474      896.83434      1416.9206      8108.6403     -7039.664      -768.0406       142362.37      52.215376      52.215376      52.215376      1.0325558      1950.4891     -1743.3957      1072.5306    
      3000   3000           698.74828     -423.81177      50695.51       51573.371      22525.87       29047.501      9742.5598      8890.609       7019.108       877.73834      1453.1449      8102.5663     -7038.2252     -769.84322      142029.03      52.174589      52.174589      52.174589      1.0349792     -1427.9838     -14.488834      171.03736    
      4000   4000           699.1918       103.13608      51679.479      51466.772      22540.168      28926.604      9715.5995      8835.4449      7044.1487      872.11359      1390.6775      8110.7635     -7042.1438     -773.18649      141414.89      52.099279      52.099279      52.099279      1.0394739      163.48139     -123.43119      269.35803    
      5000   5000           692.15041      1081.7558      53942.952      51689.02       22313.172      29375.849      9827.569       8893.2041      7189.1444      887.59883      1508.2808      8112.3958     -7042.3441     -765.32127      142868.21      52.277146      52.277146      52.277146      1.0288999      2215.4682      1555.4258     -525.62672    
      6000   6000           696.4153       21.733226      51179.718      51134.922      22450.661      28684.261      9727.5346      8676.1968      6987.385       883.33607      1352.3197      8097.7605     -7040.2718     -773.63045      141333.74      52.089311      52.089311      52.089311      1.0400708     -501.07661      304.39071      261.88558    
      7000   7000           694.91772     -980.10308      49271.336      51306.479      22402.383      28904.096      9488.3595      8971.4862      7111.5876      846.50357      1425.6061      8103.6009     -7043.048      -767.94861      142379.43      52.21746       52.21746       52.21746       1.0324321     -1103.2138     -599.53641     -1237.5591    
      8000   8000           696.10177      998.07091      52822.755      50785.305      22440.553      28344.752      9597.4772      8737.1404      6832.869       847.774        1292.9504      8083.8766     -7047.336      -781.14136      139974.77      51.921822      51.921822      51.921822      1.0501685      399.96925      2435.2393      159.00416    
      9000   9000           700.17894      180.1982       51767.89       51396.191      22571.991      28824.2        9813.1995      9002.273       6784.2915      835.24491      1311.4972      8116.142      -7038.4481     -773.06279      141437.52      52.102058      52.102058      52.102058      1.0393076      1780.9628      114.27926     -1354.6475    
     10000   10000          692.01598      126.40536      51349.971      51090.803      22308.838      28781.965      9837.5362      8760.9441      6987.5628      861.08458      1287.1852      8097.1162     -7049.4638     -777.74922      140585.27      51.997198      51.997198      51.997198      1.0456081     -216.20827      1065.5698     -470.14541    
     11000   11000          698.747       -1499.7706      48047.246      51152.879      22525.829      28627.051      9542.6446      8683.2463      7158.9647      861.28294      1316.0938      8105.0518     -7040.2336     -770.06943      141987.3       52.16948       52.16948       52.16948       1.0352833     -1013.9058     -1316.8254     -2168.5806    
     12000   12000          695.45761     -68.420187      51128.974      51270.688      22419.787      28850.9        9887.313       8755.1377      6924.4557      849.75421      1363.9744      8112.11       -7041.8445     -769.88921      142020.54      52.17355       52.17355       52.17355       1.0350411      622.82806     -313.09484     -514.99378    
     13000   13000          703.32891     -692.53867      50147.247      51587.551      22673.538      28914.013      9851.2892      8831.2273      6967.5475      862.92606      1325.7649      8117.0888     -7041.8307     -766.73491      142604.8       52.244998      52.244998      52.244998      1.0308004     -736.39091     -677.55585     -663.66926    
     14000   14000          690.6683       105.99827      51193.684      50976.608      22265.392      28711.216      9726.3658      8733.1147      6917.7426      902.46178      1360.5291      8111.4145     -7040.4123     -778.65013      140422.61      51.977136      51.977136      51.977136      1.0468193      814.52229     -1680.7986      1184.2711    
     15000   15000          697.22622     -1027.2271      49210.772      51313.672      22476.803      28836.869      9875.0657      8837.5331      6976.296       854.07572      1226.2307      8107.4586     -7039.7903     -778.9382       140370.68      51.970728      51.970728      51.970728      1.0472066     -1469.6287      171.19945     -1783.2522    
     16000   16000          699.56335     -476.27447      50457.382      51432.237      22552.146      28880.091      9757.2416      8793.8507      7190.9886      884.25769      1205.5963      8087.7821     -7039.6254     -779.06275      140348.23      51.967958      51.967958      51.967958      1.047374       1385.7497     -688.41847     -2126.1546    
     17000   17000          695.06041     -659.19308      49606.601      50947.916      22406.983      28540.934      9652.8783      8876.3127      6886           875.627        1182.2088      8110.8241     -7042.9174     -783.67725      139521.83      51.865757      51.865757      51.865757      1.0535777      733.27657     -1074.0969     -1636.7589    
     18000   18000          694.60383      34.846865      51374.697      51303.381      22392.264      28911.118      9759.7999      8979.9703      7005.1544      867.16707      1232.4363      8107.6123     -7041.0227     -779.17567      140327.9       51.965447      51.965447      51.965447      1.0475258      1085.478      -639.92698     -341.01043    
     19000   19000          689.07227     -731.68147      49392.673      50882.784      22213.94       28668.844      9727.2706      8869.6185      6885.3138      877.22484      1223.741       8124.427      -7038.7516     -782.99461      139643.47      51.880825      51.880825      51.880825      1.05266        857.85453     -185.95155     -2866.9474    
     20000   20000          688.11578     -618.7867       49906.246      51174.048      22183.105      28990.942      9616.7285      8999.4065      7086.411       846.90621      1378.5894      8102.3547     -7039.454      -778.29638      140486.43      51.98501       51.98501       51.98501       1.0463437     -1692.4278     -2353.6222      2189.6899    
     21000   21000          693.3881       484.31914      52240.152      51252.434      22353.071      28899.363      9845.4197      8801.7922      7012.0652      847.05475      1324.1867      8110.3641     -7041.5198     -781.90484      139838.09      51.904917      51.904917      51.904917      1.0511949     -990.49767      944.43013      1499.025     
     22000   22000          690.47298     -211.76264      50530.876      50961.617      22259.095      28702.521      9684.2177      8910.1966      6807.5152      862.6867       1354.9394      8119.4457     -7036.4801     -783.94969      139473.34      51.859748      51.859748      51.859748      1.053944      -1276.095       1413.0483     -772.24114    
     23000   23000          697.74596     -674.20237      49992.187      51363.704      22493.558      28870.146      9526.2953      8834.3428      7244.2915      891.59602      1310.8834      8101.4918     -7038.7549     -783.87084      139487.37      51.861487      51.861487      51.861487      1.053838      -1775.0525     -1059.4902      811.93557    
     24000   24000          682.58727     -543.80569      49509.691      50621.774      22004.88       28616.893      9522.7147      8744.6777      7082.5657      888.67318      1282.0005      8132.0301     -7035.7684     -779.76181      140222.41      51.952424      51.952424      51.952424      1.0483138     -401.23714     -1851.6273      621.44738    
     25000   25000          693.38621      870.58973      52689.129      50910.138      22353.011      28557.127      9647.2879      8826.2811      6914.663       857.24953      1229.0534      8121.5013     -7038.9091     -780.36016      140114.89      51.939142      51.939142      51.939142      1.0491182      1624.4049      1127.7417     -140.37748    
     26000   26000          690.61105      303.3176       51354.098      50737.552      22263.547      28474.006      9421.4054      8773.6862      7004.1715      874.89466      1326.3063      8108.9292     -7035.3875     -784.49038      139377.21      51.847831      51.847831      51.847831      1.0546709      740.82734      182.41014     -13.284671    
     27000   27000          697.00708      1238.3317      53620.798      51091.368      22469.738      28621.629      9538.5895      9021.935       6796.0446      839.29548      1364.8836      8104.7183     -7043.8373     -780.67367      140058.63      51.932188      51.932188      51.932188      1.0495397      1030.9683      1767.3018      916.72508    
     28000   28000          692.05869      167.91277      51265.716      50917.71       22310.215      28607.495      9686.3852      8670.9324      6993.6515      863.32593      1326.1951      8107.9688     -7040.9641     -769.39963      142110.91      52.184614      52.184614      52.184614      1.0343829      684.57439     -506.75608      325.92       
     29000   29000          688.80612      142.84409      51084.875      50793.193      22205.36       28587.832      9538.7624      8773.1169      7058.697       831.36426      1331.1146      8095.9523     -7041.1754     -780.92212      140014.07      51.92668       51.92668       51.92668       1.0498737      353.08601     -565.98257      641.42882    
     30000   30000          675.88979     -333.47678      49498.859      50181.263      21788.971      28392.293      9432.8624      8853.7577      6877.0809      843.79018      1305.8986      8121.8526     -7042.9495     -779.25421      140313.75      51.963702      51.963702      51.963702      1.0476314      811.15519     -2098.2243      286.63879    
     31000   31000          681.79201      595.13772      51926.456      50696.878      21979.243      28717.635      9737.3084      8799.4863      6865.8736      859.17197      1376.6773      8113.5769     -7034.4598     -771.82118      141665.05      52.129981      52.129981      52.129981      1.0376384     -1723.11        1680.062       1828.4612    
     32000   32000          685.30804      531.22717      51813.575      50720.701      22092.591      28628.11       9609.9818      8635.5107      6990.8607      846.52542      1463.5309      8117.7259     -7036.0255     -775.11398      141063.23      52.056058      52.056058      52.056058      1.0420653     -91.113063      872.8916       811.90297    
     33000   33000          691.2189      -160.87489      50676.813      51005.65       22283.142      28722.508      9589.3454      8854.3588      7071.8953      910.30771      1212.3         8122.4165     -7038.1153     -780.12112      140157.83      51.944446      51.944446      51.944446      1.0487969     -186.68704      82.08607      -378.0237     
     34000   34000          680.36304      501.56322      51840.755      50808.851      21933.177      28875.675      9669.2922      8846.7782      7044.8248      872.34642      1370.777       8113.1332     -7041.4771     -775.07175      141070.92      52.057003      52.057003      52.057003      1.0420085      1254.1064      732.16805     -481.58474    
     35000   35000          683.44077     -624.81572      49407.75       50703.246      22032.395      28670.851      9595.171       8794.6279      7020.831       852.28292      1343.9997      8102.1808     -7038.2422     -769.07934      142170.09      52.191857      52.191857      52.191857      1.0339523      594.11151     -940.13832     -1528.4204    
     36000   36000          694.35278     -69.683831      50843.743      50986.414      22384.171      28602.243      9576.3446      8725.7081      6988.7037      847.43682      1389.5396      8117.3064     -7042.7958     -778.8477       140386.99      51.972741      51.972741      51.972741      1.0470849      1271.5662     -639.96824     -840.6495     
     37000   37000          681.75197      997.62316      52568.068      50499.961      21977.952      28522.009      9526.5348      8897.9496      6768.4258      848.41801      1385.36        8130.271      -7034.9504     -769.21697      142144.66      52.188744      52.188744      52.188744      1.0341373      558.82905      585.91535      1848.1251    
     38000   38000          678.12732      172.62542      51085.486      50731.365      21861.103      28870.262      9767.9576      8770.3385      6985.6519      859.29648      1439.2666      8091.7449     -7043.9939     -777.33412      140660.34      52.006451      52.006451      52.006451      1.04505        1063.846       304.69407     -850.66382    
     39000   39000          681.00234      146.26481      50504.765      50203.676      21953.786      28249.89       9468.2876      8581.4497      6962.9246      869.19009      1316.813       8095.8522     -7044.6272     -774.64025      141149.5       52.066667      52.066667      52.066667      1.0414284     -1564.4195      1141.6402      861.57374    
     40000   40000          691.97295     -1966.6221      46613.87       50598.159      22307.451      28290.708      9423.818       8617.956       7183.137       863.38729      1159.1366      8090.3787     -7047.1055     -787.09179      138916.56      51.790647      51.790647      51.790647      1.0581683     -1616.3553     -1758.0404     -2525.4706    
     41000   41000          687.60233      70.131297      50524.293      50380.67       22166.553      28214.117      9504.8683      8755.5171      6782.6585      836.59076      1287.5117      8092.5517     -7045.5813     -778.65163      140422.34      51.977103      51.977103      51.977103      1.0468213      592.72655     -610.32616      227.99351    
     42000   42000          688.90565      105.36405      50659.214      50443.255      22208.569      28234.686      9567.1859      8806.8122      6747.2104      839.04324      1227.1112      8090.9656     -7043.6422     -777.99452      140540.94      51.991732      51.991732      51.991732      1.0459379     -469.84492      1611.8367     -825.89963    
     43000   43000          685.51231      426.29238      51091.167      50227.474      22099.176      28128.297      9381.7291      8859.4001      6779.8735      830.0113       1204.3272      8116.8929     -7043.9367     -787.0518       138923.62      51.791524      51.791524      51.791524      1.0581145      226.57935      477.19501      575.10278    
     44000   44000          682.21767     -712.98749      48772.472      50227.635      21992.965      28234.67       9515.1192      8650.357       6917.2694      848.51566      1246.3521      8101.3626     -7044.3063     -781.31411      139943.82      51.917995      51.917995      51.917995      1.0504007     -509.59151     -170.64434     -1458.7266    
     45000   45000          678.68946      639.75967      51629.433      50332.983      21879.225      28453.758      9463.3994      8891.1604      6919.9959      839.51056      1259.1683      8120.0314     -7039.5075     -786.89437      138951.41      51.794978      51.794978      51.794978      1.0579028      333.53125      2526.9135     -941.16576    
     46000   46000          684.72645      850.57129      51836.206      50110.025      22073.842      28036.183      9591.7337      8659.7633      6726.3726      808.03608      1197.6658      8094.9947     -7042.3831     -785.74157      139155.27      51.820296      51.820296      51.820296      1.056353       1728.0209      330.61814      493.07485    
     47000   47000          683.68688     -128.39882      50133.393      50393.628      22040.329      28353.299      9654.6761      8580.2094      6986.0925      844.85629      1224.7235      8101.3544     -7038.6127     -786.77382      138972.7       51.797623      51.797623      51.797623      1.0577408     -1253.5042     -323.14583      1191.4536    
     48000   48000          681.46388     -1432.8948      47426.763      50345.584      21968.665      28376.919      9714.7008      8471.2921      7063.936       858.22807      1220.2246      8085.7144     -7037.1766     -782.8203       139674.56      51.884676      51.884676      51.884676      1.0524256     -1868.273      -1537.0984     -893.31298    
     49000   49000          675.76129      1166.3855      52100.242      49730.215      21784.828      27945.387      9509.6945      8453.3233      6803.7174      847.00915      1293.2798      8082.8919     -7044.5288     -784.77335      139326.96      51.841598      51.841598      51.841598      1.0550513      1751.2775      1005.8796      741.99953    
     50000   50000          679.79657      1398.0258      53102.607      50260.628      21914.915      28345.713      9577.0874      8845.742       6820.9561      831.08439      1227.9711      8086.1688     -7043.2965     -784.42171      139389.41      51.849344      51.849344      51.849344      1.0545786      2533.7618      2057.43       -397.11445    
     51000   51000          674.01939     -1018.1566      47854.135      49924.114      21728.674      28195.44       9405.852       8630.8456      6994.7851      855.31147      1231.5736      8117.2196     -7040.1474     -784.33954      139404.02      51.851154      51.851154      51.851154      1.0544681     -684.42472     -1330.8422     -1039.2028    
     52000   52000          682.01589      1600.0812      53249.576      50006.111      21986.461      28019.65       9242.334       8697.5738      6793.6372      857.39646      1371.4072      8097.6674     -7040.3658     -786.66178      138992.49      51.800082      51.800082      51.800082      1.0575902      2745.1222      561.63682      1493.4846    
     53000   53000          681.72818      259.55718      50766.31       50234.161      21977.185      28256.976      9532.8274      8650.8595      6914.5255      870.26803      1265.6263      8065.4658     -7042.5967     -777.77789      140580.09      51.996559      51.996559      51.996559      1.0456466      173.21416      340.2451       265.2123     
     54000   54000          671.0488      -584.93611      48864.347      50051.334      21632.909      28418.425      9630.1334      8667.6073      6999.5875      895.90097      1157.3799      8103.8971     -7036.0813     -785.81         139143.15      51.818792      51.818792      51.818792      1.056445      -905.19751     -303.97656     -545.63425    
     55000   55000          678.68562     -1232.7982      47530.523      50058.174      21879.101      28179.073      9399.0782      8908.9096      6800.2513      855.1525       1159.2108      8093.3087     -7036.8379     -777.73212      140588.36      51.997579      51.997579      51.997579      1.0455851     -1694.91       -1294.8434     -708.64106    
     56000   56000          669.64168      792.09576      51299.416      49685.407      21587.547      28097.859      9533.2005      8814.3481      6560.8352      831.14187      1306.0818      8093.1003     -7040.8483     -782.57691      139718         51.890054      51.890054      51.890054      1.0520984     -66.008606      1531.9118      910.38404    
     57000   57000          671.51687     -1745.1079      46300.932      49873.546      21647.999      28225.548      9565.3122      8529.201       7011.9961      863.2173       1213.6275      8086.9527     -7044.7589     -778.91732      140374.44      51.971192      51.971192      51.971192      1.0471785     -1697.4265     -1617.3636     -1920.5336    
     58000   58000          675.41069      520.27994      50867.874      49802.77       21773.526      28029.245      9540.0501      8624.3219      6703.7114      820.78267      1287.0783      8099.1203     -7045.82       -778.93389      140371.45      51.970824      51.970824      51.970824      1.0472007      13.623946      1813.4847     -266.26885    
     59000   59000          674.82023      394.20904      50760.412      49951.997      21754.491      28197.507      9502.0894      8615.9893      6897.567       831.96794      1316.4345      8086.0082     -7052.5496     -777.58508      140614.94      52.000856      52.000856      52.000856      1.0453874      189.46504      556.92806      436.23404    
     60000   60000          679.21412     -2013.9118      45894.487      50010.124      21896.139      28113.986      9350.3643      8694.9208      6946.4139      842.90976      1233.3688      8092.4779     -7046.4698     -780.29466      140126.66      51.940595      51.940595      51.940595      1.0490302     -2194.7095     -1547.4787     -2299.547     
     61000   61000          671.06406     -1432.1505      46737.892      49679.601      21633.401      28046.2        9557.1295      8496.1802      6857.6505      821.15572      1248.0174      8103.0596     -7036.9932     -776.32634      140842.94      52.028946      52.028946      52.028946      1.0436952     -421.80667     -1236.742      -2637.9029    
     62000   62000          668.98979      230.73843      49917.301      49450.474      21566.532      27883.942      9485.0793      8586.8112      6712.403       806.98905      1240.5282      8094.671      -7042.5399     -788.16778      138726.91      51.767069      51.767069      51.767069      1.0596148      261.51006      1054.2536     -623.54838    
     63000   63000          675.66451      1623.5195      52956.975      49625.328      21781.708      27843.619      9415.2707      8515.5188      6736.1426      833.29495      1309.1324      8081.9705     -7047.7106     -777.05864      140710.21      52.012596      52.012596      52.012596      1.0446797      2325.0622      1044.1365      1501.3598    
     64000   64000          671.74933      897.47785      51807.792      49989.051      21655.493      28333.558      9606.9023      8605.9448      6861.1967      854.96625      1347.2995      8097.4838     -7040.2353     -786.87926      138954.08      51.79531       51.79531       51.79531       1.0578825      792.4846       1389.0745      510.87447    
     65000   65000          676.05346      27.785498      49914.237      49857.869      21794.247      28063.622      9559.4062      8490.0884      6935.5972      835.24906      1173.6616      8106.6213     -7037.0019     -786.02862      139104.45      51.813987      51.813987      51.813987      1.0567389      968.90951     -810.22097     -75.332053    
     66000   66000          680.3686      -73.184419      49637.339      49786.046      21933.356      27852.69       9332.38        8681.6317      6760.9609      813.41525      1198.1191      8107.4009     -7041.2175     -784.76752      139327.99      51.841727      51.841727      51.841727      1.0550435     -676.21611     -145.33166      601.99452    
     67000   67000          666.53857     -837.67972      47539.327      49253.078      21487.511      27765.567      9368.9097      8471.7762      6851.4959      835.95747      1187.5371      8095.2161     -7045.3259     -779.4452       140279.37      51.959457      51.959457      51.959457      1.0478882     -2365.2976     -144.88152     -2.8600215    
     68000   68000          664.94969      371.89413      50310.828      49555.398      21436.29       28119.109      9547.272       8714.697       6792.9729      842.32111      1169.3341      8096.7966     -7044.2851     -785.01966      139283.24      51.836176      51.836176      51.836176      1.0553825      424.44728     -1710.6038      2401.8389    
     69000   69000          680.05414     -1612.8417      46456.059      49734.924      21923.219      27811.705      9235.2002      8454.9132      7091.1078      844.25864      1111.4944      8113.5012     -7038.7702     -784.37449      139397.81      51.850384      51.850384      51.850384      1.0545151      157.77578     -2706.6124     -2289.6884    
     70000   70000          674.0692       562.30457      50931.532      49776.926      21730.279      28046.647      9333.3748      8753.3288      6724.2632      842.26882      1343.5208      8095.0349     -7045.1445     -776.59228      140794.71      52.023006      52.023006      52.023006      1.0440527      469.52633     -1100.7867      2318.1741    
     71000   71000          665.5055       745.13068      50909.667      49397.043      21454.207      27942.836      9391.3961      8732.0327      6710.267       834.40467      1223.4695      8097.0043     -7045.7386     -785.51885      139194.73      51.825193      51.825193      51.825193      1.0560536      949.4437      -214.43685      1500.3852    
     72000   72000          659.38165     -455.0168       48528.507      49463.486      21256.79       28206.696      9484.4163      8663.2309      6851.793       833.9908       1319.8586      8097.9836     -7044.5775     -776.03409      140895.98      52.035476      52.035476      52.035476      1.0433023     -1092.9986     -903.545        631.49324    
     73000   73000          666.33203      997.10743      51186.37       49164.101      21480.853      27683.249      9322.2217      8563.0026      6666.4837      831.02268      1249.5343      8096.5931     -7045.6093     -786.2458       139066.03      51.809216      51.809216      51.809216      1.0570309      594.74847      3055.7452     -659.17137    
     74000   74000          676.53156     -1343.954       47059.444      49817.388      21809.66       28007.729      9493.3832      8600.554       6797.5031      830.60293      1237.0309      8091.981      -7043.3263     -777.05952      140710.05      52.012577      52.012577      52.012577      1.0446809     -1562.4104     -388.75702     -2080.6947    
     75000   75000          660.50177      799.30289      50592.405      48961.703      21292.9        27668.803      9505.1627      8470.6593      6592.9955      832.36355      1199.458       8110.0475     -7041.8835     -781.6136       139890.2       51.911363      51.911363      51.911363      1.0508034      1272.6205     -426.41594      1551.7041    
     76000   76000          672.52262      184.74504      50011.822      49636.292      21680.422      27955.871      9359.1241      8630.7461      6796.0005      828.08773      1289.8563      8094.7721     -7042.7161     -784.4829       139378.54      51.847996      51.847996      51.847996      1.0546609     -29.964637      1167.6603     -583.46052    
     77000   77000          661.48999      66.257625      49120.808      48983.85       21324.758      27659.092      9335.2607      8609.6924      6602.8395      815.28336      1241.7739      8089.356      -7035.1139     -771.44024      141735         52.13856       52.13856       52.13856       1.0371263      980.00097     -393.19936     -388.02873    
     78000   78000          665.66483      1985.9465      53213.466      49162.065      21459.344      27702.722      9360.2859      8576.039       6534.4152      824.67781      1342.1972      8106.1835     -7041.0771     -781.65952      139881.98      51.910346      51.910346      51.910346      1.0508651      2035.9151      1796.9566      2124.9678    
     79000   79000          669.35986      933.76947      51341.498      49414.906      21578.462      27836.443      9357.9576      8613.3471      6620.8907      849.45272      1350.2397      8089.7783     -7045.2227     -772.86778      141473.2       52.106439      52.106439      52.106439      1.0390455      73.832368      531.40341      2196.0726    
     80000   80000          668.64681      221.35453      50135.961      49682.592      21555.475      28127.117      9389.4383      8668.1003      6984.3637      835.86187      1189.0582      8100.5073     -7040.2128     -778.56021      140438.83      51.979137      51.979137      51.979137      1.0466984     -883.80503      1578.8073     -30.938714    
     81000   81000          668.9712       958.75964      51414.285      49474.983      21565.933      27909.05       9219.2983      8551.3876      6885.1225      844.07763      1350.1275      8102.5766     -7043.5404     -788.35092      138694.69      51.76306       51.76306       51.76306       1.059861       1255.8028      709.70902      910.76712    
     82000   82000          672.21291     -1355.7135      46980.962      49736.835      21670.437      28066.397      9421.1335      8686.0292      6885.409       827.63025      1187.5199      8101.1849     -7042.5093     -784.44769      139384.8       51.848771      51.848771      51.848771      1.0546135     -376.87819     -1457.5412     -2232.7211    
     83000   83000          664.40076      2770.5341      54997.095      49368.479      21418.593      27949.886      9437.8383      8679.239       6585.5686      844.00141      1330.3427      8113.4705     -7040.5747     -784.90513      139303.56      51.838697      51.838697      51.838697      1.0552285      2625.3782      2790.4667      2895.7575    
     84000   84000          661.28308      206.81322      49292.288      48868.498      21318.087      27550.41       9384.4919      8360.0406      6621.6962      805.01256      1355.0027      8067.5191     -7043.3528     -778.18389      140506.74      51.987514      51.987514      51.987514      1.0461925      590.81017      1061.2073     -1031.5778    
     85000   85000          673.78195     -549.37072      48353.17       49483.004      21721.019      27761.985      9290.4383      8497.3014      6807.1107      830.37591      1285.441       8095.7019     -7044.3844     -775.36512      141017.54      52.050437      52.050437      52.050437      1.0424029     -256.74418     -286.44787     -1104.9201    
     86000   86000          664.82806     -1325.0207      46571.995      49277.263      21432.368      27844.895      9378.8021      8638.6841      6753.5851      822.96797      1193.9024      8100.1209     -7043.168      -781.02994      139994.74      51.924291      51.924291      51.924291      1.0500187     -2062.234      -998.09542     -914.73267    
     87000   87000          663.12715      442.77995      49965.458      49056.771      21377.535      27679.236      9380.7136      8416.6199      6734.8865      839.59041      1261.8027      8083.9629     -7038.3402     -777.0145       140718.2       52.013581      52.013581      52.013581      1.0446203      1909.759      -57.30502      -524.11415    
     88000   88000          667.71808     -672.87396      47999.919      49375.955      21525.535      27850.42       9469.2073      8403.5312      6854.5213      815.94904      1241.4666      8104.8795     -7039.135      -779.75654      140223.36      51.952541      51.952541      51.952541      1.0483067      83.816105     -526.84328     -1575.5947    
     89000   89000          658.42624     -735.1947       47487.554      48995.698      21225.99       27769.708      9356.5457      8625.3681      6689.3715      853.5189       1194.7822      8093.6988     -7043.5776     -777.34702      140658.01      52.006164      52.006164      52.006164      1.0450674     -828.50507      791.26332     -2168.3424    
     90000   90000          666.27724     -48.258312      49039.552      49137.954      21479.086      27658.868      9195.9861      8601.8029      6690.472       839.29965      1305.5825      8074.2139     -7048.4891     -782.03         139815.71      51.902147      51.902147      51.902147      1.0513632      563.48099      212.53315     -920.78907    
     91000   91000          668.25375      56.868162      49180.935      49064.612      21542.804      27521.808      9169.9792      8659.603       6579.1852      815.92851      1233.7263      8105.3435     -7041.9579     -779.57857      140255.37      51.956494      51.956494      51.956494      1.0480675     -1027.1138      91.948511      1105.7698    
     92000   92000          652.4574       371.9912       49447.84       48688.201      21033.57       27654.631      9221.2064      8561.911       6752.3785      810.27342      1237.9198      8110.4742     -7039.5325     -780.87268      140022.93      51.927776      51.927776      51.927776      1.0498073     -126.65065      281.3103       961.31395    
     93000   93000          667.10923      1086.8444      51281.796      49053.851      21505.908      27547.943      9100.9286      8460.2808      6761.6312      817.87785      1364.1445      8089.8659     -7046.7853     -777.89018      140559.79      51.994057      51.994057      51.994057      1.0457976     -1019.6001      2650.186       1629.9474    
     94000   94000          660.40896     -368.334        48090.703      48842.938      21289.908      27553.03       9299.221       8447.6525      6688.5716      828.48832      1251.8688      8081.4138     -7044.1856     -780.8064       140034.82      51.929245      51.929245      51.929245      1.0497182     -670.15853     -788.50344      353.65998    
     95000   95000          655.11637      1023.8482      50769.209      48695.588      21119.288      27576.299      9223.0886      8636.7175      6636.8467      820.95163      1226.2832      8077.2253     -7044.8136     -787.3382       138873.08      51.785244      51.785244      51.785244      1.0584995      1180.6402      1542.2654      348.63888    
     96000   96000          661.32454      575.74612      49867.599      48699.501      21319.424      27380.077      9069.6383      8486.9101      6764.1474      823.26147      1175.7141      8105.1298     -7044.7242     -785.97171      139114.53      51.815238      51.815238      51.815238      1.0566624      719.76173      313.65801      693.81863    
     97000   97000          670.77257      1603.4532      52647.962      49365.975      21624.004      27741.971      9368.8548      8548.2273      6574.6481      870.73751      1321.1994      8097.8495     -7039.5456     -779.0669       140347.49      51.967866      51.967866      51.967866      1.0473796      2689.3066     -599.74563      2720.7986    
     98000   98000          661.04106      1012.7781      50934.207      48862.396      21310.285      27552.111      9457.164       8521.2341      6485.6896      783.29753      1262.501       8087.1075     -7044.8826     -779.50608      140268.41      51.958104      51.958104      51.958104      1.04797        1366.2602     -881.12923      2553.2035    
     99000   99000          661.18627     -673.14577      47503.978      48875.659      21314.966      27560.692      9252.5811      8633.0994      6625.1025      795.09945      1198.7004      8102.1154     -7046.0058     -782.54877      139723.03      51.890676      51.890676      51.890676      1.0520606     -720.72332     -2203.8161      905.10215    
    100000   100000         659.86809      1350.7369      51397.635      48675.935      21272.472      27403.463      9147.8842      8499.3633      6688.0596      853.50335      1180.7935      8079.8654     -7046.0059     -791.38148      138163.56      51.6969        51.6969        51.6969        1.0639353      1446.7956      1652.4498      952.96516    
    101000   101000         663.52225      554.25578      49970.049      48849.286      21390.273      27459.014      9176.0116      8560.0128      6599.962       798.42514      1250.2697      8114.6058     -7040.2732     -788.59131      138652.41      51.757799      51.757799      51.757799      1.0601842      130.18431      1554.8983     -22.315305    
    102000   102000         658.27935      277.52984      49338.764      48772.452      21221.255      27551.197      9372.7223      8463.0147      6680.24        812.22782      1152.2404      8106.1155     -7035.3637     -781.46376      139917.02      51.91468       51.91468       51.91468       1.0506019      954.12458      1412.3193     -1533.8543    
    103000   103000         665.27177      517.4666       50136.692      49091.39       21446.673      27644.717      9450.4543      8347.1088      6800.3483      867.65776      1109.2711      8113.2106     -7043.3337     -789.39717      138510.86      51.740181      51.740181      51.740181      1.0612676     -212.72349      1109.3104      655.8129     
    104000   104000         659.28193      1272.5937      51340.379      48764.072      21253.575      27510.497      9121.0384      8524.731       6665.4636      864.85441      1279.6273      8091.059      -7036.2766     -787.67578      138813.56      51.777845      51.777845      51.777845      1.0589534      1638.882       1062.6497      1116.2493    
    105000   105000         652.8824      -1165.3353      46035.852      48383.562      21047.271      27336.291      9186.2928      8446.2647      6781.4156      827.88811      1039.1822      8097.191      -7041.9434     -791.51972      138139.43      51.693891      51.693891      51.693891      1.0641212     -1688.9928     -1362.3997     -444.61316    
    106000   106000         651.86641     -67.415405      48119.328      48256.183      21014.518      27241.665      9101.4874      8338.4389      6693.7375      818.08773      1236.8964      8101.2327     -7048.2156     -785.51663      139195.12      51.825242      51.825242      51.825242      1.0560506     -1166.2748     -72.228465      1036.257     
    107000   107000         655.86958      1188.6809      51330.949      48899.518      21143.57       27755.949      9267.9068      8674.6298      6634.9653      835.20802      1270.7981      8109.8113     -7037.3709     -779.57619      140255.8       51.956547      51.956547      51.956547      1.0480643      430.78701      1541.7715      1593.4841    
    108000   108000         652.05437     -244.99112      48032.162      48531.491      21020.577      27510.914      9145.5952      8388.3611      6874.8921      862.09013      1175.0875      8107.8145     -7042.9268     -782.38266      139752.69      51.894348      51.894348      51.894348      1.0518373     -155.68099      671.51892     -1250.8113    
    109000   109000         655.87566      357.57901      49522.777      48792.32       21143.766      27648.554      9249.972       8521.6562      6801.5939      803.34137      1206.9551      8105.8234     -7040.7874     -780.60781      140070.44      51.933649      51.933649      51.933649      1.0494512     -1306.245       431.07001      1947.912     
    110000   110000         661.3208       1141.8244      50877.116      48567.226      21319.303      27247.922      9150.7632      8421.6571      6608.5716      795.00664      1210.3263      8097.7933     -7036.1957     -788.24878      138712.66      51.765295      51.765295      51.765295      1.0597237      368.45632      2836.7756      220.24129    
    111000   111000         657.55115     -598.59436      47640.952      48861.506      21197.779      27663.727      9215.3405      8512.9449      6797.9503      801.71033      1268.0342      8108.6655     -7040.9188     -782.04312      139813.37      51.901857      51.901857      51.901857      1.0513808      670.74949     -684.0496      -1782.483     
    112000   112000         656.24887      369.83814      49035.298      48288.026      21155.797      27132.229      9158.48        8394.7066      6628.2598      826.62645      1068.988       8098.6505     -7043.4826     -789.20207      138545.1       51.744444      51.744444      51.744444      1.0610053     -312.79815      1682.2221     -259.90958    
    113000   113000         655.16545     -128.8682       48531.071      48797.617      21120.871      27676.746      9498.051       8461.4958      6579.0527      813.96926      1282.2932      8083.9744     -7042.0901     -770.95588      141824.05      52.149477      52.149477      52.149477      1.0364751      612.81272      81.113119     -1080.5304    
    114000   114000         647.63669     -768.51564      46817.669      48387.083      20878.162      27508.92       9322.2235      8405.3183      6691.7688      811.99409      1222.7097      8094.9581     -7040.0524     -780.85544      140026.02      51.928158      51.928158      51.928158      1.0497841      863.07305     -1451.868      -1716.752     
    115000   115000         651.03976     -294.03085      47558.377      48159.398      20987.869      27171.529      9120.6233      8361.2764      6645.0393      824.93036      1165.2148      8092.9688     -7038.5236     -780.11444      140159.03      51.944594      51.944594      51.944594      1.0487879     -921.59167      2.6592995      36.839831    
    116000   116000         649.64842     -199.56535      48101.672      48508.103      20943.016      27565.087      9120.6947      8453.7432      6927.0525      857.47073      1136.6222      8106.5917     -7037.088      -782.98536      139645.12      51.881029      51.881029      51.881029      1.0526476     -1744.1133      2128.3155     -982.89829    
    117000   117000         653.50887     -686.51162      47208.006      48614.618      21067.467      27547.151      9118.1669      8472.2848      6823.806       839.607        1222.0961      8107.8648     -7036.6743     -778.26753      140491.64      51.985652      51.985652      51.985652      1.0463049     -1501.2008      530.1169      -1088.451     
    118000   118000         642.08399      752.91173      49507.303      47986.936      20699.157      27287.778      9308.4039      8456.839       6566.1719      799.71876      1087.9077      8107.6192     -7038.8821     -789.67964      138461.32      51.734011      51.734011      51.734011      1.0616474     -518.75902      181.3005       2596.1937    
    119000   119000         658.53685      853.16673      49977.458      48243.278      21229.556      27013.723      9045.9035      8430.2756      6516.6576      831.85256      1136.1486      8098.3912     -7045.5064     -784.50404      139374.79      51.84753       51.84753       51.84753       1.0546893      807.60578      305.97737      1445.917     
    120000   120000         653.81403      53.717489      48211.058      48102.4        21077.304      27025.096      8984.9873      8457.3382      6577.5155      800.61799      1139.2754      8110.9497     -7045.5882     -788.33446      138697.58      51.76342       51.76342       51.76342       1.0598389     -168.54137     -397.10178      726.79561    
    121000   121000         647.44863     -185.29662      47463.816      47838.513      20872.1        26966.414      9110.5043      8402.7209      6472.5537      824.26246      1123.3869      8080.6896     -7047.7042     -788.57408      138655.44      51.758176      51.758176      51.758176      1.060161      -66.858833     -194.54672     -294.48432    
    122000   122000         648.39838     -200.14038      47829.26       48234.33       20902.717      27331.613      9255.6459      8405.521       6668.7378      840.85222      1101.1214      8103.5842     -7043.8496     -787.87943      138777.68      51.773383      51.773383      51.773383      1.0592272     -220.17248      823.49135     -1203.74      
    123000   123000         651.31339      129.92565      48116.445      47857.549      20996.69       26860.86       9272.5195      8231.1002      6453.0793      814.77018      1047.9118      8087.2886     -7045.8101     -800.24943      136632.5       51.505231      51.505231      51.505231      1.0758574     -123.27102      1597.1877     -1084.1398    
    124000   124000         655.86268      399.62492      49264.307      48456.734      21143.347      27313.387      9181.0192      8600.4929      6527.6256      854.34816      1090.1795      8106.318      -7046.5965     -789.08966      138564.84      51.746901      51.746901      51.746901      1.0608542      1558.5725      509.9599      -869.65759    
    125000   125000         646.60987      612.38231      49069.207      47829.844      20845.06       26984.783      9121.0921      8318.1644      6621.976       813.52133      1076.559       8082.2194     -7048.7487     -787.91478      138771.46      51.772609      51.772609      51.772609      1.0592747      1109.3754      487.14216      240.62936    
    126000   126000         655.88565     -1658.6775      44621.899      47954.961      21144.088      26810.873      9080.9138      8147.2853      6670.4068      836.26335      1035.963       8088.0792     -7048.0383     -793.54914      137786.15      51.649786      51.649786      51.649786      1.0668495     -1671.1259     -1545.6892     -1759.2174    
    127000   127000         645.65395     -225.90243      47357.529      47810.713      20814.244      26996.469      9159.5378      8434.8496      6535.6509      817.44814      1032.1757      8066.7335     -7049.9265     -794.8805       137555.37      51.620933      51.620933      51.620933      1.0686394      418.91324     -1097.389       0.76849014   
    128000   128000         643.93992     -332.71387      47355.999      48030.708      20758.988      27271.721      9295.3832      8391.2202      6637.3406      790.01151      1116.5463      8081.6277     -7040.4088     -786.33795      139049.73      51.807192      51.807192      51.807192      1.0571548     -207.44811     -1029.3732      238.67975    
    129000   129000         655.19906     -384.26677      47578.788      48353.123      21121.954      27231.169      9192.8946      8395.5466      6777.444       828.74629      998.74242      8082.0019     -7044.2071     -791.33334      138171.96      51.697949      51.697949      51.697949      1.0638706     -883.70985      670.3148      -939.40525    
    130000   130000         644.9753      -541.54978      46940.632      48038.006      20792.366      27245.641      9473.2621      8469.61        6373.0203      800.51302      1097.9511      8080.87       -7049.586      -786.93516      138944.21      51.794083      51.794083      51.794083      1.0579577     -1704.8198     -325.52433      405.69475    
    131000   131000         650.54323      278.61061      48545.79       47984.127      20971.862      27012.266      9161.2576      8404.5359      6445.8192      824.90367      1142.2383      8079.2125     -7045.7014     -791.00106      138230.01      51.705187      51.705187      51.705187      1.0634239      1115.9866     -835.74927      555.59451    
    132000   132000         640.26178      136.26759      47940.199      47667.78       20640.414      27027.366      9113.8415      8347.1068      6637.8841      818.57121      1057.5403      8093.7966     -7041.3747     -797.6458       137078.49      51.56121       51.56121       51.56121       1.0723571     -316.67823      1163.0685     -437.58748    
    133000   133000         643.20087      246.983        48399.89       47903.425      20735.163      27168.262      9287.9446      8497.1644      6449.028       814.92226      1066.1372      8095.9799     -7042.914      -793.29231      137830.76      51.655359      51.655359      51.655359      1.0665043      1436.8267      544.39656     -1240.2743    
    134000   134000         646.67571      1471.9251      50892.018      47937.383      20847.183      27090.2        9021.2876      8414.2437      6625.5856      828.20889      1156.9678      8090.7428     -7046.8362     -794.39623      137639.23      51.631421      51.631421      51.631421      1.0679884      687.66194      1672.4848      2055.6286    
    135000   135000         643.64235      624.49596      48922.214      47667.577      20749.395      26918.182      8948.8932      8450.512       6589.6039      806.07573      1083.8101      8085.699      -7046.412      -793.71887      137756.69      51.646104      51.646104      51.646104      1.0670777      1203.5038      209.07929      460.90472    
    136000   136000         651.69273     -243.82127      47494.408      47983.763      21008.919      26974.845      9150.5877      8421.6745      6447.811       804.5596       1100.34        8092.0199     -7042.1482     -794.51507      137618.64      51.628846      51.628846      51.628846      1.0681481     -1247.7244      803.90811     -287.64753    
    137000   137000         646.36157     -521.2795       46600.468      47657.788      20837.056      26820.732      9170.2321      8300.7564      6435.7232      765.79028      1118.934       8071.6633     -7042.3672     -786.1753       139078.5       51.810764      51.810764      51.810764      1.0569361     -773.81284      174.65542     -964.68109    
    138000   138000         641.92607      837.38746      49355.547      47650.984      20694.066      26956.918      9022.4639      8369.6537      6528.6287      817.40872      1186.3152      8077.3967     -7044.9491     -783.37341      139575.94      51.872461      51.872461      51.872461      1.0531693      1928.2429     -203.54055      787.46002    
    139000   139000         643.35075      189.28873      48168.297      47790.945      20739.995      27050.95       9073.6223      8334.5141      6649.5115      821.40486      1132.6593      8090.2634     -7051.0251     -799.89484      136693.07      51.512841      51.512841      51.512841      1.0753807     -299.77194      1536.566      -668.92783    
    140000   140000         630.73607     -1244.8465      44457.702      46976.08       20333.329      26642.751      8907.3463      8277.0903      6557.1816      797.29409      1066.0274      8082.17       -7044.3585     -788.22487      138716.86      51.765819      51.765819      51.765819      1.0596916     -1393.391      -1037.0053     -1304.1431    
    141000   141000         648.59695     -390.69996      46986.022      47772.104      20909.119      26862.985      9151.125       8269.1014      6563.2386      809.67615      1032.6007      8086.9242     -7049.681      -792.55832      137958.4       51.6713        51.6713        51.6713        1.0655175     -102.40992     -1405.6416      335.95164    
    142000   142000         645.00402      764.9877       48976.822      47441.033      20793.292      26647.741      8807.8468      8512.3364      6452.6163      782.72872      1064.5239      8077.1854     -7049.4962     -794.28822      137657.94      51.633761      51.633761      51.633761      1.0678431      838.02333      1059.6631      397.27673    
    143000   143000         648.93487      211.52993      48431.83       48004.597      20920.012      27084.584      9110.6978      8460.7067      6544.2993      833.24871      1079.8356      8097.5203     -7041.7239     -789.5184       138489.59      51.737533      51.737533      51.737533      1.0614306      940.56775     -457.36247      151.38452    
    144000   144000         635.78631     -1198.3537      45000.255      47425.911      20496.136      26929.775      8918.9395      8403.6706      6794.2693      812.86682      950.25043      8095.4382     -7045.6599     -787.79117      138793.23      51.775317      51.775317      51.775317      1.0591085     -326.79118     -1308.6773     -1959.5926    
    145000   145000         643.80717     -281.91729      46885.465      47452.26       20754.708      26697.552      8866.6953      8416.9714      6486.8291      811.35448      1078.9032      8086.5784     -7049.7804     -793.14197      137856.89      51.658622      51.658622      51.658622      1.0663021      403.20169     -266.56879     -982.38477    
    146000   146000         647.06405      396.91603      48591.24       47786.702      20859.702      26927.001      8961.5094      8317.0872      6671.8277      808.22815      1129.7371      8084.842      -7046.231      -786.69695      138986.28      51.79931       51.79931       51.79931       1.0576374      129.44183      268.03376      793.2725     
    147000   147000         640.59363      826.6304       49140.42       47467.23       20651.112      26816.118      8952.7943      8254.6878      6579.1069      792.47894      1169.3013      8111.1791     -7043.4304     -787.80997      138789.92      51.774905      51.774905      51.774905      1.0591338     -48.982062      1199.5341      1329.3392    
    148000   148000         643.28526      678.28421      48915.496      47552.242      20737.883      26814.359      9028.0987      8436.0773      6437.777       800.71952      1074.0762      8087.9805     -7050.3699     -793.39691      137812.59      51.653089      51.653089      51.653089      1.0666449      2029.3544     -652.21703      657.71529    
    149000   149000         642.01411      328.47555      48009.581      47356.408      20696.905      26659.503      9084.8241      8304.9628      6429.7947      819.35711      978.20692      8087.3576     -7045          -801.91858      136348.11      51.469471      51.469471      51.469471      1.0781014     -909.4484       410.31485      1484.5602    
    150000   150000         633.01375     -1466.144       44241.066      47189.68       20406.756      26782.924      8931.7387      8202.1775      6691.0664      809.30688      1127.2083      8069.8925     -7048.4664     -792.89185      137900.37      51.664054      51.664054      51.664054      1.0659659     -728.33557     -2305.0565     -1365.0399    
    151000   151000         631.74535     -167.98189      47064.211      47402.991      20365.866      27037.125      9051.3276      8582.4697      6482.2226      836.99178      1055.2325      8080.4476     -7051.5668     -790.67834      138286.43      51.71222       51.71222       51.71222       1.06299        84.93606       463.88559     -1052.7673    
    152000   152000         653.02156      1136.8979      49928.646      47678.889      21051.757      26627.132      9132.3459      8145.4709      6478.41        803.7551       1028.7588      8086.4781     -7048.0865     -805.82589      135686.98      51.386148      51.386148      51.386148      1.0833544      2339.1572      245.09552      826.4409     
    153000   153000         637.48854      291.08225      47728.189      47143.521      20551.012      26592.509      8984.9007      8248.6837      6493.362       808.55408      1018.5302      8083.3017     -7044.823      -793.89252      137726.56      51.642338      51.642338      51.642338      1.0673112     -98.663597      1223.3129     -251.40259    
    154000   154000         643.63127      1395.8589      50426.676      47621.794      20749.038      26872.756      9056.9932      8363.7925      6560.5732      807.62535      1031.0732      8095.0289     -7042.3306     -793.56424      137783.53      51.649458      51.649458      51.649458      1.0668698      1130.8094      1547.2563      1509.511     
    155000   155000         638.21803     -57.208581      46987.657      47102.949      20574.529      26528.42       9027.7114      8329.2965      6313.3351      792.63572      1029.2845      8082.1683     -7046.0111     -791.25499      138185.65      51.699655      51.699655      51.699655      1.0637653      159.5893      -173.56788     -157.64717    
    156000   156000         634.44391     -54.776746      47100.564      47211.278      20452.861      26758.418      9038.0761      8369.3954      6486.4929      786.86236      1036.6103      8086.8405     -7045.8598     -788.94512      138590.22      51.750061      51.750061      51.750061      1.0606599     -1344.9791      31.589162      1149.0597    
[...]
    955000   955000         315.92789     -1230.2065      23233.103      25484.182      10184.713      15299.47       5189.7766      5226.937       3983.0401      401.20121     -486.93337      8049.3798     -7063.9317     -871.44985      125469.16      50.062477      50.062477      50.062477      1.1715794     -1652.7679     -740.93456     -1296.9169    
    956000   956000         315.19067     -866.14355      23743.462      25318.851      10160.947      15157.904      5063.8824      5170.1454      4087.2484      401.08946     -536.73356      8042.1228     -7069.8505     -876.71295      124715.94      49.962097      49.962097      49.962097      1.1786552     -1347.7158     -465.70537     -785.0095     
    957000   957000         319.19008     -131.48099      25236.072      25477.573      10289.878      15187.696      5061.7847      5222.7165      3993.3577      394.32121     -472.12907      8049.15       -7061.5053     -868.15947      125944.7       50.125644      50.125644      50.125644      1.1671559      686.7743      -170.40662     -910.81066    
    958000   958000         320.83861     -429.63711      24836.785      25618.733      10343.022      15275.711      5160.8291      5288.9845      3965.5994      403.98852     -531.67042      8052.3289     -7064.349      -876.15173      124795.83      49.972763      49.972763      49.972763      1.1779007     -260.86069     -477.60061     -550.45004    
    959000   959000         319.83313      330.12891      25979.015      25377.787      10310.608      15067.179      5096.4057      5150.4949      3934.449       381.21971     -500.06972      8064.5034     -7059.824      -875.58769      124876.22      49.983491      49.983491      49.983491      1.1771424      824.31556      257.71887     -91.647687    
    960000   960000         314.58222     -463.81747      24576.291      25422.09       10141.332      15280.758      5141.5865      5285.5691      3974.3778      395.28266     -508.28163      8056.191      -7063.9676     -874.45028      125038.65      50.005153      50.005153      50.005153      1.1756132     -1243.1648      35.478254     -183.76586    
    961000   961000         315.05217     -77.768063      25174.204      25315.878      10156.482      15159.397      5127.2047      5237.4462      3912.5076      384.35252     -502.95687      8061.1783     -7060.3359     -875.31781      124914.72      49.988627      49.988627      49.988627      1.1767795      1128.4696     -1204.7115     -157.06226    
    962000   962000         318.74696      326.14303      25994.046      25398.156      10275.593      15122.564      4982.9735      5256.8629      3955.9607      398.8317      -464.41963      8051.5824     -7059.2281     -872.76457      125280.16      50.037326      50.037326      50.037326      1.173347       1225.2247      210.55334     -457.34892    
    963000   963000         313.74585     -210.00379      24934.015      25316.064      10114.37       15201.694      5151.4659      5201.2662      3969.0096      404.95973     -519.34436      8057.3196     -7062.9827     -876.52333      124742.92      49.9657        49.9657        49.9657        1.1784003      971.9025      -69.663852     -1532.25      
    964000   964000         314.70934      828.3754       26731.577      25219.664      10145.43       15074.234      5068.7648      5166.3705      3919.0035      388.89665     -453.12703      8051.3565     -7067.0308     -873.68654      125147.95      50.019719      50.019719      50.019719      1.1745865      1197.5742     -40.907725      1328.4597    
    965000   965000         317.958        397.97075      26183.223      25458.583      10250.159      15208.425      5125.1392      5216.6907      3971.8644      413.23683     -502.47744      8045.4246     -7061.4534     -875.75833      124851.89      49.980244      49.980244      49.980244      1.1773718      378.44195     -572.43163      1387.9019    
    966000   966000         316.78093      817.29118      26802.769      25305.149      10212.213      15092.936      5126.0985      5131.7143      3919.3979      400.39465     -454.38156      8037.7195     -7068.007      -870.2228       125646.08      50.085996      50.085996      50.085996      1.1699298      1119.2822      839.66899      492.92235    
    967000   967000         312.68545      512.43207      25987.972      25055.947      10080.185      14975.762      5125.544       5169.8799      3863.2753      391.99679     -565.38146      8054.6267     -7064.1795     -876.72641      124714.03      49.961841      49.961841      49.961841      1.1786733      899.5815       191.37873      446.33597    
    968000   968000         312.35148     -683.6321       24004.23       25251.756      10069.419      15182.338      5186.8934      5157.8622      3952.737       418.96733     -517.0107       8047.6319     -7064.7436     -873.83226      125127.08      50.016939      50.016939      50.016939      1.1747824     -595.98378     -468.11405     -986.79846    
    969000   969000         314.04951     -885.09832      23502.248      25119.785      10124.159      14995.627      5058.594       5135.4942      3986.6041      412.10498     -582.57573      8051.0142     -7065.6092     -872.55414      125310.37      50.041348      50.041348      50.041348      1.1730641     -290.36664     -487.84909     -1877.0792    
    970000   970000         312.56272     -132.70518      24890.443      25131.598      10076.228      15055.369      5027.5445      5112.8446      4035.1998      409.93279     -508.66147      8041.5179     -7063.0086     -877.50207      124603.79      49.947116      49.947116      49.947116      1.1797161      93.206048      157.97247     -649.29407    
    971000   971000         313.79561      96.365203      25382.418      25206.224      10115.974      15090.25       5088.0924      5204.6675      3959.8882      397.86446     -547.91538      8049.4993     -7061.846      -872.13788      125370.18      50.049309      50.049309      50.049309      1.1725044      193.03049      745.86293     -649.7978     
    972000   972000         316.12237      686.83415      26378.405      25126.397      10190.982      14935.415      5005.445       5152.253       3893.5399      408.36927     -512.40595      8055.6988     -7067.485      -874.78291      124991.1       49.998814      49.998814      49.998814      1.1760604      564.73753      765.97764      729.78727    
    973000   973000         312.10284      445.81986      25926.013      25115.282      10061.403      15053.879      5055.851       5079.428       4024.0683      403.89407     -491.79348      8044.9058     -7062.4752     -876.87542      124692.84      49.959011      49.959011      49.959011      1.1788736      712.63736      1191.6832     -566.86099    
    974000   974000         309.97373     -425.27099      24260.291      25036.85       9992.7659      15044.084      5060.572       5155.8413      3945.5671      403.59088     -509.89225      8053.5591     -7065.1541     -873.26604      125208.22      50.027747      50.027747      50.027747      1.1740211     -552.00995     -346.64189     -377.16114    
    975000   975000         312.95086     -138.09915      24786.712      25038.159      10088.741      14949.418      5070.9237      5141.5813      3915.2211      398.58908     -562.84483      8052.3946     -7066.4465     -875.78965      124847.42      49.979648      49.979648      49.979648      1.1774139     -442.07732      133.11635     -105.33648    
    976000   976000         307.55265      29.047241      24865.111      24812.187      9914.7165      14897.47       5047.4988      5223.6984      3814.383       388.78049     -564.6127       8051.7756     -7064.0532     -875.20079      124931.43      49.990855      49.990855      49.990855      1.1766222      286.40593     -33.38466      -165.87954    
    977000   977000         310.00228      532.2294       25987.977      25016.839      9993.6862      15023.153      5004.4555      5154.8261      3925.9059      399.1318      -443.01871      8045.7359     -7063.8839     -873.92281      125114.12      50.015211      50.015211      50.015211      1.1749041      1858.8219     -188.30288     -73.830852    
    978000   978000         302.08995      456.35392      25497.075      24668.227      9738.6129      14929.614      5065.5933      5125.6315      3845.8164      381.74217     -457.30537      8037.9493     -7069.8128     -877.97544      124536.61      49.938138      49.938138      49.938138      1.1803525      1374.2416     -429.39638      424.21652    
    979000   979000         309.81848     -834.10826      23395.827      24914.732      9987.7612      14926.971      4943.0748      5116.9297      4001.712       387.04134     -510.85523      8053.4576     -7064.3895     -875.68348      124862.56      49.981668      49.981668      49.981668      1.1772712     -580.85006     -683.88762     -1237.5871    
    980000   980000         305.53342     -1006.4428      22796.796      24631.343      9849.6216      14781.722      4835.3741      5123.5115      3999.5452      391.9857      -551.49759      8051.0809     -7068.2779     -874.81347      124986.74      49.998232      49.998232      49.998232      1.1761015     -496.16866     -1045.5975     -1477.5623    
    981000   981000         309.77842      115.61283      25051.172      24840.613      9986.4695      14854.144      4930.3466      5141.9227      3978.033       391.36377     -566.20106      8046.592      -7067.9131     -875.56379      124879.63      49.983946      49.983946      49.983946      1.1771102      245.67513      499.89312     -398.72975    
    982000   982000         302.15977     -427.67528      23819.345      24598.522      9740.8637      14857.658      4923.2095      5092.7001      3990.5768      406.50263     -546.84958      8059.2587     -7067.7398     -875.25194      124924.12      49.989881      49.989881      49.989881      1.176691       876.88079     -1405.0091     -754.89753    
    983000   983000         303.823       -763.47356      23324.038      24722.057      9794.4821      14927.575      5110.1212      5103.9202      3830.6047      390.50756     -489.91695      8049.8215     -7067.4835     -870.83576      125557.64      50.074242      50.074242      50.074242      1.1707539     -1306.848      -321.52817     -662.04453    
    984000   984000         308.19585      167.78691      25286.588      24980.565      9935.4515      15045.113      5069.2567      5218.7389      3893.7135      388.81426     -522.26369      8061.472      -7064.6185     -874.29639      125060.66      50.008086      50.008086      50.008086      1.1754063      995.44241     -510.04939      17.967699    
    985000   985000         307.36967     -539.54199      23730.588      24712.487      9908.8177      14803.67       5001.352       5123.7946      3872.9596      401.3155      -575.82262      8046.3579     -7066.2875     -876.22088      124785.98      49.971448      49.971448      49.971448      1.1779936     -1263.1857     -326.92271     -28.517561    
    986000   986000         304.72629     -688.07084      23414.751      24667.32       9823.6017      14843.718      4951.4486      5081.3611      3948.3764      406.43771     -529.14919      8051.2423     -7065.9984     -875.96456      124822.49      49.976321      49.976321      49.976321      1.177649      -407.73873     -539.0487      -1117.4251    
    987000   987000         309.69064     -764.33953      23552.321      24945.678      9983.64        14962.038      4918.6826      5099.4708      4025.9684      404.53102     -462.63118      8043.9016     -7067.8855     -874.74056      124997.16      49.999621      49.999621      49.999621      1.1760035      863.17399     -1924.3436     -1231.849     
    988000   988000         307.20505     -1715.9192      21516.375      24649.814      9903.5108      14746.303      4891.9124      5026.5         3998.8681      389.85149     -535.82541      8041.3836     -7066.3869     -873.23454      125212.73      50.028348      50.028348      50.028348      1.1739788     -785.53909     -1139.4431     -3222.7753    
    989000   989000         311.32664      138.02209      25098.105      24847.883      10036.38       14811.502      5070.3009      5020.0362      3863.6961      391.60063     -520.67313      8051.8219     -7065.2805     -879.58346      124308.93      49.907687      49.907687      49.907687      1.1825143      1121.9494     -863.79666      155.91355    
    990000   990000         303.51602      937.38536      26259.518      24554.906      9784.5858      14770.32       4949.2999      5148.6871      3876.6621      383.38652     -560.78684      8042.4569     -7069.3852     -876.89556      124689.97      49.958629      49.958629      49.958629      1.1789007      1093.9805      255.62889      1462.5466    
    991000   991000         304.02854     -404.68614      23851.89       24586.781      9801.1082      14785.673      5116.5192      5083.1393      3770.1949      382.22953     -564.35146      8062.1111     -7064.1694     -878.11373      124516.99      49.935516      49.935516      49.935516      1.1805384      776.82966     -961.5832      -1029.3049    
    992000   992000         297.75032      476.60424      25269.551      24398.668      9598.7143      14799.953      4932.7997      5090.3423      3877.5946      399.32952     -477.4099       8042.9095     -7065.6123     -872.67666      125292.78      50.039007      50.039007      50.039007      1.1732288      900.38799      54.574906      474.84982    
    993000   993000         302.99986     -278.11641      24086.676      24589.98       9767.9459      14822.034      4899.1193      5172.2232      3941.4649      371.14085     -556.54923      8061.2036     -7066.5689     -881.15429      124087.33      49.878013      49.878013      49.878013      1.1846261      168.85762     -1021.6975      18.490673    
    994000   994000         304.67916     -15.743903      24528.385      24556.993      9822.0825      14734.91       5014.9209      5159.1188      3770.4062      390.20518     -591.21815      8058.9649     -7067.4875     -877.5867       124591.77      49.94551       49.94551       49.94551       1.1798299      766.8442       371.06789     -1185.1438    
    995000   995000         299.83891     -374.35383      23710.493      24393.068      9666.0451      14727.023      4923.8699      5093.0735      3846.1957      389.57344     -515.59707      8052.9156     -7063.0081     -874.55494      125023.69      50.003158      50.003158      50.003158      1.1757539     -271.34927      317.79938     -1169.5116    
    996000   996000         300.55679     -719.40808      23050.46       24358.261      9689.1876      14669.073      4849.6133      5088.0504      3919.6931      378.81504     -561.72204      8056.5968     -7061.9734     -877.18064      124649.45      49.953216      49.953216      49.953216      1.1792839     -347.10236     -809.1634      -1001.9585    
    997000   997000         296.56484     -1261.6877      21987.596      24284.572      9560.4975      14724.074      4912.3983      5162.7507      3868.5075      379.14982     -599.24043      8062.0645     -7061.5562     -875.89247      124832.77      49.977693      49.977693      49.977693      1.1775521     -1379.6695     -1005.3057     -1400.0881    
    998000   998000         297.3183       90.328673      24638.705      24473.802      9584.787       14889.015      4991.6718      5097.716       3894.4804      401.63073     -476.10591      8042.9429     -7063.3213     -873.477        125177.98      50.023719      50.023719      50.023719      1.1743048      147.76526      102.37544      20.845324    
    999000   999000         299.01663     -286.24487      23583.172      24103.152      9639.5368      14463.616      4821.4945      5032.2997      3858.1945      377.6002      -631.05591      8068.7759     -7063.6932     -877.82054      124558.58      49.941075      49.941075      49.941075      1.1801442      105.65511     -982.68045      18.290717    
   1000000   1000000        303.09421      614.65805      25513.659      24398.656      9770.9878      14627.668      4969.9411      4969.9224      3845.8629      384.04097     -518.37142      8045.8702     -7069.5983     -879.04845      124384.59      49.91781       49.91781       49.91781       1.181795       1353.59        1094.0339     -603.64973    
Loop time of 5537.3 on 1 procs for 1000000 steps with 10816 atoms

Performance: 15.603 ns/day, 1.538 hours/ns, 180.593 timesteps/s, 1.953 Matom-step/s
99.8% CPU use with 1 MPI tasks x 1 OpenMP threads

MPI task timing breakdown:
Section |  min time  |  avg time  |  max time  |%varavg| %total
---------------------------------------------------------------
Pair    | 2694.8     | 2694.8     | 2694.8     |   0.0 | 48.67
Bond    | 804.08     | 804.08     | 804.08     |   0.0 | 14.52
Kspace  | 1024.2     | 1024.2     | 1024.2     |   0.0 | 18.50
Neigh   | 473.69     | 473.69     | 473.69     |   0.0 |  8.55
Comm    | 64.089     | 64.089     | 64.089     |   0.0 |  1.16
Output  | 22.067     | 22.067     | 22.067     |   0.0 |  0.40
Modify  | 314.05     | 314.05     | 314.05     |   0.0 |  5.67
Other   |            | 140.3      |            |       |  2.53

Nlocal:          10816 ave       10816 max       10816 min
Histogram: 1 0 0 0 0 0 0 0 0 0
Nghost:          22823 ave       22823 max       22823 min
Histogram: 1 0 0 0 0 0 0 0 0 0
Neighs:              0 ave           0 max           0 min
Histogram: 1 0 0 0 0 0 0 0 0 0
FullNghs:  5.98301e+06 ave 5.98301e+06 max 5.98301e+06 min
Histogram: 1 0 0 0 0 0 0 0 0 0

Total # of neighbors = 5983012
Ave neighs/atom = 553.16309
Ave special neighs/atom = 5.7707101
Neighbor list builds = 56091
Dangerous builds = 0

# --- Cleanup ---
unfix npt_fix

undump dump_npt

# --- Write Output ---
write_dump all custom npt_cool300_last.dump id type mol x y z xu yu zu vx vy vz modify sort id
write_data /home/arz2/PolyJarvis/data/PSU4/lammps/equil/npt_cool300/npt_cool300_out.data
System init for write_data ...
PPPM Kokkos initialization ...
  using 12-bit tables for long-range coulomb
  G vector (1/distance) = 0.30193468
  grid = 36 36 36
  stencil order = 5
  estimated absolute RMS force accuracy = 0.00028845447
  estimated relative force accuracy = 8.6867208e-07
  using double precision cuFFT
  3d grid and FFT values/proc = 79507 46656
Generated 28 of 28 mixed pair_coeff terms from sixthpower/sixthpower mixing rule

print "STAGE COMPLETE: NPT T=700.0->300.0K P=1.0->1.0atm steps=1000000"
STAGE COMPLETE: NPT T=700.0->300.0K P=1.0->1.0atm steps=1000000
quit
       |  2.53

Nlocal:          10816 ave       10816 max       10816 min
Histogram: 1 0 0 0 0 0 0 0 0 0
Nghost:          22823 ave       22823 max       22823 min
Histogram: 1 0 0 0 0 0 0 0 0 0
Neighs:              0 ave           0 max           0 min
Histogram: 1 0 0 0 0 0 0 0 0 0
FullNghs:  5.98301e+06 ave 5.98301e+06 max 5.98301e+06 min
Histogram: 1 0 0 0 0 0 0 0 0 0

Total # of neighbors = 5983012
Ave neighs/atom = 553.16309
Ave special neighs/atom = 5.7707101
Neighbor list builds = 56091
Dangerous builds = 0
System init for write_data ...
PPPM Kokkos initialization ...
  using 12-bit tables for long-range coulomb
  G vector (1/distance) = 0.30193468
  grid = 36 36 36
  stencil order = 5
  estimated absolute RMS force accuracy = 0.00028845447
  estimated relative force accuracy = 8.6867208e-07
  using double precision cuFFT
  3d grid and FFT values/proc = 79507 46656
Generated 28 of 28 mixed pair_coeff terms from sixthpower/sixthpower mixing rule
STAGE COMPLETE: NPT T=700.0->300.0K P=1.0->1.0atm steps=1000000
