units real
atom_style full
boundary p p p

# --- Force Field Styles ---
pair_style lj/class2/coul/long 9.5 9.5
kspace_style pppm 1e-6
dielectric 1.000000
bond_style class2
angle_style class2
dihedral_style class2
improper_style class2
special_bonds lj/coul 0 0 1
pair_modify mix sixthpower tail yes
neighbor 2.0 bin
neigh_modify delay 0 every 1 check yes
neigh_modify one 4000
# KOKKOS: package loaded via -pk kokkos on the command line

read_data /home/arz2/PolyJarvis/data/PMMA2/lammps/equil/npt_pppm/npt_pppm_out.data
Reading data file ...
  orthogonal box = (4.391011 4.391011 4.391011) to (47.359987 47.359987 47.359987)
  1 by 1 by 1 MPI processor grid
  reading atoms ...
  7520 atoms
  reading velocities ...
  7520 velocities
  scanning bonds ...
  4 = max bonds/atom
  scanning angles ...
  17 = max angles/atom
  scanning dihedrals ...
  40 = max dihedrals/atom
  scanning impropers ...
  14 = max impropers/atom
  orthogonal box = (4.391011 4.391011 4.391011) to (47.359987 47.359987 47.359987)
  1 by 1 by 1 MPI processor grid
  reading bonds ...
  7510 bonds
  reading angles ...
  14000 angles
  reading dihedrals ...
  18910 dihedrals
  reading impropers ...
  8500 impropers
Finding 1-2 1-3 1-4 neighbors ...
  special bond factors lj:    0        0        1       
  special bond factors coul:  0        0        1       
     4 = max # of 1-2 neighbors
    11 = max # of 1-3 neighbors
    15 = max # of special neighbors
  special bonds CPU = 0.005 seconds
  read_data CPU = 0.361 seconds
include /home/arz2/PolyJarvis/data/PMMA2/lammps/equil/emc_build.params
# LAMMPS parameters created by EMC v9.4.4, build Jul 31 2025 20:33:44

# Variables

variable	seed		index	734812
variable	ntotal		index	7520
variable	fshape		index	1
variable	output		index	emc_build
variable	field		index	pcff/pcff
variable	location1	index	/home/arz2/emc/field/
variable	nav		index	0.6022141179
variable	temperature	index	300
variable	radius		index	5
variable	nrelax		index	100
variable	weight_nonbond	index	0.0001
variable	weight_bond	index	0.0001
variable	weight_focus	index	1
variable	cutoff		index	9.5
variable	charge_cutoff	index	9.5
variable	kappa		index	4
variable	density1	index	0.6
variable	lprevious	index	0
variable	lphase		index	51.7509981335
variable	f_poly		index	10
variable	chem_repeat	index	*CC(C)(C(=O)OC)*
variable	chem_cap	index	*[H]
variable	lg_repeat	index	15
variable	lg_cap		index	1
variable	norm_poly	index	100
variable	l_poly		index	752
variable	mg_repeat	index	88.10716
variable	mg_cap		index	1.00797
variable	m_poly		index	4407.37394
variable	n_poly		index	10
variable	mtotal		index	50079.3144
variable	nphase1		index	7520
variable	mphase1		index	50079.3144
variable	vphase1		index	138597.753721
variable	lbox		index	51.7509981335
variable	lphase1		index	51.7509981335
variable	lxx		index	51.7509981335
variable	lyy		index	51.7509981335
variable	lzz		index	51.7509981335
variable	lzy		index	0
variable	lzx		index	0
variable	lyx		index	0
variable	vtotal		index	138597.753721
variable	nl_poly		index	10

# Types

variable	type_c		index	1
variable	type_c1		index	2
variable	type_c_1	index	3
variable	type_hc		index	4
variable	type_o_1	index	5
variable	type_o_2	index	6

variable	type_bond_c_c	index	1
variable	type_bond_c_c1	index	2
variable	type_bond_c_c_1	index	3
variable	type_bond_c_hc	index	4
variable	type_bond_c_o_2	index	5
variable	type_bond_c1_c_1 index	6
variable	type_bond_c1_hc	index	7
variable	type_bond_c_1_o_1 index	8
variable	type_bond_c_1_o_2 index	9

variable	type_angle_c_c_c index	1
variable	type_angle_c_c_c1 index	2
variable	type_angle_c_c_c_1 index	3
variable	type_angle_c_c_hc index	4
variable	type_angle_c_c1_c index	5
variable	type_angle_c_c1_c_1 index	6
variable	type_angle_c_c1_hc index	7
variable	type_angle_c_c_1_o_1 index	8
variable	type_angle_c_c_1_o_2 index	9
variable	type_angle_c_o_2_c_1 index	10
variable	type_angle_c1_c_hc index	11
variable	type_angle_c1_c_1_o_1 index	12
variable	type_angle_c1_c_1_o_2 index	13
variable	type_angle_c_1_c1_hc index	14
variable	type_angle_hc_c_hc index	15
variable	type_angle_hc_c_o_2 index	16
variable	type_angle_o_1_c_1_o_2 index	17

# Clusters

variable	n0_poly		index	1
variable	n1_poly		index	10
variable	nl_poly		index	10

# Flags

variable	flag_charged	index	1

# Masses

mass		1    12.01115  # c
mass		2    12.01115  # c1
mass		3    12.01115  # c_1
mass		4     1.00797  # hc
mass		5    15.99940  # o_1
mass		6    15.99940  # o_2

# Potentials

pair_modify	mix sixthpower tail yes
special_bonds	lj/coul 0 0 1

# Pair Coeffs

pair_coeff	 1  1    0.05400    4.01000  # c,c
pair_coeff	 2  2    0.05400    4.01000  # c1,c1
pair_coeff	 3  3    0.12000    3.81000  # c_1,c_1
pair_coeff	 4  4    0.02000    2.99500  # hc,hc
pair_coeff	 5  5    0.26700    3.30000  # o_1,o_1
pair_coeff	 6  6    0.24000    3.42000  # o_2,o_2

# Bond Coeffs

bond_coeff	1    1.53000  299.67000 -501.77000  679.81000  # c,c
bond_coeff	2    1.53000  299.67000 -501.77000  679.81000  # c,c1
bond_coeff	3    1.52020  253.70670 -423.03700  396.90000  # c,c_1
bond_coeff	4    1.10100  345.00000 -691.89000  844.60000  # c,hc
bond_coeff	5    1.43000  326.72730 -608.53060  689.03330  # c,o_2
bond_coeff	6    1.52020  253.70670 -423.03700  396.90000  # c1,c_1
bond_coeff	7    1.10100  345.00000 -691.89000  844.60000  # c1,hc
bond_coeff	8    1.20200  851.14030 -1918.48820 2160.76590  # c_1,o_1
bond_coeff	9    1.36830  367.14810 -794.79080 1055.23190  # c_1,o_2

# Angle Coeffs

angle_coeff	 1  112.67000   39.51600   -7.44300   -9.55830  # c,c,c
angle_coeff	 2  112.67000   39.51600   -7.44300   -9.55830  # c,c,c1
angle_coeff	 3  108.52950   51.97470   -9.48510  -10.99850  # c,c,c_1
angle_coeff	 4  110.77000   41.45300  -10.60400    5.12900  # c,c,hc
angle_coeff	 5  112.67000   39.51600   -7.44300   -9.55830  # c,c1,c
angle_coeff	 6  108.52950   51.97470   -9.48510  -10.99850  # c,c1,c_1
angle_coeff	 7  110.77000   41.45300  -10.60400    5.12900  # c,c1,hc
angle_coeff	 8  123.14510   55.54310  -17.21230    0.13480  # c,c_1,o_1
angle_coeff	 9  100.31820   38.86310   -3.83230   -7.98020  # c,c_1,o_2
angle_coeff	10  113.28800   61.28680  -28.97860    7.99290  # c,o_2,c_1
angle_coeff	11  110.77000   41.45300  -10.60400    5.12900  # c1,c,hc
angle_coeff	12  123.14510   55.54310  -17.21230    0.13480  # c1,c_1,o_1
angle_coeff	13  100.31820   38.86310   -3.83230   -7.98020  # c1,c_1,o_2
angle_coeff	14  107.73360   40.60990  -28.81210    0.00000  # c_1,c1,hc
angle_coeff	15  107.66000   39.64100  -12.92100   -2.43180  # hc,c,hc
angle_coeff	16  107.68800   65.48010  -10.34980    5.88660  # hc,c,o_2
angle_coeff	17  120.79700   95.34460  -32.28690    6.37780  # o_1,c_1,o_2

# BondBond Coeffs

angle_coeff	 1 bb    0.00000    1.53000    1.53000  # c,c,c
angle_coeff	 2 bb    0.00000    1.53000    1.53000  # c,c,c1
angle_coeff	 3 bb    5.41990    1.53000    1.52020  # c,c,c_1
angle_coeff	 4 bb    3.38720    1.53000    1.10100  # c,c,hc
angle_coeff	 5 bb    0.00000    1.53000    1.53000  # c,c1,c
angle_coeff	 6 bb    5.41990    1.53000    1.52020  # c,c1,c_1
angle_coeff	 7 bb    3.38720    1.53000    1.10100  # c,c1,hc
angle_coeff	 8 bb   46.06850    1.52020    1.20200  # c,c_1,o_1
angle_coeff	 9 bb   19.10690    1.52020    1.36830  # c,c_1,o_2
angle_coeff	10 bb   45.45030    1.43000    1.36830  # c,o_2,c_1
angle_coeff	11 bb    3.38720    1.53000    1.10100  # c1,c,hc
angle_coeff	12 bb   46.06850    1.52020    1.20200  # c1,c_1,o_1
angle_coeff	13 bb   19.10690    1.52020    1.36830  # c1,c_1,o_2
angle_coeff	14 bb    0.71150    1.52020    1.10100  # c_1,c1,hc
angle_coeff	15 bb    5.33160    1.10100    1.10100  # hc,c,hc
angle_coeff	16 bb    5.64540    1.10100    1.43000  # hc,c,o_2
angle_coeff	17 bb  121.48800    1.20200    1.36830  # o_1,c_1,o_2

# BondAngle Coeffs

angle_coeff	 1 ba    8.01600    8.01600    1.53000    1.53000  # c,c,c
angle_coeff	 2 ba    8.01600    8.01600    1.53000    1.53000  # c,c,c1
angle_coeff	 3 ba   18.16780   15.87580    1.53000    1.52020  # c,c,c_1
angle_coeff	 4 ba   20.75400   11.42100    1.53000    1.10100  # c,c,hc
angle_coeff	 5 ba    8.01600    8.01600    1.53000    1.53000  # c,c1,c
angle_coeff	 6 ba   18.16780   15.87580    1.53000    1.52020  # c,c1,c_1
angle_coeff	 7 ba   20.75400   11.42100    1.53000    1.10100  # c,c1,hc
angle_coeff	 8 ba   34.99820   37.12980    1.52020    1.20200  # c,c_1,o_1
angle_coeff	 9 ba    1.34350    4.69780    1.52020    1.36830  # c,c_1,o_2
angle_coeff	10 ba   41.91160   46.46080    1.43000    1.36830  # c,o_2,c_1
angle_coeff	11 ba   20.75400   11.42100    1.53000    1.10100  # c1,c,hc
angle_coeff	12 ba   34.99820   37.12980    1.52020    1.20200  # c1,c_1,o_1
angle_coeff	13 ba    1.34350    4.69780    1.52020    1.36830  # c1,c_1,o_2
angle_coeff	14 ba   12.46320    9.17650    1.52020    1.10100  # c_1,c1,hc
angle_coeff	15 ba   18.10300   18.10300    1.10100    1.10100  # hc,c,hc
angle_coeff	16 ba    8.68640   57.49750    1.10100    1.43000  # hc,c,o_2
angle_coeff	17 ba   76.26140   71.87610    1.20200    1.36830  # o_1,c_1,o_2

# Dihedral Coeffs

dihedral_coeff	 1    0.00000    0.00000    0.05140    0.00000   -0.14300    0.00000  # c,c,c,c
dihedral_coeff	 2    0.00000    0.00000    0.05140    0.00000   -0.14300    0.00000  # c,c,c,c1
dihedral_coeff	 3    0.09720    0.00000    0.07220    0.00000   -0.25810    0.00000  # c,c,c,c_1
dihedral_coeff	 4    0.00000    0.00000    0.03160    0.00000   -0.16810    0.00000  # c,c,c,hc
dihedral_coeff	 5    0.00000    0.00000    0.05140    0.00000   -0.14300    0.00000  # c,c,c1,c
dihedral_coeff	 6    0.09720    0.00000    0.07220    0.00000   -0.25810    0.00000  # c,c,c1,c_1
dihedral_coeff	 7    0.00000    0.00000    0.03160    0.00000   -0.16810    0.00000  # c,c,c1,hc
dihedral_coeff	 8    0.04420    0.00000    0.02920    0.00000    0.05620    0.00000  # c,c,c_1,o_1
dihedral_coeff	 9    1.83410    0.00000    2.06030    0.00000   -0.01950    0.00000  # c,c,c_1,o_2
dihedral_coeff	10    0.00000    0.00000    0.03160    0.00000   -0.16810    0.00000  # c,c1,c,hc
dihedral_coeff	11    0.04420    0.00000    0.02920    0.00000    0.05620    0.00000  # c,c1,c_1,o_1
dihedral_coeff	12    1.83410    0.00000    2.06030    0.00000   -0.01950    0.00000  # c,c1,c_1,o_2
dihedral_coeff	13   -2.55940    0.00000    2.20130    0.00000    0.03250    0.00000  # c,c_1,o_2,c
dihedral_coeff	14   -2.55940    0.00000    2.20130    0.00000    0.03250    0.00000  # c,o_2,c_1,c1
dihedral_coeff	15    0.00000    0.00000    2.20890    0.00000    0.00000    0.00000  # c,o_2,c_1,o_1
dihedral_coeff	16    0.09720    0.00000    0.07220    0.00000   -0.25810    0.00000  # c1,c,c,c_1
dihedral_coeff	17   -0.02280    0.00000    0.02800    0.00000   -0.18630    0.00000  # c_1,c,c,hc
dihedral_coeff	18   -0.02280    0.00000    0.02800    0.00000   -0.18630    0.00000  # c_1,c1,c,hc
dihedral_coeff	19    0.00000    0.00000    0.00000    0.00000   -0.19320    0.00000  # c_1,o_2,c,hc
dihedral_coeff	20   -0.14320    0.00000    0.06170    0.00000   -0.10830    0.00000  # hc,c,c1,hc
dihedral_coeff	21   -0.18040    0.00000    0.00120    0.00000    0.03710    0.00000  # hc,c1,c_1,o_1
dihedral_coeff	22   -0.63590    0.00000    1.48070    0.00000   -0.04380    0.00000  # hc,c1,c_1,o_2

# MiddleBondTorsion Coeffs

dihedral_coeff	 1 mbt  -17.78700   -7.18770    0.00000    1.53000  # c,c,c,c
dihedral_coeff	 2 mbt  -17.78700   -7.18770    0.00000    1.53000  # c,c,c,c1
dihedral_coeff	 3 mbt   -1.59450    0.22670   -0.69110    1.53000  # c,c,c,c_1
dihedral_coeff	 4 mbt  -14.87900   -3.65810   -0.31380    1.53000  # c,c,c,hc
dihedral_coeff	 5 mbt  -17.78700   -7.18770    0.00000    1.53000  # c,c,c1,c
dihedral_coeff	 6 mbt   -1.59450    0.22670   -0.69110    1.53000  # c,c,c1,c_1
dihedral_coeff	 7 mbt  -14.87900   -3.65810   -0.31380    1.53000  # c,c,c1,hc
dihedral_coeff	 8 mbt    0.33880   -0.10960    0.12190    1.52020  # c,c,c_1,o_1
dihedral_coeff	 9 mbt  -17.32800   -5.79000   -3.21140    1.52020  # c,c,c_1,o_2
dihedral_coeff	10 mbt  -14.87900   -3.65810   -0.31380    1.53000  # c,c1,c,hc
dihedral_coeff	11 mbt    0.33880   -0.10960    0.12190    1.52020  # c,c1,c_1,o_1
dihedral_coeff	12 mbt  -17.32800   -5.79000   -3.21140    1.52020  # c,c1,c_1,o_2
dihedral_coeff	13 mbt    1.34450    3.55150   -4.92020    1.36830  # c,c_1,o_2,c
dihedral_coeff	14 mbt    1.34450    3.55150   -4.92020    1.36830  # c,o_2,c_1,c1
dihedral_coeff	15 mbt    4.26000    0.00000    0.00000    1.36830  # c,o_2,c_1,o_1
dihedral_coeff	16 mbt   -1.59450    0.22670   -0.69110    1.53000  # c1,c,c,c_1
dihedral_coeff	17 mbt   -3.50390    1.24580   -0.76100    1.53000  # c_1,c,c,hc
dihedral_coeff	18 mbt   -3.50390    1.24580   -0.76100    1.53000  # c_1,c1,c,hc
dihedral_coeff	19 mbt    0.00000    0.00000    0.00000    1.43000  # c_1,o_2,c,hc
dihedral_coeff	20 mbt  -14.26100   -0.53220   -0.48640    1.53000  # hc,c,c1,hc
dihedral_coeff	21 mbt    0.23590    0.91390    0.95940    1.52020  # hc,c1,c_1,o_1
dihedral_coeff	22 mbt  -13.76860   -2.59590    1.19340    1.52020  # hc,c1,c_1,o_2

# EndBondTorsion Coeffs

dihedral_coeff	 1 ebt   -0.07320    0.00000    0.00000   -0.07320    0.00000    0.00000    1.53000    1.53000  # c,c,c,c
dihedral_coeff	 2 ebt   -0.07320    0.00000    0.00000   -0.07320    0.00000    0.00000    1.53000    1.53000  # c,c,c,c1
dihedral_coeff	 3 ebt    0.00620   -0.00020    0.00360    0.00550    0.00600   -0.00090    1.53000    1.52020  # c,c,c,c_1
dihedral_coeff	 4 ebt    0.24860    0.24220   -0.09250    0.08140    0.05910    0.22190    1.53000    1.10100  # c,c,c,hc
dihedral_coeff	 5 ebt   -0.07320    0.00000    0.00000   -0.07320    0.00000    0.00000    1.53000    1.53000  # c,c,c1,c
dihedral_coeff	 6 ebt    0.00620   -0.00020    0.00360    0.00550    0.00600   -0.00090    1.53000    1.52020  # c,c,c1,c_1
dihedral_coeff	 7 ebt    0.24860    0.24220   -0.09250    0.08140    0.05910    0.22190    1.53000    1.10100  # c,c,c1,hc
dihedral_coeff	 8 ebt    0.26540    0.05030    0.10460   -0.28100    0.08160   -0.15220    1.53000    1.20200  # c,c,c_1,o_1
dihedral_coeff	 9 ebt    0.00000    0.00000    0.00000    0.00000    0.00000    0.00000    1.53000    1.36830  # c,c,c_1,o_2
dihedral_coeff	10 ebt    0.24860    0.24220   -0.09250    0.08140    0.05910    0.22190    1.53000    1.10100  # c,c1,c,hc
dihedral_coeff	11 ebt    0.26540    0.05030    0.10460   -0.28100    0.08160   -0.15220    1.53000    1.20200  # c,c1,c_1,o_1
dihedral_coeff	12 ebt    0.00000    0.00000    0.00000    0.00000    0.00000    0.00000    1.53000    1.36830  # c,c1,c_1,o_2
dihedral_coeff	13 ebt    0.00000    0.00000    0.00000    0.00000    0.00000    0.00000    1.52020    1.43000  # c,c_1,o_2,c
dihedral_coeff	14 ebt    0.00000    0.00000    0.00000    0.00000    0.00000    0.00000    1.43000    1.52020  # c,o_2,c_1,c1
dihedral_coeff	15 ebt    0.00000    0.00000    0.00000    0.00000    0.00000    0.00000    1.43000    1.20200  # c,o_2,c_1,o_1
dihedral_coeff	16 ebt    0.00620   -0.00020    0.00360    0.00550    0.00600   -0.00090    1.53000    1.52020  # c1,c,c,c_1
dihedral_coeff	17 ebt   -0.02040    0.36280   -0.44260   -0.00970   -0.03150   -0.07550    1.52020    1.10100  # c_1,c,c,hc
dihedral_coeff	18 ebt   -0.02040    0.36280   -0.44260   -0.00970   -0.03150   -0.07550    1.52020    1.10100  # c_1,c1,c,hc
dihedral_coeff	19 ebt    0.00000    0.00000    0.00000    0.00000    0.00000    0.00000    1.36830    1.10100  # c_1,o_2,c,hc
dihedral_coeff	20 ebt    0.21300    0.31200    0.07770    0.21300    0.31200    0.07770    1.10100    1.10100  # hc,c,c1,hc
dihedral_coeff	21 ebt    1.21430    0.28310    0.39160   -0.22980    0.03540    0.38530    1.10100    1.20200  # hc,c1,c_1,o_1
dihedral_coeff	22 ebt    0.00000    0.00000    0.00000    0.00000    0.00000    0.00000    1.10100    1.36830  # hc,c1,c_1,o_2

# AngleTorsion Coeffs

dihedral_coeff	 1 at    0.38860   -0.31390    0.13890    0.38860   -0.31390    0.13890  112.67000  112.67000  # c,c,c,c
dihedral_coeff	 2 at    0.38860   -0.31390    0.13890    0.38860   -0.31390    0.13890  112.67000  112.67000  # c,c,c,c1
dihedral_coeff	 3 at   -0.26070    0.32030   -0.22830    0.05150   -0.06740   -0.04740  112.67000  108.52950  # c,c,c,c_1
dihedral_coeff	 4 at   -0.24540    0.00000   -0.11360    0.31130    0.45160   -0.19880  112.67000  110.77000  # c,c,c,hc
dihedral_coeff	 5 at    0.38860   -0.31390    0.13890    0.38860   -0.31390    0.13890  112.67000  112.67000  # c,c,c1,c
dihedral_coeff	 6 at   -0.26070    0.32030   -0.22830    0.05150   -0.06740   -0.04740  112.67000  108.52950  # c,c,c1,c_1
dihedral_coeff	 7 at   -0.24540    0.00000   -0.11360    0.31130    0.45160   -0.19880  112.67000  110.77000  # c,c,c1,hc
dihedral_coeff	 8 at    0.08850   -1.37030   -0.54520    0.67500    0.59650    0.67250  108.52950  123.14510  # c,c,c_1,o_1
dihedral_coeff	 9 at    0.00000    0.00000    0.00000    0.00000    0.00000    0.00000  108.52950  100.31820  # c,c,c_1,o_2
dihedral_coeff	10 at   -0.24540    0.00000   -0.11360    0.31130    0.45160   -0.19880  112.67000  110.77000  # c,c1,c,hc
dihedral_coeff	11 at    0.08850   -1.37030   -0.54520    0.67500    0.59650    0.67250  108.52950  123.14510  # c,c1,c_1,o_1
dihedral_coeff	12 at    0.00000    0.00000    0.00000    0.00000    0.00000    0.00000  108.52950  100.31820  # c,c1,c_1,o_2
dihedral_coeff	13 at    0.00000    0.00000    0.00000    0.00000    0.00000    0.00000  100.31820  113.28800  # c,c_1,o_2,c
dihedral_coeff	14 at    0.00000    0.00000    0.00000    0.00000    0.00000    0.00000  113.28800  100.31820  # c,o_2,c_1,c1
dihedral_coeff	15 at    0.00000    0.00000    0.00000    0.00000    0.00000    0.00000  113.28800  120.79700  # c,o_2,c_1,o_1
dihedral_coeff	16 at   -0.26070    0.32030   -0.22830    0.05150   -0.06740   -0.04740  112.67000  108.52950  # c1,c,c,c_1
dihedral_coeff	17 at   -0.74660   -0.94480   -0.63210    0.01620    1.42110   -1.40920  108.52950  110.77000  # c_1,c,c,hc
dihedral_coeff	18 at   -0.74660   -0.94480   -0.63210    0.01620    1.42110   -1.40920  108.52950  110.77000  # c_1,c1,c,hc
dihedral_coeff	19 at    0.00000    0.00000    0.00000    0.00000    0.00000    0.00000  113.28800  107.68800  # c_1,o_2,c,hc
dihedral_coeff	20 at   -0.80850    0.55690   -0.24660   -0.80850    0.55690   -0.24660  110.77000  110.77000  # hc,c,c1,hc
dihedral_coeff	21 at    9.12990   -0.48470    0.35820   -1.49460    0.73080   -0.20830  107.73360  123.14510  # hc,c1,c_1,o_1
dihedral_coeff	22 at    0.00000    0.00000    0.00000    0.00000    0.00000    0.00000  107.73360  100.31820  # hc,c1,c_1,o_2

# AngleAngleTorsion Coeffs

dihedral_coeff	 1 aat  -22.04500  112.67000  112.67000  # c,c,c,c
dihedral_coeff	 2 aat  -22.04500  112.67000  112.67000  # c,c,c,c1
dihedral_coeff	 3 aat   -0.38010  112.67000  108.52950  # c,c,c,c_1
dihedral_coeff	 4 aat  -16.16400  112.67000  110.77000  # c,c,c,hc
dihedral_coeff	 5 aat  -22.04500  112.67000  112.67000  # c,c,c1,c
dihedral_coeff	 6 aat   -0.38010  112.67000  108.52950  # c,c,c1,c_1
dihedral_coeff	 7 aat  -16.16400  112.67000  110.77000  # c,c,c1,hc
dihedral_coeff	 8 aat   -8.01900  108.52950  123.14510  # c,c,c_1,o_1
dihedral_coeff	 9 aat    0.00000  108.52950  100.31820  # c,c,c_1,o_2
dihedral_coeff	10 aat  -16.16400  112.67000  110.77000  # c,c1,c,hc
dihedral_coeff	11 aat   -8.01900  108.52950  123.14510  # c,c1,c_1,o_1
dihedral_coeff	12 aat    0.00000  108.52950  100.31820  # c,c1,c_1,o_2
dihedral_coeff	13 aat    0.00000  100.31820  113.28800  # c,c_1,o_2,c
dihedral_coeff	14 aat    0.00000  113.28800  100.31820  # c,o_2,c_1,c1
dihedral_coeff	15 aat    0.00000  113.28800  120.79700  # c,o_2,c_1,o_1
dihedral_coeff	16 aat   -0.38010  112.67000  108.52950  # c1,c,c,c_1
dihedral_coeff	17 aat   -5.36240  108.52950  110.77000  # c_1,c,c,hc
dihedral_coeff	18 aat   -5.36240  108.52950  110.77000  # c_1,c1,c,hc
dihedral_coeff	19 aat    0.00000  113.28800  107.68800  # c_1,o_2,c,hc
dihedral_coeff	20 aat  -12.56400  110.77000  110.77000  # hc,c,c1,hc
dihedral_coeff	21 aat  -15.34960  107.73360  123.14510  # hc,c1,c_1,o_1
dihedral_coeff	22 aat    0.00000  107.73360  100.31820  # hc,c1,c_1,o_2

# BondBond13 Coeffs

dihedral_coeff	 1 bb13    0.00000    1.53000    1.53000  # c,c,c,c
dihedral_coeff	 2 bb13    0.00000    1.53000    1.53000  # c,c,c,c1
dihedral_coeff	 3 bb13    0.00000    1.53000    1.52020  # c,c,c,c_1
dihedral_coeff	 4 bb13    0.00000    1.53000    1.10100  # c,c,c,hc
dihedral_coeff	 5 bb13    0.00000    1.53000    1.53000  # c,c,c1,c
dihedral_coeff	 6 bb13    0.00000    1.53000    1.52020  # c,c,c1,c_1
dihedral_coeff	 7 bb13    0.00000    1.53000    1.10100  # c,c,c1,hc
dihedral_coeff	 8 bb13    0.00000    1.53000    1.20200  # c,c,c_1,o_1
dihedral_coeff	 9 bb13    0.00000    1.53000    1.36830  # c,c,c_1,o_2
dihedral_coeff	10 bb13    0.00000    1.53000    1.10100  # c,c1,c,hc
dihedral_coeff	11 bb13    0.00000    1.53000    1.20200  # c,c1,c_1,o_1
dihedral_coeff	12 bb13    0.00000    1.53000    1.36830  # c,c1,c_1,o_2
dihedral_coeff	13 bb13    0.00000    1.52020    1.43000  # c,c_1,o_2,c
dihedral_coeff	14 bb13    0.00000    1.43000    1.52020  # c,o_2,c_1,c1
dihedral_coeff	15 bb13    0.00000    1.43000    1.20200  # c,o_2,c_1,o_1
dihedral_coeff	16 bb13    0.00000    1.53000    1.52020  # c1,c,c,c_1
dihedral_coeff	17 bb13    0.00000    1.52020    1.10100  # c_1,c,c,hc
dihedral_coeff	18 bb13    0.00000    1.52020    1.10100  # c_1,c1,c,hc
dihedral_coeff	19 bb13    0.00000    1.36830    1.10100  # c_1,o_2,c,hc
dihedral_coeff	20 bb13    0.00000    1.10100    1.10100  # hc,c,c1,hc
dihedral_coeff	21 bb13    0.00000    1.10100    1.20200  # hc,c1,c_1,o_1
dihedral_coeff	22 bb13    0.00000    1.10100    1.36830  # hc,c1,c_1,o_2

# Improper Coeffs

improper_coeff	 1    0.00000    0.00000  # c,c,c,c
improper_coeff	 2    0.00000    0.00000  # c,c,c,c_1
improper_coeff	 3    0.00000    0.00000  # c,c,c,hc
improper_coeff	 4    0.00000    0.00000  # c,c,c1,hc
improper_coeff	 5    0.00000    0.00000  # c,c,hc,hc
improper_coeff	 6    0.00000    0.00000  # c,c1,hc,hc
improper_coeff	 7    0.00000    0.00000  # c,hc,hc,hc
improper_coeff	 8    0.00000    0.00000  # c,hc,hc,o_2
improper_coeff	 9    0.00000    0.00000  # c1,c,c,c_1
improper_coeff	10    0.00000    0.00000  # c1,c,c,hc
improper_coeff	11    0.00000    0.00000  # c1,c,c_1,hc
improper_coeff	12    0.00000    0.00000  # c1,c,hc,c_1
improper_coeff	13   46.92640    0.00000  # c_1,c,o_2,o_1
improper_coeff	14   46.92640    0.00000  # c_1,c1,o_2,o_1

# AngleAngle Coeffs

improper_coeff	 1 aa   -0.17290   -0.17290   -0.17290  112.67000  112.67000  112.67000  # c,c,c,c
improper_coeff	 2 aa    0.00000    0.00000    0.00000  112.67000  108.52950  108.52950  # c,c,c,c_1
improper_coeff	 3 aa   -1.31990   -1.31990    0.11840  112.67000  110.77000  110.77000  # c,c,c,hc
improper_coeff	 4 aa   -1.31990   -1.31990    0.11840  112.67000  110.77000  110.77000  # c,c,c1,hc
improper_coeff	 5 aa    0.27380   -0.48250    0.27380  110.77000  110.77000  107.66000  # c,c,hc,hc
improper_coeff	 6 aa    0.27380   -0.48250    0.27380  110.77000  110.77000  107.66000  # c,c1,hc,hc
improper_coeff	 7 aa   -0.31570   -0.31570   -0.31570  107.66000  107.66000  107.66000  # c,hc,hc,hc
improper_coeff	 8 aa    0.00000    0.00000    0.00000  107.66000  107.68800  107.68800  # c,hc,hc,o_2
improper_coeff	 9 aa    0.00000    0.00000    0.00000  112.67000  108.52950  108.52950  # c1,c,c,c_1
improper_coeff	10 aa   -1.31990   -1.31990    0.11840  112.67000  110.77000  110.77000  # c1,c,c,hc
improper_coeff	11 aa    2.04030   -1.82020    1.08270  108.52950  110.77000  107.73360  # c1,c,c_1,hc
improper_coeff	12 aa    1.08270   -1.82020    2.04030  110.77000  108.52950  107.73360  # c1,c,hc,c_1
improper_coeff	13 aa    0.00000    0.00000    0.00000  100.31820  123.14510  120.79700  # c_1,c,o_2,o_1
improper_coeff	14 aa    0.00000    0.00000    0.00000  100.31820  123.14510  120.79700  # c_1,c1,o_2,o_1


# --- Thermo Output ---
thermo_style custom step time temp press enthalpy etotal ke pe ebond eangle edihed eimp evdwl ecoul elong etail vol lx ly lz density pxx pyy pzz
thermo_modify flush yes
thermo 1000

# --- Trajectory ---
dump dump_npt all custom 1000 npt_cool.dump id type mol x y z ix iy iz vx vy vz

# --- Restart Checkpointing ---
restart 10000 npt_1.rst npt_2.rst

# --- Initial Velocities (optional) ---
# Velocities read from data file

# --- SHAKE Constraints ---
# SHAKE disabled

# --- NPT Thermostat + Barostat (Nose-Hoover) ---
# T_damp = 100.0 fs  (heat bath coupling)
# P_damp = 1000.0 fs  (pressure bath coupling, ~10x T_damp typical)
# Ramp: T=630.0->550.0K  P=1.0->1.0atm
timestep 1.0
fix npt_fix all npt temp 630.0 550.0 100.0 iso 1.0 1.0 1000.0

run 2000000
PPPM Kokkos initialization ...
  using 12-bit tables for long-range coulomb
  G vector (1/distance) = 0.33129923
  grid = 45 45 45
  stencil order = 5
  estimated absolute RMS force accuracy = 0.0003095511
  estimated relative force accuracy = 9.3220395e-07
  using double precision cuFFT
  3d grid and FFT values/proc = 140608 91125
Generated 15 of 15 mixed pair_coeff terms from sixthpower/sixthpower mixing rule
Neighbor list info ...
  update: every = 1 steps, delay = 0 steps, check = yes
  max neighbors/atom: 4000, page size: 100000
  master list distance cutoff = 11.5
  ghost atom cutoff = 11.5
  binsize = 11.5, bins = 4 4 4
  1 neighbor lists, perpetual/occasional/extra = 1 0 0
  (1) pair lj/class2/coul/long/kk, perpetual
      attributes: full, newton off, kokkos_device
      pair build: full/bin/kk/device
      stencil: full/bin/3d
      bin: kk/device
Per MPI rank memory allocation (min/avg/max) = 62.51 | 62.51 | 62.51 Mbytes
   Step          Time           Temp          Press         Enthalpy        TotEng         KinEng         PotEng         E_bond        E_angle        E_dihed        E_impro         E_vdwl         E_coul         E_long         E_tail         Volume           Lx             Ly             Lz          Density          Pxx            Pyy            Pzz      
         0   0              634.90609      1461.2168      44757.928      43067.271      14229.966      28837.304      6852.944       9697.6254     -1297.1012      378.62963      841.92354      42931.782     -30568.499     -494.72758      79335.034      42.968976      42.968976      42.968976      1.0481958      2915.4387      1314.6981      153.51381    
      1000   1000           633.98782      313.02456      43525.553      43162.442      14209.386      28953.057      6808.4731      9898.9999     -1227.2352      383.33412      762.85942      42911.016     -30584.391     -493.45436      79539.736      43.005901      43.005901      43.005901      1.0454982      52.747497      954.99381     -68.667642    
      2000   2000           635.11453     -390.14375      42857.245      43312.3        14234.638      29077.662      6981.2497      9901.2577     -1269.5933      412.86069      738.3079       42900.631     -30587.052     -490.75845      79976.675      43.084506      43.084506      43.084506      1.0397863      98.236488     -1705.1921      436.52431    
      3000   3000           627.77934     -198.15135      42814.858      43047.925      14070.237      28977.688      7032.9187      9571.2185     -1176.2162      396.10981      820.22885      42922.622     -30589.194     -486.65752      80650.617      43.205188      43.205188      43.205188      1.0310975     -2108.6991      2115.456      -601.21096    
      4000   4000           628.72018      251.68067      43620.261      43325.668      14091.324      29234.344      7020.321       9939.4596     -1187.9608      349.63103      768.17619      42932.049     -30587.332     -489.02923      80259.474      43.135229      43.135229      43.135229      1.0361225      893.44145      1898.4649     -2036.8643    
      5000   5000           618.15095     -2156.6078      40281.047      42811.435      13854.438      28956.996      6991.1029      9831.9917     -1168.1591      373.57179      623.88778      42889.53      -30584.929     -487.85547      80452.577      43.169795      43.169795      43.169795      1.0336356     -1829.2208     -2080.6359     -2559.9666    
      6000   6000           638.70472      1867.1682      45278.724      43074.043      14315.104      28758.938      6829.8854      9743.7803     -1297.6669      376.98823      767.5343       42930.135     -30591.718     -484.77999      80962.973      43.260893      43.260893      43.260893      1.0271195      903.57377      2657.3704      2040.5603    
      7000   7000           630.59494     -340.76479      43069.012      43468.526      14133.342      29335.184      7134.8377      9832.4824     -1214.1043      374.44436      865.13183      42923.736     -30581.344     -488.23618      80389.842      43.158571      43.158571      43.158571      1.0344423     -406.35179     -339.69665     -276.24593    
      8000   8000           627.53685      390.91842      43532.884      43071.13       14064.802      29006.328      6879.0012      9796.4993     -1157.6983      370.78053      795.41028      42916.986     -30594.651     -484.59924      80993.171      43.266271      43.266271      43.266271      1.0267366      1497.7943      959.81117     -1284.8503    
      9000   9000           633.7617      -236.59434      42871.559      43150.695      14204.318      28946.377      6753.8444      9895.4969     -1218.6396      380.05303      793.6482       42930.641     -30588.667     -485.17214      80897.533      43.249235      43.249235      43.249235      1.0279504      334.31756     -1192.4611      148.36051    
     10000   10000          619.76778     -1475.6335      41316.473      43067.124      13890.676      29176.448      7053.7208      9869.6447     -1237.0125      347.4291       814.87084      42913.251     -30585.456     -482.48743      81347.672      43.329304      43.329304      43.329304      1.0222622     -64.90383      -464.90731     -3897.0894    
     11000   11000          630.24888     -1991.2013      40785.517      43169.076      14125.586      29043.49       6905.3595      9855.7015     -1232.4627      365.22571      809.79905      42926.664     -30586.797     -478.18545      82079.514      43.458853      43.458853      43.458853      1.0131475     -3135.3967     -735.73708     -2102.4701    
     12000   12000          622.37782     -449.63057      42336.161      42868.284      13949.174      28919.11       6884.0082      9757.4299     -1275.9276      415.06313      832.66939      42900.382     -30594.515     -483.67175      81148.484      43.293909      43.293909      43.293909      1.0247715     -1553.7728     -294.80937      499.69044    
     13000   13000          634.53294     -1812.2831      41179.684      43324.645      14221.603      29103.042      7149.2336      9867.5178     -1312.335       325.18645      738.81652      42921.045     -30586.423     -483.6305       81155.406      43.29514       43.29514       43.29514       1.0246841     -1185.2321     -1806.3098     -2445.3074    
     14000   14000          630.20746      408.67719      43635.686      43158.056      14124.657      29033.398      6901.4344      9822.8345     -1223.106       355.44962      819.64404      42935.53      -30578.388     -489.77365      80137.486      43.113363      43.113363      43.113363      1.0376998      277.72954      138.86549      809.43655    
     15000   15000          615.23794     -922.7682       41912.339      43014.434      13789.15       29225.284      7124.907       9845.7891     -1249.8466      365.59752      811.88657      42904.689     -30577.738     -479.27007      81893.763      43.426045      43.426045      43.426045      1.0154455     -794.22045     -2289.1248      315.04061    
     16000   16000          622.39918     -712.14499      42385.605      43231.83       13949.653      29282.178      7094.5356      9893.1736     -1231.4237      404.19945      796.2247       42907.553     -30582.085     -481.714        81478.282      43.352481      43.352481      43.352481      1.0206235     -1603.8286      442.47519     -975.08158    
     17000   17000          623.14499      428.9118       43517.402      43012.111      13966.369      29045.743      7088.728       9733.3076     -1283.0512      359.3081       824.74547      42908.12      -30585.415     -485.88492      80778.858      43.228076      43.228076      43.228076      1.0294606     -326.33823     -79.679328      1692.753     
     18000   18000          629.77909      935.39583      44457.057      43351.858      14115.057      29236.802      7001.7759      9838.1364     -1228.9387      365.57517      909.834        42945.27      -30594.851     -484.46446      81015.703      43.270283      43.270283      43.270283      1.026451       759.33467      1526.1403      520.71247    
     19000   19000          630.82867     -822.35612      42106.637      43085.061      14138.581      28946.481      6948.2598      9780.703      -1247.8526      360.19757      749.50522      42942.419     -30586.752     -481.10469      81581.472      43.370775      43.370775      43.370775      1.0193326     -1080.9508     -94.300632     -1291.8169    
     20000   20000          638.83227      551.19996      44104.074      43455.147      14317.963      29137.184      6885.2182      9845.8521     -1185.4699      407.84835      860.27402      42923.362     -30599.9       -486.20612      80725.494      43.218555      43.218555      43.218555      1.0301411      43.505194      1736.2691     -126.17447    
     21000   21000          627.3997       60.559073      43253.868      43182.329      14061.728      29120.601      6992.3859      9816.6456     -1212.6148      344.90741      832.57493      42934.685     -30587.983     -484.55003      81001.396      43.267736      43.267736      43.267736      1.0266323      74.17939       514.845       -407.34717    
     22000   22000          626.42825      470.93674      43567.267      43008.12       14039.955      28968.164      6965.4885      9760.923      -1235.9395      354.49095      772.50022      42931.054     -30580.353     -482.107        81411.864      43.340698      43.340698      43.340698      1.0214562     -350.08072      1644.238       118.65291    
     23000   23000          640.72424     -561.79707      42701.71       43367.212      14360.367      29006.845      6932.6568      9876.2756     -1254.9984      370.22964      772.37213      42907.734     -30597.425     -483.21152      81225.772      43.30765       43.30765       43.30765       1.0237964     -3040.3629      1187.0757      167.89603    
     24000   24000          631.54956     -446.65056      42482.165      43004.56       14154.738      28849.822      6959.9468      9584.132      -1167.9576      371.23468      781.83056      42906.144     -30585.508     -489.41352      80196.455      43.123936      43.123936      43.123936      1.0369367      259.06176      75.571592     -1674.585     
     25000   25000          641.51793      175.49147      43633.308      43425.328      14378.156      29047.172      7110.5119      9765.8072     -1251.2877      380.02361      707.01198      42922.406     -30587.301     -482.9935       81262.438      43.314165      43.314165      43.314165      1.0233344     -1595.0015      2235.6136     -114.13769    
     26000   26000          627.131       -736.13371      42017.667      42883.6        14055.706      28827.894      6830.0955      9736.2297     -1243.5414      361.9625       846.60402      42882.231     -30585.687     -486.60826      80658.781      43.206646      43.206646      43.206646      1.0309931     -537.54014     -200.53541     -1470.3256    
     27000   27000          627.85889     -826.68276      42011.509      42994.781      14072.02       28922.761      6870.055       9740.8155     -1303.0987      362.90675      926.64273      42909.397     -30583.957     -481.25169      81556.553      43.366358      43.366358      43.366358      1.019644      -2190.8799      804.72037     -1093.8887    
     28000   28000          632.31284     -422.233        42518.416      43017.572      14171.845      28845.727      6900.771       9740.0979     -1311.1723      409.6972       792.68659      42904.22      -30590.573     -484.19794      81060.298      43.278221      43.278221      43.278221      1.0258863      361.37548      524.47443     -2152.5489    
     29000   29000          632.9245      -228.48646      43014.119      43285.051      14185.554      29099.497      7029.1448      9902.9578     -1295.7108      394.89885      778.01214      42876.041     -30585.846     -482.73296      81306.297      43.321956      43.321956      43.321956      1.0227824      381.89331      1506.3067     -2573.6594    
     30000   30000          639.71141     -471.1126       42714.885      43270.661      14337.667      28932.994      6805.2462      9690.3524     -1187.7114      391.47065      878.68999      42934.921     -30579.975     -485.21306      80890.711      43.248019      43.248019      43.248019      1.0280371     -1356.6907      276.35523     -333.00228    
     31000   31000          615.11766      299.82029      43399.134      43043.654      13786.454      29257.199      7097.9556      9732.6171     -1196.3619      390.70326      885.31065      42924.936     -30577.961     -482.78406      81297.69       43.320428      43.320428      43.320428      1.0228907      1415.1579      874.56906     -1390.2661    
     32000   32000          627.84151     -740.96387      41960.793      42839.928      14071.63       28768.298      6784.8314      9724.9923     -1248.7153      394.50107      794.3361       42910.729     -30592.376     -482.44537      81354.764      43.330563      43.330563      43.330563      1.0221731     -382.19189     -1015.2128     -825.48695    
     33000   33000          625.54606     -1519.1131      41385.39       43194.844      14020.183      29174.662      7116.5535      9763.14       -1242.6066      371.43782      810.00792      42945.159     -30589.03      -480.562        81673.601      43.387095      43.387095      43.387095      1.0181827     -1314.4956     -3598.8933      356.04954    
     34000   34000          638.9116       1194.3764      44762.815      43355.994      14319.741      29036.253      6898.4294      9829.8024     -1285.2622      387.82595      857.62229      42925.605     -30577.769     -485.97023      80764.679      43.225546      43.225546      43.225546      1.0296413      1788.2553      3081.4699     -1286.596     
     35000   35000          633.25174      530.2727       43712.369      43073.787      14192.888      28880.899      6766.7381      9748.1562     -1185.2462      323.10045      905.8698       42915.305     -30593.024     -475.32426      82573.587      43.545878      43.545878      43.545878      1.0070854      460.29652      870.73807      259.78351    
     36000   36000          641.45618      1200.5826      44757.036      43332.943      14376.772      28956.171      6906.9053      9821.1043     -1254.5786      364.95542      797.04732      42911.812     -30591.075     -482.57051      81333.667      43.326817      43.326817      43.326817      1.0224382      512.28232      1690.2243      1399.2412    
     37000   37000          626.16809      577.78001      43732.548      43052.555      14034.124      29018.431      7013.652       9671.277      -1228.6746      380.31698      858.97172      42921.802     -30598.915     -486.36832      80698.573      43.21375       43.21375       43.21375       1.0304848      477.73303      1715.3427     -459.7357     
     38000   38000          637.62687      242.42695      43352.358      43067.17       14290.947      28776.224      6866.3538      9765.1541     -1292.8801      369.14276      747.29745      42918.184     -30597.029     -486.58263      80663.031      43.207404      43.207404      43.207404      1.0309388     -271.39915      768.18572      230.49428    
     39000   39000          637.82225     -83.979457      43089.539      43188.86       14295.326      28893.534      7000.7821      9788.6979     -1322.1955      401.07436      716.18578      42898.627     -30589.637     -483.994        81094.454      43.284299      43.284299      43.284299      1.0254542     -1111.9948     -602.69236      1462.7488    
     40000   40000          633.8474       256.71953      43267.611      42966.416      14206.238      28760.178      6928.3894      9674.6595     -1227.1504      322.2692       708.54575      42926.366     -30572.902     -487.88538      80447.644      43.168913      43.168913      43.168913      1.033699       855.70619      1034.1183     -1119.6659    
     41000   41000          631.07964      635.97069      43705.443      42951.001      14144.205      28806.796      6990.0815      9619.0137     -1334.0132      349.39844      838.97184      42918.813     -30575.47      -482.52321      81341.64       43.328233      43.328233      43.328233      1.022338      -357.88616      2465.4007     -199.60252    
     42000   42000          629.6729       191.9502       43447.209      43221.823      14112.677      29109.146      6924.8392      9882.1524     -1264.1463      329.75064      892.88391      42935.356     -30591.69      -487.49289      80512.414      43.180495      43.180495      43.180495      1.0328674      532.119       -313.48524      357.21683    
     43000   43000          632.04961      381.37054      43519.73       43064.741      14165.945      28898.796      6866.5162      9744.9123     -1254.9045      357.75759      834.30909      42936.681     -30586.476     -479.79288      81804.526      43.410266      43.410266      43.410266      1.0165532     -209.42473     -445.83826      1799.3746    
     44000   44000          608.75182     -1704.0861      40677.264      42706.513      13643.779      29062.734      6978.4697      9771.5903     -1250.5111      390.12362      829.28493      42926.747     -30582.97      -480.6879       81652.21       43.383306      43.383306      43.383306      1.0184495     -666.63138     -2540.3527     -1905.2743    
     45000   45000          627.69845     -1907.5042      40992.311      43243.967      14068.424      29175.543      7070.7018      9850.4663     -1229.8396      392.14887      763.02964      42910.673     -30581.637     -484.92045      80939.522      43.256716      43.256716      43.256716      1.0274171     -1214.0249     -2532.3449     -1976.1427    
     46000   46000          623.85198      1493.7275      44626.201      42864.085      13982.214      28881.871      6885.6207      9699.061      -1246.3881      384.92336      806.74081      42935.777     -30583.863     -485.22585      80888.579      43.247639      43.247639      43.247639      1.0280642      2270.7085      336.13385      1874.34      
     47000   47000          625.98831      308.83861      43402.653      43039.633      14030.095      29009.539      6870.7292      9736.0713     -1266.6223      401.45271      951.71128      42912.083     -30595.887     -486.97655      80597.781      43.195751      43.195751      43.195751      1.0317735      1272.1976      119.82794     -465.50974    
     48000   48000          634.61085      217.47178      43701.38       43440.836      14223.35       29217.486      7069.3069      9806.0642     -1241.5435      402.67073      863.37875      42903.591     -30585.982     -477.78165      82148.883      43.471093      43.471093      43.471093      1.0122919      473.5155      -1983.0215      2161.9214    
     49000   49000          632.16951      2021.2895      45717.759      43316.872      14168.632      29148.24       7076.0849      9771.5391     -1320.7801      384.59882      916.56851      42901.434     -30581.205     -481.90767      81445.537      43.346672      43.346672      43.346672      1.0210339      3266.7563      1045.9959      1751.1162    
     50000   50000          629.7978      -1631.5111      41095.218      43023.407      14115.476      28907.931      6896.8022      9802.875      -1232.0623      363.26933      720.50325      42936.954     -30580.41      -484.33702      81037.02       43.274078      43.274078      43.274078      1.026181      -3193.8252      62.758293     -1763.4665    
     51000   51000          635.09361      998.63269      44234.171      43063.255      14234.169      28829.086      6918.2879      9884.0573     -1390.9376      332.58361      756.17355      42920.791     -30591.87      -488.18798      80397.779      43.159992      43.159992      43.159992      1.0343401      2490.0181      1311.8533     -805.97335    
     52000   52000          621.4458      -1627.0005      40763.409      42686.056      13928.285      28757.771      6788.3003      9775.8715     -1287.8595      354.64655      807.62572      42912.426     -30593.239     -484.39002      81028.154      43.272499      43.272499      43.272499      1.0262933     -3168.0576     -1752.8027      39.858883    
     53000   53000          629.82319      315.68428      43630.424      43254.776      14116.045      29138.731      7118.9851      9692.102      -1247.9912      368.51317      886.90574      42915.494     -30595.278     -481.03775      81592.825      43.372786      43.372786      43.372786      1.0191907      656.88738     -1882.2041      2172.3696    
     54000   54000          627.72908      1261.7263      44516.645      43027.767      14069.11       28958.657      6839.1922      9733.1266     -1294.5377      360.65395      964.04708      42942.006     -30585.832     -485.07953      80912.978      43.251987      43.251987      43.251987      1.0277542      890.16973      1983.3942      911.61512    
     55000   55000          625.52239     -1941.027       40752.736      43081.517      14019.652      29061.865      6911.1709      9825.5542     -1235.9817      374.21431      848.12799      42911.785     -30573.006     -477.10064      82266.142      43.491766      43.491766      43.491766      1.010849      -690.54824     -834.48524     -4298.0474    
     56000   56000          633.03649     -1702.4408      41293.039      43321.151      14188.064      29133.088      7082.3614      9760.4803     -1224.7968      361.10285      778.41357      42952.379     -30576.853     -480.49297      81685.335      43.389172      43.389172      43.389172      1.0180365     -1508.1971     -1409.2516     -2189.8736    
     57000   57000          627.59362      1073.4751      44509.334      43216.668      14066.074      29150.594      6903.8368      9772.61       -1230.563       379.95541      995.67501      42923.279     -30594.2       -475.34934      82569.231      43.545112      43.545112      43.545112      1.0071385      2346.4886     -237.88267      1111.8193    
     58000   58000          626.91568      1412.309       44593.098      42894.424      14050.88       28843.544      6898.2664      9742.1541     -1355.9236      363.75324      868.15486      42911.825     -30584.686     -475.91194      82471.621      43.527946      43.527946      43.527946      1.0083305     -20.536562      1886.5425      2370.9212    
     59000   59000          623.31387      2915.0967      46537.906      43055.847      13970.154      29085.694      6884.8159      9878.8993     -1333.4706      352.08148      977.44029      42910.898     -30584.97      -479.20779      81904.405      43.427926      43.427926      43.427926      1.0153135      4609.6449      143.40977      3992.2354    
     60000   60000          639.44035      420.73558      43870.2        43364.489      14331.592      29032.898      6876.8544      9863.4959     -1305.8647      365.77707      890.51636      42920.558     -30578.439     -476.22708      82417.046      43.518343      43.518343      43.518343      1.0089982      450.12484      851.75536     -39.673462    
     61000   61000          626.1884       311.1607       43484.47       43108.413      14034.579      29073.834      6948.2095      9838.7503     -1281.1493      341.53595      885.2085       42926.37      -30585.091     -473.62882      82869.174      43.597776      43.597776      43.597776      1.0034932      1155.9782      306.62181     -529.11795    
     62000   62000          640.34373      389.11767      43743.958      43283.091      14351.839      28931.252      6944.9346      9741.8965     -1285.1147      347.53201      831.69699      42931.582     -30581.275     -483.29541      81211.674      43.305144      43.305144      43.305144      1.0239741      1651.3016     -1247.8462      763.89758    
     63000   63000          636.35927      424.01778      43807.883      43300.251      14262.536      29037.715      6793.6853      9922.2985     -1328.7612      351.90685      953.58398      42939.784     -30594.783     -478.12625      82089.676      43.460646      43.460646      43.460646      1.013022       2577.1206     -90.486337     -1214.5809    
     64000   64000          631.9682      -383.38058      42748.874      43206.351      14164.12       29042.231      6806.5848      9745.8547     -1267.4435      386.92573      998.71564      42950.794     -30579.201     -479.69821      81820.671      43.413121      43.413121      43.413121      1.0163526      819.3191      -2300.4947      331.03386    
     65000   65000          617.85835      1712.7239      44921.363      42920.27       13847.88       29072.389      6984.7765      9717.4807     -1182.003       393.04904      832.61597      42919.353     -30592.883     -489.92204      80113.213      43.10901       43.10901       43.10901       1.0380142      367.77617      2737.7468      2032.6487    
     66000   66000          619.19995      528.88413      43343.865      42712.189      13877.949      28834.24       6746.5968      9891.4672     -1281.8995      394.91829      751.236        42919.992     -30588.071     -479.26269      81895.024      43.426268      43.426268      43.426268      1.0154298      1634.4324     -874.47803      826.69805    
     67000   67000          620.24273     -994.01825      41695.688      42863.689      13901.321      28962.368      6865.5597      9826.7845     -1257.6211      367.46351      785.30175      42950.052     -30575.173     -487.14499      80569.913      43.190772      43.190772      43.190772      1.0321303     -672.57143     -680.78333     -1628.7       
     68000   68000          630.64379     -924.02335      42191.521      43295.26       14134.437      29160.823      6986.1699      9863.6583     -1275.1769      359.98081      881.74967      42934.176     -30589.734     -479.20728      81904.494      43.427941      43.427941      43.427941      1.0153124     -1428.313      -778.17827     -565.5788     
     69000   69000          627.34374     -788.73833      42052.187      42989.772      14060.474      28929.298      6871.2412      9685.5774     -1206.29        372.61657      853.09949      42941.345     -30588.291     -481.53645      81508.324      43.357808      43.357808      43.357808      1.0202473     -847.84137     -273.17469     -1245.1989    
     70000   70000          638.36924      1523.657       45127.265      43323.942      14307.585      29016.357      7078.8644      9756.017      -1296.3894      356.80086      785.37472      42921.573     -30585.884     -483.63826      81154.103      43.294909      43.294909      43.294909      1.0247005      299.49875      1678.2191      2593.2533    
     71000   71000          623.55728     -733.3067       41889.421      42771.172      13975.609      28795.564      6799.452       9573.927      -1282.2679      349.92888      1028.9515      42904.857     -30579.285     -476.04356      82448.819      43.523934      43.523934      43.523934      1.0086094     -973.44748     -2919.127       1692.6543    
     72000   72000          628.18011      2211.6364      45659.215      43031.551      14079.219      28952.332      6829.1457      9959.5435     -1387.879       373.96678      853.16139      42910.095     -30585.701     -481.7825       81466.697      43.350426      43.350426      43.350426      1.0207687      998.90929      4329.4424      1306.5575    
     73000   73000          641.26246     -1071.6944      42258.648      43542.257      14372.43       29169.827      6951.1854      9920.7746     -1279.9067      347.65305      908.5102       42904.732     -30583.122     -477.90929      82126.944      43.467222      43.467222      43.467222      1.0125623     -857.40909     -832.15644     -1525.5177    
     74000   74000          622.19551     -2278.3736      40286.387      42984.265      13945.088      29039.177      6909.7662      9793.7075     -1230.4225      361.0401       860.67637      42928.596     -30584.186     -483.40346      81193.522      43.301917      43.301917      43.301917      1.024203      -3665.633      -2868.2096     -301.27828    
     75000   75000          628.97337      1399.4471      44728.521      43051.472      14096.998      28954.474      6924.9846      9758.6829     -1354.4759      354.25534      935.82482      42918.293     -30583.091     -477.65882      82170.009      43.474818      43.474818      43.474818      1.0120317      2275.7207      1005.5953      917.02529    
     76000   76000          621.23514      4.2990313      43133.993      43128.823      13923.563      29205.259      6852.1132      9909.2217     -1199.0347      324.09982      952.88833      42958.336     -30592.366     -475.90548      82472.74       43.528143      43.528143      43.528143      1.0083168     -356.91323      610.45421     -240.64389    
     77000   77000          618.08203      2121.0236      45534.364      42980.897      13852.894      29128.003      6880.8704      9905.121      -1270.7216      350.57643      931.30623      42913.419     -30582.568     -475.46921      82548.414      43.541452      43.541452      43.541452      1.0073925      2708.1742      2345.7488      1309.1477    
     78000   78000          625.64707      645.3492       43452.195      42686.029      14022.447      28663.582      6891.4371      9647.7518     -1349.548       382.27582      758.60685      42918.957     -30585.899     -482.14639      81405.212      43.339517      43.339517      43.339517      1.0215396     -182.13588      1233.7747      884.40875    
     79000   79000          625.24807      2082.7514      45523.993      43051.38       14013.504      29037.875      7052.6071      9645.2985     -1272.2954      359.12497      894.32253      42937.579     -30578.761     -482.15682      81403.451      43.339205      43.339205      43.339205      1.0215617      2679.515       737.04373      2831.6957    
     80000   80000          629.36559      871.92599      44422.27       43380.088      14105.789      29274.299      6982.5046      9928.3343     -1303.7955      389.59951      979.40122      42900.807     -30602.551     -478.89817      81957.36       43.437283      43.437283      43.437283      1.0146575      1208.0626      394.1849       1013.5305    
     81000   81000          628.29406     -849.51507      41936.057      42939.845      14081.773      28858.072      6960.6089      9677.0591     -1258.8656      366.54362      786.04397      42914.997     -30588.315     -484.43546      81020.554      43.271147      43.271147      43.271147      1.0263896     -1630.7103     -1610.999       693.16408    
     82000   82000          633.53836      914.77848      44480.273      43391.203      14199.312      29191.89       6961.2094      9841.3688     -1250.8259      327.51685      972.18392      42930.033     -30589.595     -480.803        81632.663      43.379844      43.379844      43.379844      1.0186934     -1192.2881      2516.0931      1420.5304    
     83000   83000          625.13142      320.96169      43405.005      43023.711      14010.89       29012.822      6892.3054      9871.5541     -1323.0868      340.52117      891.89256      42936.174     -30596.539     -481.83685      81457.508      43.348796      43.348796      43.348796      1.0208838     -225.90009      61.833149      1126.952     
     84000   84000          622.24797     -119.20424      42713.605      42857.765      13946.264      28911.501      6846.4899      9711.1883     -1379.9627      342.07255      1030.5773      42947.487     -30586.351     -473.31811      82923.575      43.607314      43.607314      43.607314      1.0028349     -1781.0608      569.94549      853.5026     
     85000   85000          615.84284      669.3604       43817.811      43018.514      13802.708      29215.807      7178.677       9681.2659     -1200.6499      336.95134      894.70067      42917.942     -30593.08      -479.35711      81878.892      43.423416      43.423416      43.423416      1.0156299      360.66566      730.85337      916.56216    
     86000   86000          620.0498       1663.2938      44831.323      42857.181      13896.997      28960.185      6758.3285      9775.724      -1242.5012      386.02152      945.21279      42928.691     -30591.292     -482.27832      81382.944      43.335565      43.335565      43.335565      1.0218191      698.60938      1121.7609      3169.5112    
     87000   87000          629.93368     -572.28722      42372.279      43049.837      14118.521      28931.315      6925.7658      9630.0081     -1224.0739      387.14857      839.57026      42953.568     -30580.671     -483.47568      81181.392      43.299761      43.299761      43.299761      1.0243561     -544.38051     -342.86306     -829.6181     
     88000   88000          623.31932     -357.74566      42640.143      43072.265      13970.276      29101.989      6963.7937      9876.2682     -1313.4983      392.48961      833.01348      42934.161     -30584.239     -473.88777      82823.891      43.589833      43.589833      43.589833      1.0040418      607.74237     -398.45622     -1282.5231    
     89000   89000          625.25326     -908.13038      41905.571      42982.162      14013.621      28968.541      7040.5489      9712.7799     -1278.5072      378.93204      815.17089      42890.825     -30591.209     -482.8415       81288.019      43.31871       43.31871       43.31871       1.0230124     -97.639458     -273.11209     -2353.6396    
     90000   90000          631.77458     -486.96559      42592.705      43172.784      14159.781      29013.003      7008.4913      9806.6393     -1281.7387      333.36463      794.8618       42939.364     -30587.98      -480.52817      81679.352      43.388113      43.388113      43.388113      1.0181111     -451.96236      1116.3951     -2125.3295    
     91000   91000          626.3318       1336.7221      44413.782      42810.741      14037.794      28772.948      6802.9147      9863.6689     -1419.8734      332.77008      866.91891      42919.716     -30593.168     -477.31328      82229.494      43.485307      43.485307      43.485307      1.0112996      2345.2733      1012.1657      652.72743    
     92000   92000          628.27631     -143.82189      43015.247      43184.542      14081.375      29103.167      7084.209       9790.5943     -1263.2505      361.85836      823.27097      42898.512     -30592.028     -486.28298      80712.735      43.216277      43.216277      43.216277      1.030304      -1920.2341      2041.9865     -553.21804    
     93000   93000          624.20244     -1884.2121      40555.62       42781.628      13990.069      28791.559      6879.0636      9770.3743     -1307.6371      356.52606      773.31402      42920.933     -30601.014     -484.51811      81006.734      43.268686      43.268686      43.268686      1.0265647     -4087.8501     -949.57366     -615.21249    
     94000   94000          630.88375      343.72371      43427.691      43018.175      14139.815      28878.36       7023.0698      9716.8307     -1377.3659      370.83098      827.23569      42912.221     -30594.462     -480.44694      81693.16       43.390558      43.390558      43.390558      1.017939      -2125.8707      3813.7922     -656.75042    
     95000   95000          631.13172      237.41295      43457.071      43175.55       14145.373      29030.177      7142.3702      9729.2351     -1336.545       356.00139      822.05416      42913.8       -30596.739     -482.72707      81307.289      43.322133      43.322133      43.322133      1.0227699     -1255.5024     -1183.532       3151.2732    
     96000   96000          619.57708      391.69701      43082.78       42619.109      13886.402      28732.707      6971.6681      9667.7828     -1396.0149      380.79125      763.57436      42936.643     -30591.738     -483.55691      81167.756      43.297336      43.297336      43.297336      1.0245282      905.89446      1080.4917     -811.29515    
     97000   97000          627.0475      -1395.385       41438.286      43099.514      14053.834      29045.679      6948.381       9940.067      -1311.8713      350.05522      796.56915      42914.015     -30591.537     -480.80824      81631.772      43.379686      43.379686      43.379686      1.0187045     -47.485474     -1937.1875     -2201.4821    
     98000   98000          620.75802     -285.23847      42572.338      42910.492      13912.87       28997.622      6853.6504      9923.2669     -1334.1824      351.67507      844.59744      42940.659     -30582.045     -482.83678      81288.814      43.318851      43.318851      43.318851      1.0230024      1053.4309      474.23954     -2383.3858    
     99000   99000          624.08175     -993.19303      41784.708      42963.975      13987.364      28976.611      6950.9035      9852.6957     -1308.5084      342.09858      805.25537      42922.801     -30588.634     -482.09037      81414.671      43.341196      43.341196      43.341196      1.0214209     -996.33034     -23.973545     -1959.2752    
    100000   100000         629.93529      551.64364      43758.424      43095.309      14118.558      28976.751      6901.7987      9735.3474     -1224.253       347.0559       863.17172      42952.215     -30598.585     -476.18618      82424.125      43.519589      43.519589      43.519589      1.0089115      2953.6518     -1553.5047      254.78372    
    101000   101000         620.9169       2251.4043      45572.709      42879.332      13916.431      28962.901      6722.1789      9896.2904     -1314.5942      370.47901      955.04232      42927.247     -30593.742     -478.47961      82029.053      43.449945      43.449945      43.449945      1.0137707      4695.3538      306.16978      1752.6892    
    102000   102000         633.83388      1777.3082      45369.009      43263.394      14205.936      29057.458      6980.2911      9778.9658     -1268.0377      347.53121      853.62173      42952.058     -30586.972     -483.15977      81234.473      43.309196      43.309196      43.309196      1.0236867      2126.4646      1369.7206      1835.7394    
    103000   103000         616.69606     -133.44789      42752.415      42914.1        13821.831      29092.269      6971.3978      9942.5474     -1360.7879      336.34335      884.32849      42902.476     -30584.035     -472.44346      83077.093      43.634208      43.634208      43.634208      1.0009817     -1026.5847      97.530914      528.71013    
    104000   104000         629.92359     -1634.5312      41357.785      43338.41       14118.295      29220.115      7011.7733      9903.7356     -1277.8726      382.11286      838.14206      42939.251     -30577.027     -472.38696      83087.03       43.635948      43.635948      43.635948      1.000862      -2381.9676     -98.986287     -2422.6396    
    105000   105000         636.54692      813.37091      43865.914      42890.123      14266.742      28623.381      6774.8796      9499.3485     -1283.1444      345.51104      966.40264      42913.715     -30593.331     -477.13255      82260.641      43.490797      43.490797      43.490797      1.0109166      2814.3256      500.49095     -874.70383    
    106000   106000         635.74455      723.08454      43997.545      43128.263      14248.759      28879.505      6946.9203      9667.2055     -1248.429       348.02734      881.19022      42889.631     -30605.041     -476.14115      82431.92       43.520961      43.520961      43.520961      1.0088161      1532.6607     -164.84891      801.4418     
    107000   107000         626.00823      257.45265      43215.752      42907.34       14030.541      28876.799      6825.9392      9774.6198     -1276.8062      354.96044      853.87737      42936.809     -30592.601     -477.82985      82140.597      43.469631      43.469631      43.469631      1.012394       1258.8906      652.08926     -1138.6219    
    108000   108000         631.83806     -1813.6642      41104.553      43310.476      14161.204      29149.272      6810.2312      9959.3315     -1253.2389      395.13599      888.42035      42931.363     -30581.971     -470.62351      83398.361      43.690382      43.690382      43.690382      0.99712571     295.9284      -2410.9655     -3325.9555    
    109000   109000         627.60007      980.45312      44244.864      43067.748      14066.219      29001.529      6858.894       9791.622      -1267.7977      373.03458      933.09355      42904.825     -30592.142     -476.77624      82322.116      43.501628      43.501628      43.501628      1.0101617      533.22522      1247.1614      1160.9727    
    110000   110000         631.42459     -117.49385      42913.17       43056.088      14151.937      28904.151      6760.2478      9814.194      -1262.3365      392.04378      884.81645      42906.324     -30591.138     -470.58141      83405.822      43.691684      43.691684      43.691684      0.99703653    -1526.8359      31.618516      1142.7358    
    111000   111000         623.20201     -1506.7422      41175.283      42983.861      13967.646      29016.215      6832.7803      9881.0852     -1243.7268      380.16473      834.72868      42920.368     -30589.185     -476.87953      82304.286      43.498487      43.498487      43.498487      1.0103806      1197.9695     -1672.1265     -4046.0695    
    112000   112000         620.35581     -342.62558      42287.127      42694.61       13903.855      28790.755      6865.2526      9682.4879     -1253.0637      365.90178      783.88714      42936.325     -30590.035     -481.30091      81548.213      43.36488       43.36488       43.36488       1.0197483     -760.77545     -960.1991       693.0978     
    113000   113000         626.15801     -2006.061       40675.788      43067.216      14033.898      29033.317      6999.9675      9815.8345     -1245.7856      376.50117      767.9438       42903.64      -30584.784     -480.16875      81740.491      43.398936      43.398936      43.398936      1.0173495     -3102.7915     -1041.4377     -1873.9538    
    114000   114000         614.73612      665.42112      43360.228      42562.294      13777.903      28784.391      6834.4846      9683.5838     -1297.9306      355.56567      850.59072      42942.512     -30584.415     -477.34999      82223.17       43.484192      43.484192      43.484192      1.0113773      853.8744       559.42546      582.9635     
    115000   115000         630.44932     -577.91179      42563.127      43248.665      14130.078      29118.587      7052.3549      9784.9478     -1311.5903      371.04217      877.2838       42931.928     -30587.379     -482.54385      81338.16       43.327615      43.327615      43.327615      1.0223818     -573.75651      164.7272      -1324.7061    
    116000   116000         623.03226      1088.6649      44228.254      42932.141      13963.842      28968.299      6886.6758      9852.1046     -1345.2299      347.586        866.35646      42942.892     -30582.086     -480.79318      81634.33       43.38014       43.38014       43.38014       1.0186725     -156.14041      896.76491      2525.3701    
    117000   117000         625.73271      7.335282       42669.151      42660.465      14024.366      28636.099      6878.4233      9607.3103     -1244.8843      392.207        666.67494      42928.543     -30592.175     -483.41897      81190.916      43.301454      43.301454      43.301454      1.0242359     -1138.895      -820.72747      1981.6284    
    118000   118000         630.8066      -933.92253      41885.868      43010.224      14138.086      28872.138      6915.6949      9758.7268     -1374.6959      361.59892      881.97396      42921.331     -30592.492     -475.46009      82549.998      43.541731      43.541731      43.541731      1.0073731      341.22258     -215.9547      -2927.0355    
    119000   119000         634.77891      1180.4996      44630.411      43216.815      14227.116      28989.699      6953.7683      9670.8412     -1304.3786      354.58489      950.87289      42953.903     -30589.893     -478.02168      82107.634      43.463815      43.463815      43.463815      1.0128005      192.48949      1400.7625      1948.2467    
    120000   120000         622.7072       1108.4117      44254.939      42917.36       13956.556      28960.803      6973.3744      9653.6129     -1413.1655      344.64631      1067.8395      42914.68      -30580.184     -474.33854      82745.183      43.576021      43.576021      43.576021      1.0049969      640.07522      1385.5827      1299.577     
    121000   121000         615.90433      705.11288      43422.708      42589.414      13804.086      28785.329      6774.1852      9855.8396     -1456.9679      370.14417      922.23917      42916.866     -30596.977     -484.35936      81033.284      43.273413      43.273413      43.273413      1.0262283      1449.0293     -335.09895      1001.4083    
    122000   122000         619.3652      -218.44938      42548.904      42810.919      13881.653      28929.266      6886.2771      9913.8302     -1398.1719      383.14013      836.74755      42903.308     -30595.865     -477.23493      82242.993      43.487686      43.487686      43.487686      1.0111336     -383.6192       994.1928      -1265.9217    
    123000   123000         629.13307     -418.07634      42445.371      42945.567      14100.578      28844.989      6985.3636      9738.8918     -1440.4169      376.55945      849.23965      42920.695     -30585.344     -478.43445      82036.796      43.451312      43.451312      43.451312      1.013675      -375.99649     -2054.7499      1176.5173    
    124000   124000         619.64611     -77.907099      42484.678      42577.94       13887.949      28689.991      6836.5397      9770.112      -1399.8681      351.30836      820.38546      42912.452     -30600.938     -478.16486      82083.048      43.459477      43.459477      43.459477      1.0131038     -541.31264      715.75459     -408.16326    
    125000   125000         626.66192      1865.2115      45016.082      42775.823      14045.192      28730.63       6769.3135      9634.3265     -1310.4496      356.35056      910.25068      42961.734     -30590.896     -476.58105      82355.833      43.507566      43.507566      43.507566      1.0097482      2259.8695      3335.7563      0.0087513422 
    126000   126000         631.4236      -348.43992      42627.457      43047.316      14151.914      28895.402      6877.5134      9693.8874     -1321.2756      369.51789      913.46532      42950.148     -30587.854     -475.04066      82622.884      43.554542      43.554542      43.554542      1.0064845      919.35274     -1103.0193     -861.65324    
    127000   127000         626.33301      1115.4113      44058.832      42728.662      14037.821      28690.842      6729.5035      9689.085      -1355.9872      352.43233      910.36257      42953.042     -30587.596     -479.993        81770.42       43.404232      43.404232      43.404232      1.0169772      992.34392      1679.8984      673.99146    
    128000   128000         616.75991      836.50283      43575.985      42563.243      13823.261      28739.981      6866.4037      9662.3801     -1404.1556      341.39625      904.45466      42957.796     -30588.294     -472.79788      83014.816      43.623302      43.623302      43.623302      1.0017326      756.61953      323.86629      1429.0227    
    129000   129000         635.67334     -585.29725      42349.53       43052.527      14247.163      28805.364      6787.5715      9783.9438     -1275.9385      360.63188      820.58484      42913.468     -30584.898     -476.5738       82357.086      43.507787      43.507787      43.507787      1.0097328      256.00797     -2232.6939      220.79416    
    130000   130000         624.17704      1007.9103      44375.593      43155.8        13989.499      29166.301      7064.6586      9796.0923     -1329.84        374.84479      933.98831      42909.445     -30582.888     -472.9802       82982.817      43.617696      43.617696      43.617696      1.0021189     -453.41293      2136.3219      1340.8218    
    131000   131000         624.17197      748.54229      43777.834      42883.751      13989.386      28894.365      6841.1371      9804.506      -1415.1925      373.63142      957.69387      42921.931     -30589.342     -479.23148      81900.358      43.42721       43.42721       43.42721       1.0153637      1413.1328     -161.55031      994.04435    
    132000   132000         622.91122      340.07835      42948.969      42543.843      13961.129      28582.714      6813.1396      9647.7258     -1379.2641      347.74087      851.09474      42888.689     -30586.412     -480.50258      81683.701      43.388883      43.388883      43.388883      1.0180568      2871.6202      965.58591     -2816.971     
    133000   133000         620.57311      182.96793      43016.244      42796.356      13908.726      28887.631      6816.1536      9842.2559     -1350.7293      373.96508      872.93928      42927.26      -30594.214     -476.29989      82404.447      43.516125      43.516125      43.516125      1.0091525      1487.986      -1052.8208      113.7386     
    134000   134000         625.6637      -1515.644       41180.167      43009.088      14022.82       28986.268      7187.7879      9702.7665     -1383.4449      353.95612      835.06688      42884.773     -30594.637     -474.36151      82741.176      43.575318      43.575318      43.575318      1.0050456     -932.37247     -134.0121      -3480.5473    
    135000   135000         628.15833      470.66703      43792.457      43223.379      14078.731      29144.648      6825.4564      9878.9137     -1278.7498      379.2508       989.40671      42929.984     -30579.613     -473.42235      82905.315      43.604113      43.604113      43.604113      1.0030557     -839.74433      1873.504       378.24143    
    136000   136000         626.70679     -609.21618      42026.236      42763.706      14046.198      28717.508      6849.5804      9692.2056     -1372.3817      366.03957      879.252        42893.266     -30590.454     -472.86157      83003.635      43.621343      43.621343      43.621343      1.0018676     -923.92418     -625.88818     -277.83618    
    137000   137000         622.43383     -292.24203      42675.276      43028.809      13950.43       29078.38       7033.7154      9764.5141     -1260.8052      340.58166      858.75594      42919.902     -30578.285     -473.17319      82948.971      43.611766      43.611766      43.611766      1.0025278     -805.93161      508.72491     -579.51938    
    138000   138000         631.85754      1806.1476      45258.635      43082.164      14161.64       28920.524      6732.6857      9917.3154     -1418.2052      373.94693      981.84488      42917.984     -30585.048     -475.01503      82627.341      43.555325      43.555325      43.555325      1.0064302      1412.4285      1552.886       2453.1282    
    139000   139000         614.28314     -441.94975      42284.589      42817.394      13767.75       29049.644      6943.0307      9796.7598     -1353.1997      381.60826      939.22439      42910.513     -30568.293     -474.80096      82664.596      43.56187       43.56187       43.56187       1.0059766     -2276.2999     -653.82948      1604.2801    
    140000   140000         616.71722     -670.10519      42023.472      42829.492      13822.305      29007.188      6970.1642      9776.7154     -1356.4921      355.72288      916.01177      42927.803     -30582.738     -475.88746      82475.864      43.528693      43.528693      43.528693      1.0082786     -670.60637     -322.13842     -1017.5708    
    141000   141000         624.77359      274.98011      43296.97       42965.661      14002.87       28962.791      7043.2681      9739.9881     -1366.2986      401.80929      842.71914      42892.387     -30591.082     -475.08935      82614.417      43.553054      43.553054      43.553054      1.0065876      1162.8014     -1796.3427      1458.4816    
    142000   142000         621.63033     -729.7287       41574.076      42448.742      13932.421      28516.321      6690.4879      9717.9942     -1413.1913      366.381        834.20547      42912.055     -30591.611     -477.55799      82187.357      43.477878      43.477878      43.477878      1.011818       143.57587     -1432.3058     -900.45617    
    143000   143000         618.15611      209.4093       43142.774      42891.948      13854.554      29037.394      6906.9051      9852.3347     -1302.2648      374.21872      891.63951      42904.079     -30589.518     -477.89189      82129.933      43.46775       43.46775       43.46775       1.0125255      214.22028     -488.15956      902.16717    
    144000   144000         620.30244      690.6153       43537.99       42707.541      13902.659      28804.882      6760.5937      9836.4921     -1398.5642      353.02721      939.59209      42899.248     -30585.507     -476.02569      82451.913      43.524479      43.524479      43.524479      1.0085715      1334.0878      1761.2379     -1023.4798    
    145000   145000         622.50492      293.92749      42848.678      42499.974      13952.023      28547.951      6748.0505      9737.6609     -1406.0646      338.39722      831.10578      42892.977     -30594.176     -482.49307      81346.721      43.329135      43.329135      43.329135      1.0222742      358.62227     -930.53999      1453.7002    
    146000   146000         632.67679      367.89746      43290.59       42849.397      14180.002      28669.396      6846.779       9709.0229     -1360.362       361.55587      793.91484      42901.633     -30583.148     -477.31561      82229.093      43.485236      43.485236      43.485236      1.0113045      355.2027      -1354.2816      2102.7713    
    147000   147000         618.90707     -692.25826      41740.578      42568.551      13871.385      28697.166      6854.598       9807.1942     -1482.3379      353.01325      848.3213       42906.669     -30590.292     -478.58455      82011.066      43.446769      43.446769      43.446769      1.013993      -980.17286     -952.33473     -144.26719    
    148000   148000         632.11468     -846.46403      41922.433      42922.858      14167.403      28755.454      6853.3061      9928.9274     -1457.1572      363.42427      769.26871      42872.569     -30574.884     -484.31833      81040.148      43.274634      43.274634      43.274634      1.0261414     -482.90678     -1679.8813     -376.60402    
    149000   149000         624.80993     -944.4997       41477.329      42608.908      14003.684      28605.224      6796.517       9641.0277     -1338.0917      366.86084      833.44592      42887.186     -30581.722     -477.77576      82149.897      43.471271      43.471271      43.471271      1.0122794     -1001.2001     -1104.7572     -727.54186    
    150000   150000         634.89958      1093.8621      44213.388      42909.374      14229.821      28679.553      6794.2307      9647.8756     -1409.5337      390.99998      910.62436      42927.114     -30581.758     -480.16146      81741.732      43.399155      43.399155      43.399155      1.0173341      2241.6376      1754.3118     -714.36315    
[...]
   1955000   1955000        552.84185     -490.00034      38573.957      39139.115      12390.685      26748.43       6258.233       8982.9845     -1535.2302      299.20746      485.97176      42861.818     -30604.554     -496.2878       79085.622      42.9239        42.9239        42.9239        1.0515015      1208.4507     -1463.2924     -1215.1593    
   1956000   1956000        545.2618       141.83909      39058.98       38897.109      12220.795      26676.314      6132.3823      9185.5336     -1620.4808      327.62101      390.00446      42866.54      -30605.287     -501.57172      78252.476      42.772637      42.772637      42.772637      1.0626967      623.26227     -430.90948      233.16449    
   1957000   1957000        551.48072      204.9653       39171.691      38934.825      12360.178      26574.647      5960.8529      9052.7911     -1549.832       315.21606      498.53374      42893.428     -30596.342     -495.31771      79240.512      42.951904      42.951904      42.951904      1.0494462      1389.1077      1117.7306     -1891.9423    
   1958000   1958000        547.27682      717.71721      39781.28       38956.772      12265.957      26690.815      6093.2279      8988.3346     -1449.4419      318.34197      482.81418      42857.564     -30600.026     -498.27095      78770.857      42.866878      42.866878      42.866878      1.0557033      793.30595      22.524644      1337.321     
   1959000   1959000        555.52899      82.032452      39247.518      39153.9        12450.911      26702.99       6153.2384      9055.1994     -1498.4613      336.74246      392.03424      42872.278     -30608.042     -501.57559      78251.873      42.772527      42.772527      42.772527      1.0627049      1569.5895     -1048.9161     -274.57598    
   1960000   1960000        550.6656      -403.68854      38388.189      38849.409      12341.909      26507.5        6233.1101      8900.0415     -1509.2603      342.14239      279.99204      42860.032     -30598.558     -501.00871      78340.413      42.788653      42.788653      42.788653      1.0615039      1188.7318     -897.51964     -1502.2777    
   1961000   1961000        556.66847      1185.009       40451.75       39085.918      12476.449      26609.469      6021.3762      8910.2278     -1532.0678      315.78337      555.95774      42931.14      -30592.949     -496.62833      79031.394      42.914087      42.914087      42.914087      1.052223       557.91746      603.59176      2393.5178    
   1962000   1962000        550.21253      215.65539      39332.994      39085.238      12331.754      26753.484      6157.3619      9021.181      -1543.1556      328.05316      503.58679      42880.129     -30593.672     -498.24518      78774.929      42.867617      42.867617      42.867617      1.0556487     -135.30956      482.70659      299.56914    
   1963000   1963000        553.21422     -1133.0779      37920.888      39235.523      12399.03       26836.493      6225.519       9121.8474     -1619.3897      323.50186      477.7577       42909.02      -30601.764     -493.35738      79555.371      43.008718      43.008718      43.008718      1.0452927     -1225.0996     -340.90556     -1833.2285    
   1964000   1964000        552.67257      1500.8521      40980.882      39253.515      12386.891      26866.624      6027.82        9213.6631     -1553.132       351.70313      543.05008      42883.282     -30599.762     -497.34771      78917.081      42.893387      42.893387      42.893387      1.0537472      1757.5814      2740.5313      4.4435434    
   1965000   1965000        547.40769     -927.92116      37986.237      39059.809      12268.89       26790.919      6213.6746      9072.9704     -1508.1765      310.54676      379.5692       42916.203     -30593.868     -494.7516       79331.183      42.968281      42.968281      42.968281      1.0482467     -681.1697      -78.071955     -2024.5218    
   1966000   1966000        550.62973      666.91169      39921.466      39150.029      12341.105      26808.925      6196.0651      9173.8681     -1592.5511      326.254        422.89925      42885.438     -30603.049     -494.85157      79315.155      42.965387      42.965387      42.965387      1.0484585      450.13177      889.95621      660.64707    
   1967000   1967000        552.67213      1081.5363      40473.34       39239.234      12386.881      26852.354      6068.7028      9167.7326     -1534.5061      325.9607       521.64505      42905.76      -30602.941     -501.64406      78241.193      42.770581      42.770581      42.770581      1.06285        1101.9504      2426.4234     -283.7651     
   1968000   1968000        551.8881       704.77887      39782.732      38971.04       12369.308      26601.732      6187.2071      8899.9735     -1487.6772      341.36008      369.86168      42890.043     -30599.036     -497.01394      78970.078      42.902986      42.902986      42.902986      1.05304       -93.493406     -221.99413      2429.8241    
   1969000   1969000        547.82965      792.44026      40006.892      39102.757      12278.347      26824.409      6119.9091      9214.4839     -1585.1637      325.45724      426.15976      42912.014     -30588.451     -501.69563      78233.149      42.769116      42.769116      42.769116      1.0629593     -98.900701      2315.709       160.51243    
   1970000   1970000        545.28535      690.01124      39516.201      38725.349      12221.323      26504.026      6112.2001      8974.986      -1599.3662      294.3286       420.08546      42903.814     -30602.022     -499.42177      78589.343      42.833926      42.833926      42.833926      1.0581416      749.10903      415.40075      905.52394    
   1971000   1971000        550.51005      144.06709      39265.438      39100.339      12338.423      26761.916      6229.3082      8935.4595     -1523.1406      324.15814      496.70183      42893.58      -30594.151     -499.48963      78578.667      42.831987      42.831987      42.831987      1.0582853     -459.61461     -588.60503      1480.4209    
   1972000   1972000        551.34125      1167.0554      40208.513      38866.263      12357.052      26509.211      5968.388       8993.0645     -1530.7463      322.30663      430.66909      42923.041     -30597.512     -497.69722      78861.66       42.883343      42.883343      42.883343      1.0544877      1227.3236      453.6435       1820.1991    
   1973000   1973000        551.24191     -669.38383      38314.765      39087.368      12354.826      26732.542      6190.4297      8947.5482     -1497.3012      298.72138      487.33535      42903.471     -30597.662     -495.93638      79141.662      42.934037      42.934037      42.934037      1.0507569     -1765.49       -108.71237     -133.94918    
   1974000   1974000        542.62265     -97.393564      38748.418      38861.789      12161.645      26700.145      6081.1748      8954.0894     -1560.0505      320.01369      549.49882      42938.437     -30583.018     -491.7399       79817.053      43.055823      43.055823      43.055823      1.0418657      397.69158     -510.93285     -178.93943    
   1975000   1975000        554.1672       863.40478      40084.979      39098.16       12420.389      26677.77       6219.8959      8977.2267     -1572.1868      353.78152      421.41826      42877.793     -30600.158     -500.8223       78369.572      42.793962      42.793962      42.793962      1.0611089     -671.70543      4504.3336     -1242.4139    
   1976000   1976000        552.08279     -321.59262      38672.083      39039.846      12373.672      26666.175      6148.037       8991.6107     -1571.0231      331.30983      468.15384      42890.515     -30592.429     -500.54626      78412.791      42.801827      42.801827      42.801827      1.0605241     -1028.4564     -164.13397      227.81252    
   1977000   1977000        548.70789      1454.2797      40580.646      38911.32       12298.031      26613.289      6040.9182      9017.199      -1569.7373      355.95784      442.81314      42919.792     -30593.654     -498.67082      78707.692      42.855417      42.855417      42.855417      1.0565505      1697.7402      979.72471      1685.3742    
   1978000   1978000        558.85082      1083.1353      40552.473      39302.759      12525.362      26777.397      6182.0596      9050.7794     -1508.3652      307.30262      474.90262      42878.394     -30607.676     -496.11112      79113.787      42.928995      42.928995      42.928995      1.0511272      2223.8447      293.75668      731.80446    
   1979000   1979000        548.64964      235.32413      39230.035      38958.988      12296.726      26662.262      6244.7272      8904.7222     -1558.5155      294.59101      458.18399      42913.282     -30594.729     -496.96804      78977.371      42.904307      42.904307      42.904307      1.0529428     -461.57021     -243.22779      1410.7704    
   1980000   1980000        550.6734       1176.9528      40298.879      38956.955      12342.084      26614.872      6068.6238      9004.1519     -1569.7858      348.82816      427.48807      42934.748     -30599.183     -502.03998      78179.49       42.759335      42.759335      42.759335      1.0636888      752.59093      1846.4701      931.79733    
   1981000   1981000        543.33756     -698.19329      38276.76       39086.566      12177.668      26908.899      6340.9966      9076.6101     -1558.2752      301.88918      499.09527      42849.654     -30601.071     -493.51594      79529.811      43.004112      43.004112      43.004112      1.0456287     -590.81691     -910.49593     -593.26703    
   1982000   1982000        553.71868     -557.65871      38362.981      39000.574      12410.337      26590.238      6093.3171      8985.3321     -1577.4385      369.7174       434.08752      42898.681     -30613.459     -500.64714      78396.991      42.798952      42.798952      42.798952      1.0607378     -139.41845     -1059.7187     -473.839      
   1983000   1983000        552.76981      283.4426       39500.958      39174.881      12389.07       26785.811      6087.8451      9012.208      -1483.626       351.67568      487.94346      42926.285     -30596.519     -497.56797      78882.146      42.887056      42.887056      42.887056      1.0542139      1559.3645      568.84958     -1277.8862    
   1984000   1984000        547.75002     -33.616217      39029.634      39068.489      12276.563      26791.927      6158.0089      9003.386      -1449.2031      328.57762      447.45281      42892.766     -30589.062     -495.22867      79254.759      42.954478      42.954478      42.954478      1.0492575      307.17904      327.17937     -735.20706    
   1985000   1985000        555.78969      432.91006      39721.871      39225.719      12456.754      26768.966      6043.9846      9085.4073     -1521.2488      308.49664      535.40947      42911.875     -30594.959     -499.4476       78585.279      42.833188      42.833188      42.833188      1.0581963      185.26964      1802.2451     -688.78458    
   1986000   1986000        547.81491     -641.81883      38277.091      39014.867      12278.017      26736.85       6138.1321      9008.2796     -1572.9863      314.70369      546.48261      42903.399     -30601.161     -497.96064      78819.944      42.875781      42.875781      42.875781      1.0550458     -679.78206     -1219.8937     -25.780695    
   1987000   1987000        547.60764      793.23659      39866.266      38952.8        12273.372      26679.428      6230.3693      9043.14       -1592.1269      349.16846      356.03823      42898.967     -30606.128     -497.06965      78961.227      42.901383      42.901383      42.901383      1.053158       1644.6181     -138.20808      873.29981    
   1988000   1988000        551.52909     -255.38942      38832.446      39123.694      12361.262      26762.432      6241.5518      9009.5692     -1603.2491      312.24332      510.65682      42891.593     -30599.932     -501.93449      78195.921      42.76233       42.76233       42.76233       1.0634653     -603.71714     -694.31085      531.85973    
   1989000   1989000        553.63024      803.08798      39865.712      38945.609      12408.354      26537.255      5963.9455      8967.7351     -1554.2631      340.07499      465.49473      42947.044     -30592.777     -499.61306      78559.253      42.828459      42.828459      42.828459      1.0585469      1757.9234     -1216.8899      1868.2304    
   1990000   1990000        546.66412     -179.9902       38860.701      39068.188      12252.225      26815.963      6059.2691      9183.7181     -1583.598       369.49463      464.76266      42921.561     -30599.245     -496.55266      79043.437      42.916267      42.916267      42.916267      1.0520627     -1260.2288      533.31927      186.93891    
   1991000   1991000        560.91689      1388.9954      40928.223      39320.241      12571.668      26748.573      6256.8107      8821.6368     -1510.764       334.45705      526.73824      42923.787     -30604.093     -494.45511      79378.751      42.976867      42.976867      42.976867      1.0476185      809.03237      2532.0825      825.87147    
   1992000   1992000        555.54048      1038.8746      40310.642      39119.339      12451.168      26668.171      6046.2109      9118.3829     -1586.8748      339.04416      426.68152      42924.054     -30599.328     -499.16936      78629.083      42.841145      42.841145      42.841145      1.0576068      482.13463      1609.9233      1024.566     
   1993000   1993000        546.12749      360.76259      39367.072      38951.976      12240.198      26711.779      6211.2878      8942.8723     -1559.3147      343.80317      466.17846      42908.08      -30601.128     -497.48554      78895.216      42.889425      42.889425      42.889425      1.0540392     -1324.9755      1506.4991      900.76416    
   1994000   1994000        541.25352     -1682.1722      37175.645      39113.145      12130.959      26982.186      6264.4668      9254.1992     -1499.8278      335.07287      346.61364      42888.042     -30606.381     -496.97651      78976.024      42.904063      42.904063      42.904063      1.0529607     -3532.372       1407.217      -2921.3614    
   1995000   1995000        541.3525       1253.8947      40515.182      39078.474      12133.177      26945.297      6282.3513      9071.4304     -1538.406       337.72499      502.97904      42899.865     -30610.648     -499.57353      78565.47       42.829589      42.829589      42.829589      1.0584631      102.95807      2640.6144      1018.1117    
   1996000   1996000        552.4009       1350.708       40583.143      39031.58       12380.802      26650.778      6152.6741      8849.2411     -1447.4105      322.68018      482.9204       42905.4       -30614.727     -498.30922      78764.807      42.865781      42.865781      42.865781      1.0557844      224.51807      3133.0095      694.59628    
   1997000   1997000        540.75838     -887.32581      37736.273      38756.61       12119.861      26636.749      6159.7041      8966.2898     -1511.8793      324.42758      426.16754      42880.106     -30608.067     -497.79016      78846.936      42.880674      42.880674      42.880674      1.0546846     -751.31675     -896.26247     -1014.3982    
   1998000   1998000        545.73126     -1288.3663      37737.053      39211.685      12231.317      26980.368      6211.0968      9219.6338     -1537.6097      358.52895      440.30861      42894.704     -30606.295     -500.10691      78481.678      42.814357      42.814357      42.814357      1.0595932     -617.82081     -1268.1513     -1979.1268    
   1999000   1999000        545.44336      159.44267      39314.006      39129.884      12224.864      26905.019      6348.8102      8976.8158     -1545.2622      352.83744      468.50019      42914.852     -30611.534     -495.68415      79181.933      42.941318      42.941318      42.941318      1.0502225     -94.497206      2172.0794     -1599.2541    
   2000000   2000000        546.89656      476.98434      39523.947      38979.767      12257.434      26722.333      6225.8518      8941.9467     -1475.9667      318.47197      431.18334      42886.944     -30606.098     -501.72878      78227.98       42.768174      42.768174      42.768174      1.0630295     -446.2926       780.83852      1096.4071    
Loop time of 10828.6 on 1 procs for 2000000 steps with 7520 atoms

Performance: 15.958 ns/day, 1.504 hours/ns, 184.695 timesteps/s, 1.389 Matom-step/s
100.0% CPU use with 1 MPI tasks x 1 OpenMP threads

MPI task timing breakdown:
Section |  min time  |  avg time  |  max time  |%varavg| %total
---------------------------------------------------------------
Pair    | 4147.1     | 4147.1     | 4147.1     |   0.0 | 38.30
Bond    | 1439.3     | 1439.3     | 1439.3     |   0.0 | 13.29
Kspace  | 2631.2     | 2631.2     | 2631.2     |   0.0 | 24.30
Neigh   | 1433.2     | 1433.2     | 1433.2     |   0.0 | 13.24
Comm    | 113.01     | 113.01     | 113.01     |   0.0 |  1.04
Output  | 33.466     | 33.466     | 33.466     |   0.0 |  0.31
Modify  | 625.92     | 625.92     | 625.92     |   0.0 |  5.78
Other   |            | 405.5      |            |       |  3.74

Nlocal:           7520 ave        7520 max        7520 min
Histogram: 1 0 0 0 0 0 0 0 0 0
Nghost:          19684 ave       19684 max       19684 min
Histogram: 1 0 0 0 0 0 0 0 0 0
Neighs:              0 ave           0 max           0 min
Histogram: 1 0 0 0 0 0 0 0 0 0
FullNghs:  4.60186e+06 ave 4.60186e+06 max 4.60186e+06 min
Histogram: 1 0 0 0 0 0 0 0 0 0

Total # of neighbors = 4601862
Ave neighs/atom = 611.94973
Ave special neighs/atom = 5.7207447
Neighbor list builds = 114817
Dangerous builds = 0

# --- Cleanup ---
unfix npt_fix

undump dump_npt

# --- Write Output ---
write_dump all custom npt_cool_last.dump id type mol x y z xu yu zu vx vy vz modify sort id
write_data /home/arz2/PolyJarvis/data/PMMA2/lammps/equil/npt_cool/npt_cool_out.data
System init for write_data ...
PPPM Kokkos initialization ...
  using 12-bit tables for long-range coulomb
  G vector (1/distance) = 0.3316468
  grid = 45 45 45
  stencil order = 5
  estimated absolute RMS force accuracy = 0.00030528885
  estimated relative force accuracy = 9.193683e-07
  using double precision cuFFT
  3d grid and FFT values/proc = 140608 91125
Generated 15 of 15 mixed pair_coeff terms from sixthpower/sixthpower mixing rule

print "STAGE COMPLETE: NPT T=630.0->550.0K P=1.0->1.0atm steps=2000000"
STAGE COMPLETE: NPT T=630.0->550.0K P=1.0->1.0atm steps=2000000
quit
         |       |  3.74

Nlocal:           7520 ave        7520 max        7520 min
Histogram: 1 0 0 0 0 0 0 0 0 0
Nghost:          19684 ave       19684 max       19684 min
Histogram: 1 0 0 0 0 0 0 0 0 0
Neighs:              0 ave           0 max           0 min
Histogram: 1 0 0 0 0 0 0 0 0 0
FullNghs:  4.60186e+06 ave 4.60186e+06 max 4.60186e+06 min
Histogram: 1 0 0 0 0 0 0 0 0 0

Total # of neighbors = 4601862
Ave neighs/atom = 611.94973
Ave special neighs/atom = 5.7207447
Neighbor list builds = 114817
Dangerous builds = 0
System init for write_data ...
PPPM Kokkos initialization ...
  using 12-bit tables for long-range coulomb
  G vector (1/distance) = 0.3316468
  grid = 45 45 45
  stencil order = 5
  estimated absolute RMS force accuracy = 0.00030528885
  estimated relative force accuracy = 9.193683e-07
  using double precision cuFFT
  3d grid and FFT values/proc = 140608 91125
Generated 15 of 15 mixed pair_coeff terms from sixthpower/sixthpower mixing rule
STAGE COMPLETE: NPT T=630.0->550.0K P=1.0->1.0atm steps=2000000
