units real
atom_style full
boundary p p p

# --- Force Field Styles ---
pair_style lj/class2/coul/long 9.5 9.5
kspace_style pppm 1e-6
dielectric 1.000000
bond_style class2
angle_style class2
dihedral_style class2
improper_style class2
special_bonds lj/coul 0 0 1
pair_modify mix sixthpower tail yes
neighbor 2.0 bin
neigh_modify delay 0 every 1 check yes
neigh_modify one 4000
# KOKKOS: package loaded via -pk kokkos on the command line

read_data /home/arz2/PolyJarvis/data/PEEK3/lammps/npt_cool300/npt_cool300_out.data
Reading data file ...
  orthogonal box = (5.133664 5.133664 5.133664) to (51.921865 51.921865 51.921865)
  1 by 1 by 1 MPI processor grid
  reading atoms ...
  8720 atoms
  reading velocities ...
  8720 velocities
  scanning bonds ...
  3 = max bonds/atom
  scanning angles ...
  9 = max angles/atom
  scanning dihedrals ...
  18 = max dihedrals/atom
  scanning impropers ...
  4 = max impropers/atom
  orthogonal box = (5.133664 5.133664 5.133664) to (51.921865 51.921865 51.921865)
  1 by 1 by 1 MPI processor grid
  reading bonds ...
  9480 bonds
  reading angles ...
  15104 angles
  reading dihedrals ...
  22512 dihedrals
  reading impropers ...
  4864 impropers
Finding 1-2 1-3 1-4 neighbors ...
  special bond factors lj:    0        0        1       
  special bond factors coul:  0        0        1       
     3 = max # of 1-2 neighbors
     6 = max # of 1-3 neighbors
     9 = max # of special neighbors
  special bonds CPU = 0.004 seconds
  read_data CPU = 0.276 seconds
include /home/arz2/PolyJarvis/data/PEEK3/lammps/cell/emc_build.params
# LAMMPS parameters created by EMC v9.4.4, build Jul 31 2025 20:33:44

# Variables

variable	seed		index	481572
variable	ntotal		index	8720
variable	fshape		index	1
variable	output		index	emc_build
variable	field		index	pcff/pcff
variable	location1	index	/home/arz2/emc/field/
variable	nav		index	0.6022141179
variable	temperature	index	300
variable	radius		index	5
variable	nrelax		index	100
variable	weight_nonbond	index	0.0001
variable	weight_bond	index	0.0001
variable	weight_focus	index	1
variable	cutoff		index	9.5
variable	charge_cutoff	index	9.5
variable	kappa		index	4
variable	density1	index	0.66
variable	lprevious	index	0
variable	lphase		index	57.0555285531
variable	f_poly		index	8
variable	chem_repeat	index	*Oc1ccc(Oc2ccc(C(=O)c3ccc(cc3)*)cc2)cc1
variable	chem_cap	index	*[H]
variable	lg_repeat	index	34
variable	lg_cap		index	1
variable	norm_poly	index	100
variable	l_poly		index	1090
variable	mg_repeat	index	260.29514
variable	mg_cap		index	0
variable	m_poly		index	8329.44448
variable	n_poly		index	8
variable	mtotal		index	73822.38416
variable	nphase1		index	8720
variable	mphase1		index	73822.38416
variable	vphase1		index	185734.764243
variable	lbox		index	57.0555285531
variable	lphase1		index	57.0555285531
variable	lxx		index	57.0555285531
variable	lyy		index	57.0555285531
variable	lzz		index	57.0555285531
variable	lzy		index	0
variable	lzx		index	0
variable	lyx		index	0
variable	vtotal		index	185734.764243
variable	nl_poly		index	8

# Types

variable	type_c_0	index	1
variable	type_cp		index	2
variable	type_hc		index	3
variable	type_ho		index	4
variable	type_o_1	index	5
variable	type_oc		index	6
variable	type_oh		index	7

variable	type_bond_c_0_cp index	1
variable	type_bond_c_0_o_1 index	2
variable	type_bond_cp_cp	index	3
variable	type_bond_cp_hc	index	4
variable	type_bond_cp_oc	index	5
variable	type_bond_cp_oh	index	6
variable	type_bond_ho_oh	index	7

variable	type_angle_c_0_cp_cp index	1
variable	type_angle_cp_c_0_cp index	2
variable	type_angle_cp_c_0_o_1 index	3
variable	type_angle_cp_cp_cp index	4
variable	type_angle_cp_cp_hc index	5
variable	type_angle_cp_cp_oc index	6
variable	type_angle_cp_cp_oh index	7
variable	type_angle_cp_oc_cp index	8
variable	type_angle_cp_oh_ho index	9

# Clusters

variable	n0_poly		index	1
variable	n1_poly		index	8
variable	nl_poly		index	8

# Flags

variable	flag_charged	index	1

# Masses

mass		1    12.01115  # c_0
mass		2    12.01115  # cp
mass		3     1.00797  # hc
mass		4     1.00797  # ho
mass		5    15.99940  # o_1
mass		6    15.99940  # oc
mass		7    15.99940  # oh

# Potentials

pair_modify	mix sixthpower tail yes
special_bonds	lj/coul 0 0 1

# Pair Coeffs

pair_coeff	 1  1    0.12000    3.30800  # c_0,c_0
pair_coeff	 2  2    0.06400    4.01000  # cp,cp
pair_coeff	 3  3    0.02000    2.99500  # hc,hc
pair_coeff	 4  4    0.01300    1.09800  # ho,ho
pair_coeff	 5  5    0.26700    3.30000  # o_1,o_1
pair_coeff	 6  6    0.24000    3.53500  # oc,oc
pair_coeff	 7  7    0.24000    3.53500  # oh,oh

# Bond Coeffs

bond_coeff	1    1.48900  339.35740 -655.72360  670.23620  # c_0,cp
bond_coeff	2    1.21600  823.79480 -1878.79400 2303.53110  # c_0,o_1
bond_coeff	3    1.41700  470.83610 -627.61790 1327.63450  # cp,cp
bond_coeff	4    1.09820  372.82510 -803.45260  894.31730  # cp,hc
bond_coeff	5    1.37680  428.87980 -738.23510 1114.96550  # cp,oc
bond_coeff	6    1.37680  428.87980 -738.23510 1114.96550  # cp,oh
bond_coeff	7    0.96500  532.50620 -1282.90500 2004.76580  # ho,oh

# Angle Coeffs

angle_coeff	1  108.40000   43.95940   -8.39240   -9.33790  # c_0,cp,cp
angle_coeff	2  110.58840   34.62140   -7.09390   -7.40320  # cp,c_0,cp
angle_coeff	3  119.30000   65.10160  -17.97660    0.00000  # cp,c_0,o_1
angle_coeff	4  118.90000   61.02260  -34.99310    0.00000  # cp,cp,cp
angle_coeff	5  117.94000   35.15580  -12.46820    0.00000  # cp,cp,hc
angle_coeff	6  123.42000   73.67810  -21.67870    0.00000  # cp,cp,oc
angle_coeff	7  123.42000   73.67810  -21.67870    0.00000  # cp,cp,oh
angle_coeff	8  109.50000   60.00000    0.00000    0.00000  # cp,oc,cp
angle_coeff	9  108.19000   53.12500   -8.50160    0.00000  # cp,oh,ho

# BondBond Coeffs

angle_coeff	1 bb    0.00000    1.48900    1.41700  # c_0,cp,cp
angle_coeff	2 bb    0.00000    1.48900    1.48900  # cp,c_0,cp
angle_coeff	3 bb    0.00000    1.48900    1.21600  # cp,c_0,o_1
angle_coeff	4 bb   68.28560    1.41700    1.41700  # cp,cp,cp
angle_coeff	5 bb    1.07950    1.41700    1.09820  # cp,cp,hc
angle_coeff	6 bb   48.47540    1.41700    1.37680  # cp,cp,oc
angle_coeff	7 bb   48.47540    1.41700    1.37680  # cp,cp,oh
angle_coeff	8 bb    0.00000    1.37680    1.37680  # cp,oc,cp
angle_coeff	9 bb   20.65770    1.37680    0.96500  # cp,oh,ho

# BondAngle Coeffs

angle_coeff	1 ba    0.00000    0.00000    1.48900    1.41700  # c_0,cp,cp
angle_coeff	2 ba    0.00000    0.00000    1.48900    1.48900  # cp,c_0,cp
angle_coeff	3 ba    0.00000    0.00000    1.48900    1.21600  # cp,c_0,o_1
angle_coeff	4 ba   28.87080   28.87080    1.41700    1.41700  # cp,cp,cp
angle_coeff	5 ba   20.00330   24.21830    1.41700    1.09820  # cp,cp,hc
angle_coeff	6 ba   58.47900  107.68060    1.41700    1.37680  # cp,cp,oc
angle_coeff	7 ba   58.47900  107.68060    1.41700    1.37680  # cp,cp,oh
angle_coeff	8 ba    0.00000    0.00000    1.37680    1.37680  # cp,oc,cp
angle_coeff	9 ba   53.86140   23.92240    1.37680    0.96500  # cp,oh,ho

# Dihedral Coeffs

dihedral_coeff	 1    0.00000    0.00000    4.62820    0.00000    0.00000    0.00000  # c_0,cp,cp,cp
dihedral_coeff	 2    0.00000    0.00000    2.16700    0.00000    0.00000    0.00000  # c_0,cp,cp,hc
dihedral_coeff	 3    0.00000    0.00000    2.50000    0.00000    0.00000    0.00000  # cp,c_0,cp,cp
dihedral_coeff	 4    0.00000    0.00000    0.90630    0.00000    0.00000    0.00000  # cp,cp,c_0,o_1
dihedral_coeff	 5    8.36670    0.00000    1.19320    0.00000    0.00000    0.00000  # cp,cp,cp,cp
dihedral_coeff	 6    0.00000    0.00000    3.96610    0.00000    0.00000    0.00000  # cp,cp,cp,hc
dihedral_coeff	 7    0.00000    0.00000    4.84980    0.00000    0.00000    0.00000  # cp,cp,cp,oc
dihedral_coeff	 8    0.00000    0.00000    4.84980    0.00000    0.00000    0.00000  # cp,cp,cp,oh
dihedral_coeff	 9    0.00000    0.00000    1.80000    0.00000    0.00000    0.00000  # cp,cp,oc,cp
dihedral_coeff	10   -0.69000    0.00000    0.50970    0.00000    0.00950    0.00000  # cp,cp,oh,ho
dihedral_coeff	11    0.00000    0.00000    1.87690    0.00000    0.00000    0.00000  # hc,cp,cp,hc
dihedral_coeff	12    0.00000    0.00000    1.72340    0.00000    0.00000    0.00000  # hc,cp,cp,oc
dihedral_coeff	13    0.00000    0.00000    1.72340    0.00000    0.00000    0.00000  # hc,cp,cp,oh

# MiddleBondTorsion Coeffs

dihedral_coeff	 1 mbt    0.00000    0.00000    0.00000    1.41700  # c_0,cp,cp,cp
dihedral_coeff	 2 mbt    0.00000    0.00000    0.00000    1.41700  # c_0,cp,cp,hc
dihedral_coeff	 3 mbt    0.00000    0.00000    0.00000    1.48900  # cp,c_0,cp,cp
dihedral_coeff	 4 mbt    0.00000    0.00000    0.00000    1.48900  # cp,cp,c_0,o_1
dihedral_coeff	 5 mbt   27.59890   -2.31200    0.00000    1.41700  # cp,cp,cp,cp
dihedral_coeff	 6 mbt    0.00000   -1.15210    0.00000    1.41700  # cp,cp,cp,hc
dihedral_coeff	 7 mbt    0.00000    4.82550    0.00000    1.41700  # cp,cp,cp,oc
dihedral_coeff	 8 mbt    0.00000    4.82550    0.00000    1.41700  # cp,cp,cp,oh
dihedral_coeff	 9 mbt    0.00000    0.00000    0.00000    1.37680  # cp,cp,oc,cp
dihedral_coeff	10 mbt    1.15800    3.26970    3.51320    1.37680  # cp,cp,oh,ho
dihedral_coeff	11 mbt    0.00000    4.82280    0.00000    1.41700  # hc,cp,cp,hc
dihedral_coeff	12 mbt    0.00000    5.54320    0.00000    1.41700  # hc,cp,cp,oc
dihedral_coeff	13 mbt    0.00000    5.54320    0.00000    1.41700  # hc,cp,cp,oh

# EndBondTorsion Coeffs

dihedral_coeff	 1 ebt    0.00000    0.00000    0.00000    0.00000    0.00000    0.00000    1.48900    1.41700  # c_0,cp,cp,cp
dihedral_coeff	 2 ebt    0.00000    0.00000    0.00000    0.00000    0.00000    0.00000    1.48900    1.09820  # c_0,cp,cp,hc
dihedral_coeff	 3 ebt    0.00000    0.00000    0.00000    0.00000    0.00000    0.00000    1.48900    1.41700  # cp,c_0,cp,cp
dihedral_coeff	 4 ebt    0.00000    0.00000    0.00000    0.00000    0.00000    0.00000    1.41700    1.21600  # cp,cp,c_0,o_1
dihedral_coeff	 5 ebt   -0.11850    6.32040    0.00000   -0.11850    6.32040    0.00000    1.41700    1.41700  # cp,cp,cp,cp
dihedral_coeff	 6 ebt    0.00000   -6.89580    0.00000    0.00000   -0.46690    0.00000    1.41700    1.09820  # cp,cp,cp,hc
dihedral_coeff	 7 ebt    0.00000    0.26550    0.00000    0.00000    4.89050    0.00000    1.41700    1.37680  # cp,cp,cp,oc
dihedral_coeff	 8 ebt    0.00000    0.26550    0.00000    0.00000    4.89050    0.00000    1.41700    1.37680  # cp,cp,cp,oh
dihedral_coeff	 9 ebt    0.00000    0.00000    0.00000    0.00000    0.00000    0.00000    1.41700    1.37680  # cp,cp,oc,cp
dihedral_coeff	10 ebt    0.90000   -1.34560    1.19000    3.41320    0.58730   -0.13230    1.41700    0.96500  # cp,cp,oh,ho
dihedral_coeff	11 ebt    0.00000   -0.68900    0.00000    0.00000   -0.68900    0.00000    1.09820    1.09820  # hc,cp,cp,hc
dihedral_coeff	12 ebt    0.00000   -1.58670    0.00000    0.00000    4.26410    0.00000    1.09820    1.37680  # hc,cp,cp,oc
dihedral_coeff	13 ebt    0.00000   -1.58670    0.00000    0.00000    4.26410    0.00000    1.09820    1.37680  # hc,cp,cp,oh

# AngleTorsion Coeffs

dihedral_coeff	 1 at    0.00000    0.00000    0.00000    0.00000    0.00000    0.00000  108.40000  118.90000  # c_0,cp,cp,cp
dihedral_coeff	 2 at    0.00000    0.00000    0.00000    0.00000    0.00000    0.00000  108.40000  117.94000  # c_0,cp,cp,hc
dihedral_coeff	 3 at    0.00000    0.00000    0.00000    0.00000    0.00000    0.00000  110.58840  108.40000  # cp,c_0,cp,cp
dihedral_coeff	 4 at    0.00000    0.00000    0.00000    0.00000    0.00000    0.00000  108.40000  119.30000  # cp,cp,c_0,o_1
dihedral_coeff	 5 at    1.97670    1.02390    0.00000    1.97670    1.02390    0.00000  118.90000  118.90000  # cp,cp,cp,cp
dihedral_coeff	 6 at    0.00000    2.50140    0.00000    0.00000    2.71470    0.00000  118.90000  117.94000  # cp,cp,cp,hc
dihedral_coeff	 7 at    0.00000   10.01550    0.00000    0.00000    1.74040    0.00000  118.90000  123.42000  # cp,cp,cp,oc
dihedral_coeff	 8 at    0.00000   10.01550    0.00000    0.00000    1.74040    0.00000  118.90000  123.42000  # cp,cp,cp,oh
dihedral_coeff	 9 at    0.00000    0.00000    0.00000    0.00000    0.00000    0.00000  123.42000  109.50000  # cp,cp,oc,cp
dihedral_coeff	10 at   -5.13600   -1.01220    0.00000    4.68520    0.02300   -0.59800  123.42000  108.19000  # cp,cp,oh,ho
dihedral_coeff	11 at    0.00000    2.45010    0.00000    0.00000    2.45010    0.00000  117.94000  117.94000  # hc,cp,cp,hc
dihedral_coeff	12 at    0.00000    1.87290    0.00000    0.00000    2.57060    0.00000  117.94000  123.42000  # hc,cp,cp,oc
dihedral_coeff	13 at    0.00000    1.87290    0.00000    0.00000    2.57060    0.00000  117.94000  123.42000  # hc,cp,cp,oh

# AngleAngleTorsion Coeffs

dihedral_coeff	 1 aat    0.00000  108.40000  118.90000  # c_0,cp,cp,cp
dihedral_coeff	 2 aat    0.00000  108.40000  117.94000  # c_0,cp,cp,hc
dihedral_coeff	 3 aat    0.00000  110.58840  108.40000  # cp,c_0,cp,cp
dihedral_coeff	 4 aat    0.00000  108.40000  119.30000  # cp,cp,c_0,o_1
dihedral_coeff	 5 aat    0.00000  118.90000  118.90000  # cp,cp,cp,cp
dihedral_coeff	 6 aat   -4.81410  118.90000  117.94000  # cp,cp,cp,hc
dihedral_coeff	 7 aat  -21.02470  118.90000  123.42000  # cp,cp,cp,oc
dihedral_coeff	 8 aat  -21.02470  118.90000  123.42000  # cp,cp,cp,oh
dihedral_coeff	 9 aat    0.00000  123.42000  109.50000  # cp,cp,oc,cp
dihedral_coeff	10 aat   -4.60720  123.42000  108.19000  # cp,cp,oh,ho
dihedral_coeff	11 aat    0.35980  117.94000  117.94000  # hc,cp,cp,hc
dihedral_coeff	12 aat    4.22960  117.94000  123.42000  # hc,cp,cp,oc
dihedral_coeff	13 aat    4.22960  117.94000  123.42000  # hc,cp,cp,oh

# BondBond13 Coeffs

dihedral_coeff	 1 bb13    0.00000    1.48900    1.41700  # c_0,cp,cp,cp
dihedral_coeff	 2 bb13    0.00000    1.48900    1.09820  # c_0,cp,cp,hc
dihedral_coeff	 3 bb13    0.00000    1.48900    1.41700  # cp,c_0,cp,cp
dihedral_coeff	 4 bb13    0.00000    1.41700    1.21600  # cp,cp,c_0,o_1
dihedral_coeff	 5 bb13   53.00000    1.41700    1.41700  # cp,cp,cp,cp
dihedral_coeff	 6 bb13   -6.27410    1.41700    1.09820  # cp,cp,cp,hc
dihedral_coeff	 7 bb13   -2.24360    1.41700    1.37680  # cp,cp,cp,oc
dihedral_coeff	 8 bb13   -2.24360    1.41700    1.37680  # cp,cp,cp,oh
dihedral_coeff	 9 bb13    0.00000    1.41700    1.37680  # cp,cp,oc,cp
dihedral_coeff	10 bb13    1.15900    1.41700    0.96500  # cp,cp,oh,ho
dihedral_coeff	11 bb13   -1.70770    1.09820    1.09820  # hc,cp,cp,hc
dihedral_coeff	12 bb13    2.05170    1.09820    1.37680  # hc,cp,cp,oc
dihedral_coeff	13 bb13    2.05170    1.09820    1.37680  # hc,cp,cp,oh

# Improper Coeffs

improper_coeff	1   38.79490    0.00000  # c_0,cp,cp,o_1
improper_coeff	2    0.00000    0.00000  # cp,c_0,cp,cp
improper_coeff	3    4.89120    0.00000  # cp,cp,cp,hc
improper_coeff	4   13.04210    0.00000  # cp,cp,cp,oc
improper_coeff	5   13.04210    0.00000  # cp,cp,cp,oh

# AngleAngle Coeffs

improper_coeff	1 aa    0.00000    0.00000    0.00000  110.58840  119.30000  119.30000  # c_0,cp,cp,o_1
improper_coeff	2 aa    0.00000    0.00000    0.00000  108.40000  108.40000  118.90000  # cp,c_0,cp,cp
improper_coeff	3 aa    0.00000    0.00000    0.00000  118.90000  117.94000  117.94000  # cp,cp,cp,hc
improper_coeff	4 aa    0.00000    0.00000    0.00000  118.90000  123.42000  123.42000  # cp,cp,cp,oc
improper_coeff	5 aa    0.00000    0.00000    0.00000  118.90000  123.42000  123.42000  # cp,cp,cp,oh


# --- Thermo Output ---
thermo_style custom step time temp press enthalpy etotal ke pe ebond eangle edihed eimp evdwl ecoul elong etail vol lx ly lz density pxx pyy pzz
thermo_modify flush yes
thermo 1000

# --- Trajectory ---
dump dump_npt all custom 1000 npt_prod300.dump id type mol x y z ix iy iz vx vy vz

# --- Restart Checkpointing ---
# No restart checkpointing

# --- Initial Velocities (optional) ---
# Velocities read from data file

# --- SHAKE Constraints ---
# SHAKE disabled

# --- NPT Thermostat + Barostat (Nose-Hoover) ---
# T_damp = 100.0 fs  (heat bath coupling)
# P_damp = 1000.0 fs  (pressure bath coupling, ~10x T_damp typical)
# Ramp: T=300.0->300.0K  P=1.0->1.0atm
timestep 1.0
fix npt_fix all npt temp 300.0 300.0 100.0 iso 1.0 1.0 1000.0

run 2000000
PPPM Kokkos initialization ...
  using 12-bit tables for long-range coulomb
  G vector (1/distance) = 0.30700615
  grid = 36 36 36
  stencil order = 5
  estimated absolute RMS force accuracy = 0.00037682139
  estimated relative force accuracy = 1.1347864e-06
  using double precision cuFFT
  3d grid and FFT values/proc = 79507 46656
Generated 21 of 21 mixed pair_coeff terms from sixthpower/sixthpower mixing rule
Neighbor list info ...
  update: every = 1 steps, delay = 0 steps, check = yes
  max neighbors/atom: 4000, page size: 100000
  master list distance cutoff = 11.5
  ghost atom cutoff = 11.5
  binsize = 11.5, bins = 5 5 5
  1 neighbor lists, perpetual/occasional/extra = 1 0 0
  (1) pair lj/class2/coul/long/kk, perpetual
      attributes: full, newton off, kokkos_device
      pair build: full/bin/kk/device
      stencil: full/bin/3d
      bin: kk/device
Per MPI rank memory allocation (min/avg/max) = 36.6 | 36.6 | 36.6 Mbytes
   Step          Time           Temp          Press         Enthalpy        TotEng         KinEng         PotEng         E_bond        E_angle        E_dihed        E_impro         E_vdwl         E_coul         E_long         E_tail         Volume           Lx             Ly             Lz          Density          Pxx            Pyy            Pzz      
         0   0              301.71284     -1077.6552      25739.89       27349.664      7841.4211      19508.243      4011.4656      5819.7133      5227.0891      451.4152      -1276.7651      15679.895     -10404.57      -784.84206      102425.72      46.7882        46.7882        46.7882        1.196818      -672.19504     -1941.5625     -619.20796    
      1000   1000           297.3426       633.07418      28302.642      27357.298      7727.84        19629.458      4051.2122      5847.1858      5264.474       445.62012     -1270.2621      15696.103     -10404.874     -785.11281      102390.4       46.782821      46.782821      46.782821      1.1972308      1186.6897      927.60517     -215.07232    
      2000   2000           299.28211     -424.41183      26597.209      27232.136      7778.2472      19453.889      4062.1224      5780.7712      5193.0025      435.24175     -1313.3185      15699.196     -10403.126     -783.66539      102579.51      46.811606      46.811606      46.811606      1.1950237     -777.9116       297.68165     -793.00556    
      3000   3000           299.29442     -305.7214       26864.876      27321.704      7778.567       19543.137      3956.1054      5872.1678      5208.6981      445.96943     -1227.7974      15693.842     -10405.848     -784.58499      102459.28      46.79331       46.79331       46.79331       1.196426      -4.2823915      197.38244     -1110.2642    
      4000   4000           301.90969      870.10832      28739.109      27440.805      7846.5371      19594.267      3940.1024      5944.3037      5196.3003      461.06375     -1250.4685      15708.473     -10405.507     -785.7131       102312.17      46.770904      46.770904      46.770904      1.1981462      1107.1234      160.36121      1342.8404    
      5000   5000           298.4963       176.74296      27539.847      27276.822      7757.824       19518.998      3974.4597      5923.403       5199.6344      435.9941      -1288.9665      15683.305     -10408.831     -787.79541      102041.74      46.729659      46.729659      46.729659      1.2013216      701.18658     -723.72659      552.7689     
      6000   6000           304.11093      69.562687      27584.521      27480.383      7903.7465      19576.636      4057.8913      5848.2133      5229.2547      451.51113     -1307.7694      15699.095     -10401.56      -783.13068      102649.55      46.822258      46.822258      46.822258      1.1942083      715.98445      1172.226      -1679.5223    
      7000   7000           300.13628      165.07358      27578.918      27332.65       7800.4466      19532.203      4111.2749      5870.2099      5108.6178      433.57977     -1288.7445      15699.876     -10402.611     -785.8433       102295.22      46.768321      46.768321      46.768321      1.1983448      317.30501      480.37522     -302.45949    
      8000   8000           303.63905      189.36562      27667.399      27385.352      7891.4825      19493.869      4115.6702      5829.9674      5149.3905      435.17327     -1316.476       15685.61      -10405.466     -787.12851      102128.19      46.742853      46.742853      46.742853      1.2003046      173.61098     -11.381218      405.8671     
      9000   9000           301.28361      624.49244      28222.739      27291.717      7830.2654      19461.452      4031.6128      5818.9298      5206.1384      430.80746     -1306.4972      15689.277     -10408.816     -786.38387      102224.9       46.757602      46.757602      46.757602      1.1991691     -895.05178      1782.745       985.78406    
     10000   10000          302.46642     -358.68481      26816.931      27354.026      7861.0063      19493.019      4057.9637      5849.0559      5209.2916      437.45931     -1338.7329      15684.06      -10406.079     -782.94194      102674.3       46.82602       46.82602       46.82602       1.1939204     -624.98265      590.89054     -1041.9623    
     11000   11000          301.04416     -996.80354      25936.769      27430.686      7824.0424      19606.643      3956.7695      5887.3947      5264.6114      440.34011     -1242.167       15701.984     -10402.289     -782.25892      102763.95      46.839644      46.839644      46.839644      1.1928789     -2128.6153     -371.62097     -490.17433    
     12000   12000          296.88803     -691.66333      26202.975      27239.937      7716.0258      19523.911      3904.1101      5843.0354      5268.1177      457.40485     -1264.4919      15715.431     -10399.696     -781.98629      102799.77      46.845087      46.845087      46.845087      1.1924632      106.44616      422.72678     -2604.1629    
     13000   13000          304.71265      1966.9028      30521.812      27578.797      7919.3852      19659.412      4088.9325      5901.7939      5191.8748      438.37504     -1248.8812      15690.731     -10403.414     -783.53368      102596.75      46.814229      46.814229      46.814229      1.1948228      1610.4421      2202.3955      2087.8707    
     14000   14000          301.75914     -708.63096      26395.86       27453.868      7842.6244      19611.243      4087.3128      5856.1563      5205.9311      443.91985     -1283.0446      15704.89      -10403.922     -785.23296      102374.73      46.780435      46.780435      46.780435      1.1974141     -729.25076     -46.337958     -1350.3042    
     15000   15000          300.99634     -394.73078      26701.476      27293.961      7822.7995      19471.161      3978.2625      5881.8315      5189.3266      439.17198     -1308.8732      15696.782     -10405.34      -781.07178      102920.14      46.863363      46.863363      46.863363      1.1910686      376.17838     -613.62352     -946.74719    
     16000   16000          300.70958      307.53103      27905.057      27445.055      7815.3466      19629.708      4060.9644      5943.7096      5153.7092      435.85074     -1261.1442      15699.277     -10402.658     -783.78414      102563.97      46.809242      46.809242      46.809242      1.1952047     -474.07457      315.20792      1081.4597    
     17000   17000          299.44817     -1655.3027      24748.323      27234.165      7782.563       19451.602      4012.5527      5882.1926      5176.7607      428.18948     -1341.6228      15696.548     -10403.019     -780.67651      102972.24      46.871271      46.871271      46.871271      1.1904659     -2524.2181     -1802.129      -639.56109    
     18000   18000          303.13912     -1641.3318      25064.342      27520.039      7878.4897      19641.549      4040.3088      5799.6543      5361.3483      441.89123     -1301.3908      15704.56      -10404.823     -783.58991      102589.39      46.813109      46.813109      46.813109      1.1949086     -2125.7956     -2203.4087     -594.79091    
     19000   19000          304.62013      1934.9835      30332.77       27450.433      7916.9807      19533.452      4092.9308      5847.073       5150.7869      416.17433     -1267.0431      15700.906     -10407.376     -787.04508      102139.02      46.744505      46.744505      46.744505      1.2001774      1130.8568      2426.7872      2247.3066    
     20000   20000          294.7114       271.96763      27564.336      27157.707      7659.4557      19498.251      4111.5877      5836.5108      5131.9156      426.89467     -1296.3474      15692.173     -10404.483     -784.12535      102519.34      46.802451      46.802451      46.802451      1.195725       272.03976     -685.32244      1229.1856    
     21000   21000          299.74883     -506.41731      26672.651      27431.819      7790.3769      19641.442      4081.1278      5909.2895      5187.6166      431.82294     -1253.5433      15687.503     -10402.375     -782.05618      102790.59      46.843692      46.843692      46.843692      1.1925697     -156.63892     -1428.3484      65.735383    
     22000   22000          298.28977      1938.1698      30178.581      27288.275      7752.4564      19535.818      4092.3324      5777.9605      5177.3075      449.35457     -1247.8446      15691.642     -10404.934     -786.16758      102253.02      46.76189       46.76189       46.76189       1.1988393      3388.4757      2040.2966      385.73698    
     23000   23000          299.32246      116.16757      27404.811      27231.607      7779.2959      19452.311      4075.9542      5938.4468      5092.8988      417.59544     -1367.6382      15697.951     -10402.897     -786.31047      102234.44      46.759057      46.759057      46.759057      1.1990572      1330.437      -631.17387     -350.76039    
     24000   24000          300.21362      528.45171      28177.384      27388.958      7802.4568      19586.501      4048.41        5829.9739      5252.8181      452.74055     -1287.5439      15693.852     -10403.75      -785.79939      102300.94      46.769192      46.769192      46.769192      1.1982778      298.13392      1183.524       103.69724    
     25000   25000          301.81489      528.43468      28264.449      27475.011      7844.0733      19630.938      4155.2218      5910.6584      5155.9905      443.81983     -1342.3913      15711.945     -10404.307     -784.7667       102435.56      46.789698      46.789698      46.789698      1.1967031     -383.20695      799.9269       1168.5841    
     26000   26000          304.05699     -689.91898      26426.924      27457.987      7902.3447      19555.642      4066.4477      5919.7428      5209.0312      410.19217     -1346.9193      15702.224     -10405.076     -784.47673      102473.42      46.795462      46.795462      46.795462      1.1962609     -1069.5594      226.97969     -1227.1772    
     27000   27000          303.82511     -1119.5841      25732.825      27402.602      7896.3182      19506.284      4021.9336      5868.7441      5217.6163      426.88516     -1322.9044      15696.837     -10402.828     -786.07774      102264.71      46.763671      46.763671      46.763671      1.1987023     -866.99705     -1818.064      -673.69112    
     28000   28000          296.82902      79.039944      27426.598      27308.696      7714.492       19594.204      4079.246       5809.1879      5211.3579      446.58548     -1230.257       15686.411     -10408.328     -785.94342      102282.19      46.766335      46.766335      46.766335      1.1984975     -916.25087     -111.72748      1265.0982    
     29000   29000          302.49068     -832.41936      26175.897      27417.158      7861.637       19555.521      4097.0051      5862.6587      5136.9437      447.03248     -1269.7966      15687.466     -10405.789     -786.22391      102245.7       46.760773      46.760773      46.760773      1.1989252     -850.6298      -614.2756      -1032.3527    
     30000   30000          298.42334      437.86215      28026.924      27373.85       7755.9281      19617.922      4106.8228      5930.0369      5137.4105      433.39803     -1280.6256      15693.136     -10402.257     -786.03544      102270.21      46.76451       46.76451       46.76451       1.1986378      1402.3121      130.03239     -218.75804    
     31000   31000          299.77013      607.61563      28149.937      27241.825      7790.9305      19450.895      4069.6659      5932.7132      5075.3592      436.95619     -1361.0808      15699.842     -10402.561     -784.43515      102478.85      46.796289      46.796289      46.796289      1.1961975      1087.735       1256.5058     -521.39398    
     32000   32000          303.17384      147.73468      27529.018      27308.169      7879.3918      19428.777      4041.9873      5845.5623      5150.8432      443.49625     -1351.5852      15702.644     -10404.171     -784.25064      102502.96      46.799959      46.799959      46.799959      1.1959161     -88.610266     -702.98542      1234.7997    
     33000   33000          300.84369      703.15453      28431.877      27383.37       7818.8322      19564.538      4095.6552      5883.1027      5157.6069      443.53919     -1321.1573      15705.933     -10400.141     -786.22438      102245.64      46.760764      46.760764      46.760764      1.1989259      644.53621     -98.892695      1563.8201    
     34000   34000          304.57778      264.05658      27980.694      27586.825      7915.8799      19670.945      4106.1102      5855.8946      5242.6726      451.37393     -1279.0495      15697.602     -10403.659     -785.98144      102277.24      46.765581      46.765581      46.765581      1.1985554      876.29376     -704.52154      620.39753    
     35000   35000          299.1076       1047.0744      28864.39       27309.025      7773.7117      19535.314      4052.5272      5921.5269      5171.6786      429.47488     -1331.8831      15697.724     -10405.735     -789.2463       101854.15      46.701007      46.701007      46.701007      1.2035341      1801.0562      754.04912      586.11802    
     36000   36000          301.72061     -143.0713       27206.607      27419.558      7841.6229      19577.935      3991.9785      5863.7604      5220.644       456.63041     -1253.1067      15701.287     -10403.259     -787.66218      102059         46.732294      46.732294      46.732294      1.2011184     -1500.1557     -447.71318      1518.6549    
     37000   37000          295.58156      320.13576      27669.989      27192.716      7682.0711      19510.645      4010.8711      5900.3034      5153.5271      456.35896     -1300.0615      15694.976     -10405.33      -786.38316      102224.99      46.757616      46.757616      46.757616      1.199168       814.8821       203.12095     -57.595772    
     38000   38000          303.36044     -498.92054      26657.037      27400.687      7884.2416      19516.445      3928.864       5966.4849      5211.4674      451.33673     -1348.1882      15709.245     -10402.765     -786.55631      102202.49      46.754185      46.754185      46.754185      1.1994321      545.04587     -1247.2607     -794.54675    
     39000   39000          307.57031      447.39073      28139.484      27469.959      7993.6548      19476.304      4031.8981      5935.5123      5107.444       422.6333      -1317.9753      15704.236     -10407.444     -783.40612      102613.46      46.81677       46.81677       46.81677       1.1946283      1083.7657     -1374.0897      1632.4961    
     40000   40000          296.99118      885.71559      28571.516      27245.707      7718.7067      19527          4051.2744      5890.0672      5121.2187      443.98122     -1275.5012      15698.439     -10402.479     -783.21426      102638.6       46.820592      46.820592      46.820592      1.1943357      1612.6516      935.20475      109.29046    
     41000   41000          301.26794      934.16663      28872.241      27470.837      7829.8582      19640.978      4135.3843      5856.2693      5171.1906      445.69267     -1261.6295      15698.393     -10404.322     -781.49862      102863.92      46.854829      46.854829      46.854829      1.1917195      964.90552      2166.4479     -328.85352    
     42000   42000          297.41343     -36.348498      27173.83       27228.021      7729.6807      19498.34       4008.0632      5822.9428      5216.7077      436.84248     -1276.0225      15693.735     -10403.929     -786.37877      102225.56      46.757703      46.757703      46.757703      1.1991613     -642.67636      923.35067     -389.7198     
     43000   43000          297.75081     -505.62946      26625.468      27380.313      7738.4491      19641.864      4102.8346      5913.2056      5175.484       436.07983     -1279.9662      15696.362     -10402.136     -785.31137      102364.51      46.778878      46.778878      46.778878      1.1975336     -1297.8419     -350.48269      131.4362     
     44000   44000          298.84471     -1086.0004      25810.905      27441.446      7766.8792      19674.567      4146.5721      5802.2622      5219.4643      449.5112      -1255.8151      15713.627     -10401.055     -780.84626      102949.86      46.867874      46.867874      46.867874      1.1907247      266.31725     -2661.5983     -862.72016    
     45000   45000          301.18911      84.733374      27474.443      27348.207      7827.8093      19520.397      3943.3325      5974.2668      5215.3672      430.78777     -1357.0174      15710.774     -10397.114     -786.93003      102153.95      46.746783      46.746783      46.746783      1.200002      -306.3753      -412.59645      973.17188    
     46000   46000          301.18061      26.20132       27367.141      27327.928      7827.5885      19500.34       3949.7797      5880.3453      5168.7283      465.76372     -1260.7624      15701.635     -10405.15      -783.36251      102619.17      46.817638      46.817638      46.817638      1.1945618     -1286.624       907.8943       457.33371    
     47000   47000          298.37186     -44.184008      27078.581      27144.667      7754.5899      19390.077      3977.2378      5832.0671      5143.5075      423.32537     -1273.0799      15688.72      -10401.701     -783.83477      102557.34      46.808234      46.808234      46.808234      1.1952819     -339.20363      394.38912     -187.73751    
     48000   48000          300.13334      655.59002      28281.689      27303.424      7800.3702      19503.054      3997.3079      5877.0178      5121.1232      434.79766     -1224.268       15700.7       -10403.624     -785.67546      102317.07      46.771651      46.771651      46.771651      1.1980888      1151.8194      532.85693      282.0937     
     49000   49000          303.13137     -1109.2084      25806.964      27464.438      7878.2881      19586.15       3993.3985      5946.1212      5202.4735      451.38134     -1304.7743      15697.959     -10400.409     -784.57337      102460.8       46.793541      46.793541      46.793541      1.1964082     -796.16026     -2155.0655     -376.3995     
     50000   50000          299.78806     -770.95686      26195.338      27345.794      7791.3965      19554.398      4009.8167      5904.4298      5242.3505      459.16128     -1353.1263      15693.51      -10401.744     -785.64656      102320.84      46.772225      46.772225      46.772225      1.1980448      1378.3904     -2292.0135     -1399.2474    
     51000   51000          298.88434     -1028.1567      25845.36       27385.662      7767.9091      19617.753      4092.7937      5828.002       5234.705       442.37177     -1274.1146      15695.427     -10401.431     -782.56526      102723.72      46.833532      46.833532      46.833532      1.193346      -1991.1416     -1236.2546      142.92619    
     52000   52000          302.20812     -495.86459      26808.131      27547.191      7854.2931      19692.898      4071.5956      5990.1877      5189.4799      444.37916     -1294.0886      15695.479     -10404.135     -786.59315      102197.7       46.753455      46.753455      46.753455      1.1994882     -658.79471      191.49442     -1020.2935    
     53000   53000          297.65064     -483.23126      26624.497      27345.826      7735.8458      19609.98       4080.7462      5826.8327      5260.1388      442.29561     -1283.7047      15688.221     -10404.55      -785.39674      102353.38      46.777183      46.777183      46.777183      1.1976638      103.51462     -1520.9441     -32.264351    
     54000   54000          299.47958      158.03646      27549.625      27313.086      7783.3793      19529.707      3978.589       5895.6548      5150.9861      447.05131     -1250.8422      15710.71      -10402.442     -783.28933      102628.76      46.819096      46.819096      46.819096      1.1944502      1465.4975     -1002.1073      10.719164    
     55000   55000          298.6969      -1481.7864      25141.742      27350.538      7763.0377      19587.5        4036.2497      5880.0709      5294.2852      437.66589     -1356.9858      15697.113     -10400.899     -786.49727      102210.16      46.755355      46.755355      46.755355      1.199342      -1390.5342     -931.21686     -2123.6082    
     56000   56000          304.74534      259.25791      27902.761      27515.716      7920.2348      19595.481      4018.9331      5886.2348      5273.4711      440.09532     -1339.543       15717.365     -10401.076     -785.30287      102365.62      46.779047      46.779047      46.779047      1.1975207      454.04714      1461.0124     -1137.2858    
     57000   57000          300.48112     -1172.4495      25638.826      27388.634      7809.4089      19579.225      3991.8447      5987.5519      5254.5867      437.93082     -1362.2755      15675.602     -10406.015     -785.54465      102334.11      46.774247      46.774247      46.774247      1.1978894     -1851.4543     -514.68966     -1151.2044    
     58000   58000          297.10682     -49.221267      27154.784      27228.447      7721.7119      19506.735      4062.5358      5890.485       5131.9641      430.32156     -1298.7885      15695.551     -10405.334     -783.38326      102616.45      46.817225      46.817225      46.817225      1.1945934     -101.74844      726.50482     -772.42019    
     59000   59000          302.51432      248.13673      27856.397      27485.605      7862.2512      19623.354      4096.7038      5813.7536      5267.2801      435.61216     -1281.0944      15698.19      -10407.091     -784.56276      102462.18      46.793752      46.793752      46.793752      1.1963921      275.88154     -854.16692      1322.6956    
     60000   60000          293.91653     -1198.9606      25293.018      27080.837      7638.7974      19442.039      4022.411       5901.5489      5182.636       425.99286     -1388.325       15704.699     -10406.924     -786.22805      102245.16      46.760691      46.760691      46.760691      1.1989315     -1303.6529     -1260.7762     -1032.4527    
     61000   61000          302.61032      515.77465      28141.338      27369.691      7864.7462      19504.945      3986.7575      5921.1096      5168.0235      426.80021     -1290.4277      15700.37      -10407.688     -783.62573      102584.7       46.812396      46.812396      46.812396      1.1949632     -104.1473       1510.6833      140.78793    
     62000   62000          302.01162      417.79327      28192.739      27571.087      7849.1863      19721.901      4179.8213      5912.8992      5139.6954      454.30781     -1247.7723      15686.334     -10403.385     -787.91932      102025.69      46.72721       46.72721       46.72721       1.2015105      598.74285     -543.28883      1197.9258    
     63000   63000          301.51151      543.93273      28126.378      27318.023      7836.1886      19481.835      4034.3778      5898.7301      5209.2472      425.02504     -1370.8848      15693.69      -10408.35      -788.87921      101901.55      46.70825       46.70825       46.70825       1.2029743      667.74159     -234.83569      1198.8923    
     64000   64000          296.57105      579.29965      28127.857      27268.002      7707.7874      19560.214      4068.605       5907.2689      5162.8399      435.84286     -1319.3377      15707.152     -10402.157     -789.85087      101776.19      46.689089      46.689089      46.689089      1.204456       1691.7359      338.73445     -292.57139    
     65000   65000          300.91964     -353.11325      26880.488      27405.69       7820.8059      19584.884      4044.9837      5946.6147      5145.3615      420.65541     -1263.331       15693.466     -10402.867     -788.23365      101985.01      46.720998      46.720998      46.720998      1.2019899      2248.9451     -2409.6698     -898.61506    
     66000   66000          302.84479      947.98825      28907.588      27492.769      7870.8401      19621.929      4086.8352      5974.9443      5121.0094      432.82821     -1308.5136      15716.297     -10401.472     -785.54188      102334.47      46.774302      46.774302      46.774302      1.1978851      2123.6551     -900.63692      1620.9466    
     67000   67000          302.76149      685.67878      28401.348      27378.172      7868.6751      19509.497      4063.8784      5873.2818      5096.8687      436.7933      -1270.7769      15711.525     -10402.074     -785.66525      102318.4       46.771854      46.771854      46.771854      1.1980733      603.39425      483.18539      970.45669    
     68000   68000          296.67757     -150.60429      27077.551      27304.21       7710.556       19593.654      4026.2059      5923.0301      5161.6938      439.53658     -1277.2363      15719.481     -10399.057     -778.98787      103195.46      46.905114      46.905114      46.905114      1.1878908     -681.23157      1465.4749     -1236.0562    
     69000   69000          302.2269      -657.87041      26437.656      27422.499      7854.7814      19567.717      4051.8103      5912.1345      5256.105       444.34296     -1388.6514      15694.048     -10402.072     -783.14247      102648.01      46.822023      46.822023      46.822023      1.1942262     -865.9896      -147.11767     -960.50396    
     70000   70000          298.88808      987.7536       28806.347      27330.245      7768.0065      19562.239      4053.6726      5982.175       5101.2356      419.33406     -1301.3765      15710.818     -10403.62      -784.51191      102468.82      46.794763      46.794763      46.794763      1.1963145      473.50002      1002.6663      1487.0945    
     71000   71000          297.46139      634.24316      28318.431      27371.298      7730.9273      19640.371      4027.0778      5919.8403      5201.8233      428.40521     -1261.3738      15727.502     -10402.904     -785.07668      102395.11      46.783539      46.783539      46.783539      1.1971757      258.8932       415.55791      1228.2784    
     72000   72000          300.65627      175.13112      27512.58       27251.229      7813.9612      19437.268      3923.9927      5778.0947      5288.3073      443.96609     -1278.5993      15687.684     -10406.177     -785.60885      102325.75      46.772973      46.772973      46.772973      1.1979873      426.67613     -579.92088      678.63812    
     73000   73000          299.92469     -874.11244      26068.649      27372.955      7794.9475      19578.007      3952.4971      5926.5468      5234.8904      448.37372     -1282.6632      15697.965     -10399.603     -785.6969       102314.28      46.771226      46.771226      46.771226      1.1981215     -312.59095     -164.10165     -2145.6447    
     74000   74000          295.17586     -985.65216      25773.031      27250.047      7671.527       19578.52       3997.4282      5872.6495      5283.0654      439.35567     -1318.5993      15706.945     -10402.325     -782.35824      102750.9       46.837662      46.837662      46.837662      1.1930304      33.289696     -1610.2694     -1379.9768    
     75000   75000          297.1866       453.58221      28069.035      27394.845      7723.7854      19671.059      4109.3066      5886.6255      5181.4098      458.56676     -1249.9945      15694.541     -10409.396     -788.75287      101917.87      46.710743      46.710743      46.710743      1.2027816     -442.20352      742.08598      1060.8642    
     76000   76000          297.80408     -350.28079      26742.21       27266.044      7739.8336      19526.211      4017.4345      5919.1562      5207.5463      422.71875     -1337.855       15700.907     -10403.697     -783.95192      102542.02      46.805902      46.805902      46.805902      1.1954606      475.33627     -129.28654     -1396.8921    
     77000   77000          300.77522     -189.33171      27155.519      27437.399      7817.0526      19620.347      4109.5724      5835.4609      5267.1575      454.24375     -1341.7521      15699.225     -10403.561     -787.45605      102085.71      46.736371      46.736371      46.736371      1.2008041     -235.18858      427.18738     -759.99392    
     78000   78000          294.85275     -357.64915      26574.625      27106.067      7663.1295      19442.938      3985.7545      5836.2379      5259.7908      428.16751     -1339.2753      15683.41      -10411.148     -788.98379      101888.04      46.706186      46.706186      46.706186      1.2031338     -1227.305      -1082.284       1236.6416    
     79000   79000          294.42547     -409.29068      26649.717      27260.518      7652.0245      19608.493      4022.9846      5879.9196      5260.9712      448.79167     -1300.949       15695.864     -10399.089     -785.59666      102327.34      46.773215      46.773215      46.773215      1.1979687     -374.17177      485.79441     -1339.4947    
     80000   80000          296.54344     -885.20792      25998.035      27329.055      7707.0699      19621.985      4052.1012      5899.5525      5213.6033      447.5351      -1287.0176      15700.736     -10404.525     -779.70084      103101.1       46.890813      46.890813      46.890813      1.188978      -1221.3113      122.15187     -1556.4643    
     81000   81000          299.33199      1690.6295      29883.883      27359.991      7779.5434      19580.448      4043.5633      5853.1386      5171.3453      440.52483     -1240.4613      15710.861     -10398.524     -785.31687      102363.79      46.778769      46.778769      46.778769      1.197542       2280.9614      1062.4423      1728.4847    
     82000   82000          301.34261     -58.008122      27371.291      27458.041      7831.799       19626.242      4078.3826      5900.6368      5245.687       441.78733     -1351.5454      15712.546     -10401.253     -783.94948      102542.34      46.805951      46.805951      46.805951      1.1954569      332.89451     -161.51257     -345.40631    
     83000   83000          297.56224     -461.81746      26629.279      27321.594      7733.5483      19588.046      3979.5105      5913.7182      5260.5717      434.38625     -1286.0243      15687.53      -10401.647     -782.04858      102791.58      46.843843      46.843843      46.843843      1.1925582     -1234.7381     -53.307951     -97.406346    
     84000   84000          300.15768     -1121.1471      25836.568      27514.155      7801.0029      19713.152      4025.2679      5902.5373      5326.8885      440.76087     -1277.7571      15697.754     -10402.299     -783.5101       102599.84      46.814699      46.814699      46.814699      1.1947868     -734.85545     -1653.6384     -974.94747    
     85000   85000          300.30152     -332.04386      26838.678      27333.427      7804.7412      19528.686      3937.4776      5847.0979      5273.279       461.04151     -1275.801       15692.588     -10406.997     -786.82421      102167.69      46.748878      46.748878      46.748878      1.1998406      410.04912      141.79979     -1547.9805    
     86000   86000          300.15645     -949.6584       25903.913      27318.995      7800.9709      19518.024      4070.9537      5828.8017      5290.7793      434.25529     -1390.8206      15689.379     -10405.325     -786.77938      102173.51      46.749766      46.749766      46.749766      1.1997722     -527.41395     -341.68857     -1979.8727    
     87000   87000          303.17558      670.53686      28587.525      27588.613      7879.4373      19709.176      4072.8637      5931.2319      5202.8691      441.07881     -1252.8146      15716.18      -10402.233     -786.97821      102147.7       46.745829      46.745829      46.745829      1.2000754      1640.3676     -1226.9567      1598.1996    
     88000   88000          302.67752     -122.53466      27183.289      27365.799      7866.4928      19499.306      3941.0303      5820.7056      5275.2132      426.10038     -1275.6792      15712.938     -10401.003     -787.11631      102129.78      46.743095      46.743095      46.743095      1.200286       468.38441      409.10678     -1245.0952    
     89000   89000          300.24502      1042.7851      28813.307      27261          7803.2727      19457.728      3964.6308      5948.4546      5116.3522      449.22352     -1315.9957      15694.917     -10399.854     -787.56138      102072.06      46.734288      46.734288      46.734288      1.2009647      1962.1173      410.29645      755.94171    
     90000   90000          293.48436     -8.3330415      27247.749      27260.189      7627.5656      19632.623      4049.3025      5932.27        5210.1832      448.98503     -1315.0473      15707.095     -10400.166     -785.32568      102362.64      46.778594      46.778594      46.778594      1.1975555      838.11642      1089.7309     -1952.8465    
     91000   91000          299.42869      1647.9943      29815.339      27348.508      7782.0567      19566.451      4083.2836      5879.3969      5061.7176      439.71962     -1198.8472      15700.385     -10399.205     -783.21941      102637.92      46.82049       46.82049       46.82049       1.1943436      2964.8404      283.05904      1696.0834    
     92000   92000          302.26943      1166.2679      29166.843      27420.613      7855.8865      19564.727      4036.5829      5880.2757      5162.5635      434.223       -1259.4351      15712.44      -10401.923     -783.00411      102666.14      46.824781      46.824781      46.824781      1.1940153      1298.3431      1292.9218      907.53891    
     93000   93000          306.23759     -719.23322      26443.498      27517.215      7959.0178      19558.197      3963.2398      5924.9847      5250.0132      434.62581     -1315.6118      15699.73      -10398.785     -785.3211       102363.24      46.778685      46.778685      46.778685      1.1975485      1079.3381     -774.64307     -2462.3947    
     94000   94000          299.37275     -287.49561      26858.291      27289.853      7780.6028      19509.25       4001.5161      5870.5742      5135.0074      448.45349     -1221.2667      15680.555     -10405.59      -781.00844      102928.48      46.86463       46.86463       46.86463       1.190972      -960.11744      681.36045     -583.72986    
     95000   95000          298.01097      349.14203      27800.263      27280.425      7745.2107      19535.214      4089.8047      5979.1717      5113.9952      424.84217     -1355.8809      15686.316     -10403.034     -787.4106       102091.61      46.737271      46.737271      46.737271      1.2007348      1385.8407      169.89643     -508.31102    
     96000   96000          303.13241      458.81884      28161.518      27476.878      7878.3151      19598.563      4040.7095      5849.7042      5226.8852      437.89603     -1249.4444      15696.126     -10403.314     -785.6809       102316.36      46.771543      46.771543      46.771543      1.1980971      1008.8252      1120.2204     -752.58912    
     97000   97000          300.99718      517.2968       28163.723      27390.501      7822.8213      19567.68       4133.0642      5848.9798      5093.7222      433.86399     -1238.3702      15700.57      -10404.151     -784.33673      102491.71      46.798247      46.798247      46.798247      1.1960474      840.10362      47.482642      664.30413    
     98000   98000          301.99482      1078.9098      29067.844      27457.567      7848.7496      19608.817      4063.0498      5859.9395      5215.2598      432.53575     -1268.7267      15708.722     -10401.962     -785.51006      102338.62      46.774934      46.774934      46.774934      1.1978366      1179.4153      257.22017      1800.094     
     99000   99000          294.98415      587.44655      27944.088      27067.518      7666.5445      19400.974      3922.9521      5809.9714      5233.0252      432.00954     -1282.9263      15687.393     -10401.451     -785.68648      102315.64      46.771432      46.771432      46.771432      1.1981056      1654.2828      1140.5873     -1032.5305    
    100000   100000         297.0442      -508.98266      26578.855      27338.933      7720.0847      19618.849      3968.4774      5946.7321      5276.7519      434.56074     -1306.3145      15698.048     -10399.407     -785.07561      102395.25      46.78356       46.78356       46.78356       1.1971741     -1461.8036     -670.84901      605.70464    
    101000   101000         301.97455      168.51354      27675.823      27424.955      7848.2227      19576.732      4041.5566      5925.3478      5161.4058      432.37834     -1294.1421      15713.067     -10402.881     -787.5105       102078.66      46.735294      46.735294      46.735294      1.2008871     -41.407469      818.92324     -271.97515    
    102000   102000         297.97745      791.93857      28495.924      27313.954      7744.3395      19569.614      4158.6807      5953.6037      4985.6986      436.19445     -1259.2896      15694.817     -10400.091     -785.51065      102338.54      46.774922      46.774922      46.774922      1.1978375      1078.3728      1417.8168     -120.37388    
    103000   103000         297.15308     -1386.2469      25237.147      27310.191      7722.9144      19587.277      4041.9185      5950.2065      5162.4556      435.89457     -1315.2226      15710.756     -10398.732     -783.96952      102539.72      46.805552      46.805552      46.805552      1.1954874     -1675.1633     -1395.5795     -1087.9978    
    104000   104000         301.37591      1101.1515      29122.244      27478.252      7832.6642      19645.588      4057.2331      5967.6509      5171.9434      426.19657     -1277.1835      15703.288     -10403.541     -785.26184      102370.97      46.779862      46.779862      46.779862      1.1974581      876.6432       662.66956      1764.1416    
    105000   105000         302.32529     -1451.3773      25155.244      27324.522      7857.3384      19467.184      4027.8007      5893.1956      5153.8453      425.98276     -1297.0146      15666.592     -10403.218     -784.39023      102484.72      46.797182      46.797182      46.797182      1.196129      -2414.9106     -835.99711     -1103.2241    
    106000   106000         297.98907     -1180.3997      25655.959      27425.261      7744.6415      19680.619      4028.6134      5859.4953      5359.4713      437.005       -1291.4646      15690.953     -10403.455     -782.15764      102777.25      46.841666      46.841666      46.841666      1.1927244     -1444.462      -1437.3524     -659.38462    
    107000   107000         298.09895      81.933233      27464.237      27341.414      7747.4973      19593.916      4079.1946      5869.0378      5165.0315      436.37046     -1264.6519      15705.888     -10396.954     -782.0713       102788.6       46.84339       46.84339       46.84339       1.1925928      56.80988       511.56313     -322.57331    
    108000   108000         301.82834      519.27667      28302.955      27524.313      7844.4228      19679.89       3983.1347      5914.4316      5260.7368      464.68959     -1253.1744      15710.639     -10400.567     -781.85891      102816.52      46.847631      46.847631      46.847631      1.1922689      745.82364      1464.5997     -652.59338    
    109000   109000         301.27566     -262.62551      26921.064      27314.086      7830.0588      19484.027      4012.9235      5846.4734      5183.2077      437.67994     -1291.7576      15697.573     -10402.073     -783.40639      102613.43      46.816764      46.816764      46.816764      1.1946287      695.80451     -879.07428     -604.60677    
    110000   110000         297.86438     -721.20542      26130.649      27208.231      7741.4006      19466.831      3948.9941      5850.7414      5203.0751      431.0307      -1268.2662      15705.604     -10404.349     -784.64944      102450.86      46.792029      46.792029      46.792029      1.1965242     -315.87493     -596.14024     -1251.6011    
    111000   111000         299.97839      93.134301      27559.688      27420.164      7796.3432      19623.821      4013.5781      5938.2915      5258.8898      445.55024     -1320.4575      15687.593     -10399.623     -782.58261      102721.44      46.833186      46.833186      46.833186      1.1933725     -732.4696       844.53497      167.33754    
    112000   112000         294.35664      588.24631      27949.249      27070.359      7650.2357      19420.124      4021.9952      5814.7527      5154.8253      433.28257     -1299.216       15703.955     -10409.471     -784.67918      102446.98      46.791438      46.791438      46.791438      1.1965696      1073.8542      756.80904     -65.924338    
    113000   113000         303.28016     -113.70335      27296.835      27466.632      7882.1553      19584.477      4068.8556      5856.3045      5212.1443      446.77106     -1289.0053      15692.506     -10403.099     -785.07295      102395.6       46.783613      46.783613      46.783613      1.1971701     -155.81227     -666.14913      480.85134    
    114000   114000         301.01681      266.4192       27810.345      27411.419      7823.3313      19588.088      4022.6735      5955.8921      5154.2626      448.81387     -1293.763       15701.646     -10401.437     -782.9608       102671.82      46.825644      46.825644      46.825644      1.1939492      15.096301      60.423662      723.73764    
    115000   115000         301.78818      90.806268      27629.81       27494.525      7843.3792      19651.146      4052.5769      5873.7313      5251.5067      455.97495     -1285.3787      15703.33      -10400.595     -786.92478      102154.63      46.746887      46.746887      46.746887      1.1999939      449.92909      278.75921     -456.26949    
    116000   116000         300.25894     -1598.9418      25011.764      27401.296      7803.6345      19597.661      3948.8477      5949.9781      5245.2704      427.51361     -1281.8538      15712.806     -10404.901     -784.48926      102471.78      46.795213      46.795213      46.795213      1.19628       -1751.4903     -610.20049     -2435.1347    
    117000   117000         295.2617       577.61678      28040.249      27179.26       7673.758       19505.502      4061.6227      5854.2954      5141.3354      427.7528      -1284.8515      15706.947     -10401.6       -786.51866      102207.38      46.754931      46.754931      46.754931      1.1993746      1284.6568      409.60156      38.591985    
    118000   118000         301.19817     -178.8232       27049.504      27316.011      7828.0449      19487.967      3986.999       5886.1419      5199.4781      437.40449     -1314.6307      15693.021     -10400.447     -786.65021      102190.29      46.752325      46.752325      46.752325      1.1995753      1696.1123     -1060.6589     -1171.923     
    119000   119000         298.46444      861.89448      28592.457      27304.474      7756.9962      19547.478      4014.568       5795.4139      5297.9443      438.46038     -1290.3537      15696.385     -10404.939     -784.53277      102466.1       46.794348      46.794348      46.794348      1.1963463      394.12937      1575.6683      615.88572    
    120000   120000         297.869        1109.457       29020.889      27366.334      7741.5209      19624.813      4070.1794      5933.6575      5168.9642      436.51949     -1279.0109      15695.53      -10401.027     -786.1338       102257.42      46.76256       46.76256       46.76256       1.1987878      1327.9676      1999.0042      1.3991385    
    121000   121000         300.72905     -500.04888      26755.932      27503.073      7815.8525      19687.221      4031.5414      5874.0412      5351.0637      442.19573     -1317.2737      15711.571     -10405.918     -784.65216      102450.51      46.791975      46.791975      46.791975      1.1965284     -1272.8151      325.41954     -552.75103    
    122000   122000         300.34032      53.892878      27513.234      27432.53       7805.7497      19626.781      4042.1565      5853.8552      5240.7041      440.91215     -1232.774       15686.657     -10404.73      -782.89948      102679.87      46.826866      46.826866      46.826866      1.1938557      1832.825      -652.83727     -1018.3091    
    123000   123000         297.68683     -103.12912      27264.525      27419.496      7736.7862      19682.71       4084.4684      5904.5205      5234.0208      415.2218      -1265.0359      15711.143     -10401.629     -780.18649      103036.92      46.881082      46.881082      46.881082      1.1897186     -592.70997      340.0953      -56.772702    
    124000   124000         302.76109     -488.44906      26626.419      27358.186      7868.6646      19489.522      4024.2177      5876.7854      5153.0248      428.69209     -1294.1996      15703.724     -10402.723     -782.55266      102725.37      46.833783      46.833783      46.833783      1.1933268      401.09489     -1176.9775     -689.46451    
    125000   125000         300.27683      1483.2113      29624.841      27408.414      7804.0996      19604.315      4019.0689      5913.633       5201.7693      422.47623     -1245.1375      15694.468     -10401.963     -784.54309      102464.75      46.794143      46.794143      46.794143      1.1963621      894.78707      1906.0144      1648.8324    
    126000   126000         298.04128      369.00785      27756.522      27206.739      7745.9984      19460.74       3999.3626      5760.3745      5256.9646      445.23928     -1284.3615      15690.234     -10407.073     -786.88538      102159.75      46.747667      46.747667      46.747667      1.1999339     -356.58661      600.72391      862.88626    
    127000   127000         304.00269     -395.68154      26849.139      27442          7900.9336      19541.066      4022.7855      5832.997       5224.5054      445.48222     -1257.1312      15676.332     -10403.905     -782.45613      102738.05      46.835709      46.835709      46.835709      1.1931796     -316.74701      195.6051      -1065.9027    
    128000   128000         302.09152     -263.80556      26962.299      27355.209      7851.2627      19503.946      3996.7099      5886.0573      5167.8003      445.54952     -1275.5201      15688.591     -10405.242     -787.15097      102125.28      46.742408      46.742408      46.742408      1.2003389      342.43215     -1546.8104      412.96153    
    129000   129000         295.01628      195.78936      27534.493      27242.07       7667.3795      19574.691      4027.5522      5830.7204      5252.2427      439.62829     -1267.9448      15694.831     -10402.34      -784.95574      102410.89      46.785942      46.785942      46.785942      1.1969913      1270.1131     -583.90709     -98.837877    
    130000   130000         300.49108     -74.54597       27244.058      27355.146      7809.6679      19545.478      4027.7173      5878.2364      5231.27        408.36786     -1311.2912      15712.297     -10401.119     -786.72631      102180.4       46.750817      46.750817      46.750817      1.1996913     -639.12521     -197.85837      613.34567    
    131000   131000         297.7345      -234.66999      26824.311      27174.328      7738.0253      19436.303      4017.0296      5774.5863      5214.8272      433.6218      -1289.4182      15691.2       -10405.544     -786.02355      102271.76      46.764746      46.764746      46.764746      1.1986196     -1422.0479     -309.04112      1027.0791    
    132000   132000         299.48451      1237.3542      29270.498      27419.902      7783.5074      19636.395      4005.5156      5970.0427      5104.7998      449.14215     -1203.2836      15712.238     -10402.059     -783.88027      102551.39      46.807328      46.807328      46.807328      1.1953513      1175.1103      1816.8731      720.07906    
    133000   133000         302.81119     -463.42013      26725.957      27417.742      7869.9668      19547.775      3966.7882      5861.1715      5293.9569      444.68071     -1326.886       15711.398     -10403.334     -785.36404      102357.64      46.777832      46.777832      46.777832      1.1976139      440.82504     -933.87305     -897.2124     
    134000   134000         299.74386      340.48848      27776.293      27268.176      7790.2478      19477.928      4085.1712      5754.3527      5186.5113      437.69229     -1297.5071      15712.228     -10400.52      -785.60826      102325.83      46.772985      46.772985      46.772985      1.1979864     -531.62932      984.38166      568.7131     
    135000   135000         301.97897     -1672.8596      24999.922      27512.403      7848.3378      19664.065      4043.0914      5963.3978      5229.9804      448.50133     -1328.0832      15709.75      -10402.572     -780.59173      102983.43      46.872968      46.872968      46.872968      1.1903366     -2756.5364     -1172.8901     -1089.1523    
    136000   136000         298.58937      172.24284      27700.234      27443.242      7760.2431      19682.999      4008.0052      5882.7219      5260.5821      460.3106      -1212.9997      15688.077     -10403.698     -785.75562      102306.63      46.770061      46.770061      46.770061      1.1982111     -191.8772       687.23334      21.372378    
    137000   137000         302.59788     -249.33563      27113.718      27484.968      7864.4229      19620.545      4044.9753      5907.4805      5249.6394      456.93476     -1331.4588      15695.555     -10402.581     -787.38074      102095.48      46.737861      46.737861      46.737861      1.2006892     -119.06422     -467.64539     -161.29729    
    138000   138000         298.33898     -1279.1936      25399.717      27301.708      7753.7355      19547.973      4089.1661      5827.5568      5309.6232      433.29809     -1410.0457      15702.392     -10404.018     -788.48789      101952.12      46.715976      46.715976      46.715976      1.2023776     -3259.6767     -207.88279     -370.02135    
    139000   139000         299.78535      825.16538      28623.382      27392.643      7791.3261      19601.317      4102.9121      5958.3523      5118.2788      449.62993     -1340.3414      15714.063     -10401.577     -786.03592      102270.15      46.764501      46.764501      46.764501      1.1986385      708.27809      855.96864      911.24942    
    140000   140000         296.96351     -416.66319      26674.95       27297.684      7717.9875      19579.697      3980.9602      5891.9239      5206.7234      441.3537      -1244.6946      15705.156     -10401.725     -784.42177      102480.6       46.796555      46.796555      46.796555      1.1961771     -505.64269      79.78488      -824.13177    
    141000   141000         296.33171      543.42397      28037.117      27225.006      7701.5672      19523.439      4024.3181      5859.8787      5097.9595      443.58597     -1198.104       15701.327     -10405.526     -784.49621      102470.88      46.795075      46.795075      46.795075      1.1962906      302.68139      929.58466      398.00586    
    142000   142000         302.18131     -426.01542      26746.753      27381.784      7853.5963      19528.188      3901.1426      5965.8445      5251.1004      434.36392     -1329.1604      15706.636     -10401.739     -786.49814      102210.05      46.755338      46.755338      46.755338      1.1993434     -162.39922     -354.10655     -761.54049    
    143000   143000         297.96294      618.82161      28147.71       27222.677      7743.9623      19478.715      4059.6929      5908.3158      5120.5703      436.77739     -1355.8113      15707.64      -10398.47      -784.28747      102498.15      46.799226      46.799226      46.799226      1.1959723      877.48494      336.01692      642.96296    
    144000   144000         302.05216      575.23944      28250.134      27391.28       7850.2399      19541.04       4009.7237      5761.3053      5201.3212      443.64496     -1173.1501      15698.265     -10400.07      -785.22902      102375.24      46.780513      46.780513      46.780513      1.197408       170.33156     -369.71092      1925.0977    
    145000   145000         302.25639     -442.36283      26878.842      27541.903      7855.5476      19686.355      3995.0964      5895.651       5349.5545      442.58251     -1299.944       15708.914     -10405.499     -782.15445      102777.67      46.84173       46.84173       46.84173       1.1927196     -426.61661      335.14965     -1235.6215    
    146000   146000         298.55863      389.9129       27928.238      27344.169      7759.4441      19584.725      4000.8281      5999.0863      5089.9346      451.4513      -1281.3376      15729.075     -10404.313     -782.65617      102711.79      46.831718      46.831718      46.831718      1.1934847     -104.71214      223.23041      1051.2204    
    147000   147000         299.62709     -878.3474       26138.202      27449.725      7787.213       19662.512      4085.6983      5822.1027      5252.0558      451.2722      -1245.4339      15697.859     -10401.043     -785.15931      102384.33      46.781898      46.781898      46.781898      1.1973017     -1041.76       -865.51807     -727.76412    
    148000   148000         294.26143      1569.0408      29575.264      27230.633      7647.7612      19582.871      4082.5262      5961.0675      5054.1329      437.94023     -1231.2661      15683.445     -10404.974     -784.56126      102462.38      46.793782      46.793782      46.793782      1.1963898      66.340709      1438.1403      3202.6413    
    149000   149000         297.41843     -1091.9505      25727.262      27359.373      7729.8106      19629.562      4036.1487      6016.5061      5191.9398      440.1251      -1332.4475      15683.224     -10405.934     -784.36896      102487.5       46.797605      46.797605      46.797605      1.1960965     -872.60537     -1356.7023     -1046.544     
    150000   150000         299.94703     -403.61529      26689.971      27292.2        7795.5281      19496.671      4016.9428      5902.4772      5176.7716      449.06921     -1330.8133      15687.07      -10404.846     -785.73007      102309.96      46.770568      46.770568      46.770568      1.1981721     -106.61635     -878.40088     -225.82865    
    151000   151000         301.5151       1536.1823      29560.238      27272.118      7836.2818      19435.836      3980.4532      5875.9132      5184.0869      446.25679     -1327.6171      15686.397     -10409.654     -787.10232      102131.59      46.743372      46.743372      46.743372      1.2002647      927.98974      2014.2591      1666.298     
    152000   152000         301.49072      1722.4646      29960.81       27385.235      7835.6483      19549.586      4098.7334      5876.8556      5041.6423      431.45401     -1212.7919      15717.326     -10403.633     -784.04915      102529.3       46.803967      46.803967      46.803967      1.1956089      2372.7516      1786.7303      1007.9118    
    153000   153000         300.45569     -366.03323      26731.587      27279.575      7808.7482      19470.827      4034.9526      5836.0154      5182.6952      434.08782     -1315.8832      15702.221     -10403.261     -783.09815      102653.82      46.822906      46.822906      46.822906      1.1941587     -772.28358     -524.70547      198.88935    
    154000   154000         298.56262     -1126.0494      25721.865      27405.358      7759.5478      19645.81       4045.3612      5866.1934      5348.2401      439.31907     -1361.7026      15711.558     -10403.159     -784.1758       102512.74      46.801448      46.801448      46.801448      1.195802      -1664.8634     -1024.3543     -688.93044    
    155000   155000         302.64909     -201.86835      27094.038      27395.231      7865.7539      19529.477      4007.5981      5826.3663      5235.826       437.10462     -1282.936       15711.499     -10405.982     -785.76192      102305.81      46.769936      46.769936      46.769936      1.1982207     -88.871515     -1028.4455      511.71198    
    156000   156000         301.14024     -245.24887      27001.095      27367.668      7826.5393      19541.129      4111.6646      5859.6994      5171.9659      432.49525     -1338.5273      15704.789     -10400.958     -784.35729      102489.02      46.797838      46.797838      46.797838      1.1960787     -370.1367       706.3696      -1071.9795    
    157000   157000         302.84618      130.52673      27696.045      27501.669      7870.8761      19630.793      4075.7752      5862.8587      5265.886       428.4676      -1294.5338      15697.343     -10405.004     -787.27412      102109.3       46.739971      46.739971      46.739971      1.2005267     -1154.4417      151.59852      1394.4234    
    158000   158000         299.99558     -0.89607692     27278.89       27280.225      7796.7899      19483.435      3994.1081      5803.7206      5253.4331      430.63611     -1299.8557      15707.512     -10406.12      -787.12636      102128.47      46.742896      46.742896      46.742896      1.2003013     -1753.0656      2001.2698     -250.89246    
    159000   159000         300.97893     -1136.1492      25735.612      27432.134      7822.347       19609.787      3986.6133      5892.4677      5293.6091      448.62547     -1302.4568      15695.937     -10405.009     -785.1329       102387.78      46.782422      46.782422      46.782422      1.1972615     -721.90338     -1414.9246     -1271.6195    
    160000   160000         301.64305     -850.02525      26102.813      27368.193      7839.6071      19528.586      3945.7348      5857.1264      5275.2058      424.63101     -1269.0651      15702.368     -10407.416     -787.55008      102073.53      46.734511      46.734511      46.734511      1.2009475      211.44597     -2605.5277     -155.99399    
    161000   161000         297.99956     -1580.2833      24900.937      27270.975      7744.9141      19526.061      3959.9768      5842.4662      5333.8689      440.83779     -1351.8535      15703.007     -10402.242     -781.71199      102835.85      46.850566      46.850566      46.850566      1.1920449     -1550.7336     -2104.7133     -1085.403     
    162000   162000         299.29912      711.68223      28435.204      27374.301      7778.6891      19595.612      4043.1107      5898.6102      5225.4427      438.9853      -1306.1381      15700.36      -10404.759     -786.46178      102214.77      46.756058      46.756058      46.756058      1.1992879     -615.31799      1081.233       1669.1317    
    163000   163000         300.06645      330.03572      27763.745      27268.724      7798.6318      19470.092      4021.6501      5809.7424      5165.1         433.63666     -1254.2326      15698.106     -10403.911     -781.63484      102846         46.852107      46.852107      46.852107      1.1919272     -124.85998      645.18296      469.78418    
    164000   164000         304.22223      251.25401      27824.461      27449.549      7906.6391      19542.91       3980.4268      5959.6196      5134.343       433.6466      -1274.519       15716.283     -10406.89      -785.68877      102315.34      46.771387      46.771387      46.771387      1.1981091     -350.25627     -387.73766      1491.756     
    165000   165000         297.11694      50.259009      27364.951      27289.847      7721.975       19567.872      4027.6574      5881.4081      5191.3183      431.75132     -1272.6856      15715.157     -10406.734     -784.54346      102464.7       46.794136      46.794136      46.794136      1.1963626     -274.67403     -781.47674      1206.9278    
    166000   166000         302.58492     -1304.1558      25320.592      27268.951      7864.086       19404.865      3868.3392      5816.5114      5265.7682      438.65012     -1294.7145      15713.628     -10403.318     -784.74349      102438.58      46.790159      46.790159      46.790159      1.1966677     -1845.4387     -472.72372     -1594.305     
    167000   167000         299.66253     -417.07623      26850.412      27472.625      7788.1342      19684.49       4092.9532      5956.329       5178.848       445.57478     -1288.5172      15704.826     -10405.523     -785.85694      102293.44      46.768051      46.768051      46.768051      1.1983656      545.0126      -701.47424     -1094.7671    
    168000   168000         298.53513     -672.03392      26272.632      27275.04       7758.8335      19516.206      3975.4132      5920.631       5200.2704      446.40176     -1338.8329      15714.127     -10401.804     -785.98414      102276.89      46.765527      46.765527      46.765527      1.1985596     -554.69992     -1370.6292     -90.772629    
    169000   169000         301.68629     -124.70172      27155.379      27341.804      7840.7309      19501.073      4029.2453      5777.4505      5256.962       444.4412      -1297.0249      15695.015     -10405.016     -784.21428      102507.71      46.800682      46.800682      46.800682      1.1958607      140.23507     -63.185689     -451.15454    
    170000   170000         302.72916      843.68433      28677.953      27416.768      7867.835       19548.933      4119.816       5826.3608      5106.1277      446.02665     -1234.1858      15691.718     -10406.93      -784.27482      102499.8       46.799478      46.799478      46.799478      1.195953       1800.134      -90.755341      821.67436    
    171000   171000         297.12626     -1240.8578      25382.652      27231.888      7722.2173      19509.671      3929.4336      5830.4954      5250.7066      445.82564     -1248.4436      15704.406     -10402.753     -786.67763      102186.73      46.751781      46.751781      46.751781      1.1996171     -853.48859     -1073.7746     -1795.3104    
    172000   172000         303.74542      583.31348      28283.256      27414.881      7894.2471      19520.634      3937.2065      5871.7247      5257.5916      449.26623     -1294.9596      15707.063     -10407.258     -787.52024      102077.39      46.735101      46.735101      46.735101      1.200902       1213.5448      150.68434      385.71134    
    173000   173000         303.50017     -919.84959      26145.964      27518.784      7887.8731      19630.911      4058.6844      5852.753       5245.5502      459.2858      -1262.2752      15685.65      -10408.738     -785.54411      102334.18      46.774258      46.774258      46.774258      1.1978885     -2337.3351      981.62908     -1403.8427    
    174000   174000         301.94349     -293.27386      26923.842      27361.648      7847.4155      19514.233      4048.9549      5878.0113      5145.3974      428.27337     -1305.9475      15718.643     -10399.1       -785.34198      102360.52      46.77827       46.77827       46.77827       1.1975803      264.84251     -213.35272     -931.31136    
[...]
   1955000   1955000        297.35252     -684.63121      26367.234      27387.415      7728.0976      19659.318      4008.407       5947.6917      5310.9366      444.33104     -1347.1404      15697.916     -10402.824     -786.76777      102175.02      46.749996      46.749996      46.749996      1.1997545     -1331.2905     -972.52156      249.91841    
   1956000   1956000        297.77285     -968.91434      25802.22       27253.86       7739.022       19514.838      3998.2208      5894.6315      5250.1627      444.40027     -1363.4523      15697.805     -10406.93      -782.51668      102730.1       46.834501      46.834501      46.834501      1.193272      -752.94569     -614.51148     -1539.2859    
   1957000   1957000        303.60601      207.92825      27755.855      27446.115      7890.6239      19555.491      3994.7327      5835.4255      5244.1079      439.44289     -1252.2222      15694.361     -10400.358     -787.01333      102143.14      46.745133      46.745133      46.745133      1.200129       122.39769      476.63908      24.747989    
   1958000   1958000        297.76996      581.30339      28303.351      27431.066      7738.9468      19692.119      4036.777       5866.5724      5285.4409      446.64206     -1237.7991      15701.67      -10407.184     -781.28846      102891.59      46.85903       46.85903       46.85903       1.191399       1414.3706     -792.90914      1122.4487    
   1959000   1959000        302.02155     -83.675258      27288.263      27412.727      7849.4442      19563.283      4066.4589      5860.4876      5276.542       430.80871     -1373.3378      15706.214     -10403.89      -788.16625      101993.73      46.722329      46.722329      46.722329      1.2018871      766.67192     -606.36677     -411.33092    
   1960000   1960000        296.32775      569.01635      27980.353      27130.622      7701.4643      19429.158      3999.8861      5898.7127      5095.442       435.8314      -1314.4325      15716.094     -10402.376     -785.074        102395.46      46.783592      46.783592      46.783592      1.1971717      2060.8094      268.56585     -622.3262     
   1961000   1961000        300.51268     -76.97913       27268.224      27382.925      7810.2292      19572.696      4020.9544      5838.1911      5291.6056      432.01477     -1320.1798      15715.395     -10405.285     -786.81572      102168.79      46.749046      46.749046      46.749046      1.1998276     -731.56277     -444.00947      944.63486    
   1962000   1962000        297.579       -171.10442      27032.261      27286.835      7733.9837      19552.852      4083.0492      5889.9237      5195.2279      435.76418     -1333.4353      15689.016     -10406.694     -787.97712      102018.21      46.726067      46.726067      46.726067      1.2015987      105.28513      180.78806     -799.38646    
   1963000   1963000        299.8043      -405.28026      26698.924      27301.643      7791.8187      19509.825      4033.8795      5918.8016      5153.8103      422.76546     -1326.5407      15710.772     -10403.663     -788.32865      101972.72      46.719121      46.719121      46.719121      1.2021347     -42.198591     -1095.824      -77.8182      
   1964000   1964000        295.14193      618.3701       28103.759      27179.504      7670.6451      19508.859      4064.1057      5815.4064      5167.3963      427.64154     -1272.8546      15714.245     -10407.082     -784.37456      102486.77      46.797494      46.797494      46.797494      1.1961051      992.17478      707.5487       155.38681    
   1965000   1965000        300.81085      167.09973      27665.761      27416.638      7817.9786      19598.659      4030.7258      5871.3019      5236.3886      439.48122     -1261.0643      15685.659     -10403.834     -786.3718       102226.47      46.757841      46.757841      46.757841      1.1991507      168.07558      866.42058     -533.19695    
   1966000   1966000        295.09186      123.21381      27379.201      27194.556      7669.3439      19525.212      3982.731       5919.9026      5131.1097      428.25993     -1247.1651      15718.233     -10407.859     -782.32852      102754.8       46.838256      46.838256      46.838256      1.192985      -414.83099      56.603178      727.86926    
   1967000   1967000        300.61564     -1910.2935      24551.267      27412.297      7812.9052      19599.392      4008.8168      5884.5992      5326.1799      441.31526     -1361.4666      15704.592     -10404.644     -782.78916      102694.34      46.829066      46.829066      46.829066      1.1936875     -612.0503      -2904.7829     -2214.0472    
   1968000   1968000        295.46845     -223.01308      26830.76       27163.535      7679.1312      19484.403      3960.7913      5902.8871      5203.1378      439.62971     -1335.1157      15717.292     -10404.219     -785.6829       102316.1       46.771503      46.771503      46.771503      1.1981002     -149.43193     -114.51154     -405.09577    
   1969000   1969000        302.29906      365.33951      27805.832      27260.48       7856.6566      19403.823      3995.4694      5840.887       5117.7799      423.05463     -1284.8553      15714.474     -10402.986     -785.39265      102353.92      46.777264      46.777264      46.777264      1.1976576      1723.8856     -999.19552      371.32847    
   1970000   1970000        303.33723     -106.65405      27262.771      27422.064      7883.6385      19538.426      3950.9502      5847.1986      5300.3979      444.28302     -1297.426       15701.182     -10408.16      -784.95701      102410.72      46.785916      46.785916      46.785916      1.1969933      69.799432      1022.0224     -1411.784     
   1971000   1971000        301.51651      501.12508      28157.641      27409.17       7836.3184      19572.851      4037.7472      5876.281       5234.444       438.59043     -1308.0502      15700.607     -10406.769     -784.94298      102412.55      46.786195      46.786195      46.786195      1.1969719      793.06925     -153.21187      863.51786    
   1972000   1972000        301.58499      789.15822      28666.455      27487.895      7838.0983      19649.797      4068.8496      5950.8266      5181.3851      431.97046     -1283.7698      15706.199     -10405.664     -785.01844      102402.71      46.784696      46.784696      46.784696      1.1970869      1348.2535      859.52797      159.69321    
   1973000   1973000        302.00903     -1325.4631      25394.273      27379.666      7849.1188      19530.548      3922.5012      5867.6406      5335.2483      450.90267     -1325.2929      15687.802     -10408.254     -782.68729      102707.7       46.831098      46.831098      46.831098      1.1935321     -402.55544     -3192.8046     -381.0293     
   1974000   1974000        292.21467     -538.79976      26274.125      27082.346      7594.5665      19487.779      3983.9307      5873.1151      5183.0653      436.49424     -1280.092       15699.187     -10407.921     -781.56385      102855.34      46.853526      46.853526      46.853526      1.191819       246.97684     -1482.5737     -380.80246    
   1975000   1975000        302.00947     -440.10085      26755.618      27411.067      7849.1303      19561.936      4039.9796      5925.1272      5202.7062      444.71807     -1351.2546      15706.081     -10405.421     -787.19169      102120         46.741603      46.741603      46.741603      1.200401       722.09256     -950.73999     -1091.6551    
   1976000   1976000        297.79244     -458.26859      26532.845      27218.907      7739.5312      19479.376      4060.2022      5865.7726      5180.6139      444.22246     -1369.9482      15702.303     -10403.791     -783.11269      102651.91      46.822616      46.822616      46.822616      1.1941808      2804.6869     -2506.0316     -1673.4611    
   1977000   1977000        297.53748     -773.2573       26269.375      27424.729      7732.9046      19691.824      4065.9512      5916.3583      5246.6741      445.72441     -1274.1907      15698.851     -10407.544     -784.65074      102450.69      46.792003      46.792003      46.792003      1.1965262     -1214.7146     -1250.5604      145.50313    
   1978000   1978000        295.31173     -393.12542      26576.568      27163.304      7675.0582      19488.246      4000.4547      5906.4839      5292.8353      438.19968     -1443.5478      15697.741     -10403.921     -785.5173       102337.67      46.77479       46.77479       46.77479       1.1978477     -89.349407     -417.26137     -672.76547    
   1979000   1979000        299.01219      371.10651      27938.461      27385.872      7771.2319      19614.641      4087.9227      5890.784       5184.0104      431.3321      -1263.5823      15689.186     -10405.012     -787.34315      102100.35      46.738605      46.738605      46.738605      1.2006319      1376.4255     -253.58616     -9.5198002    
   1980000   1980000        301.1829      -714.44423      26238.225      27301.986      7827.6481      19474.338      4059.7014      5771.1467      5278.7276      428.30314     -1345.2042      15688.888     -10407.224     -787.39305      102093.88      46.737618      46.737618      46.737618      1.200708       560.46328     -1827.0176     -876.77832    
   1981000   1981000        299.64298     -202.21137      27064.168      27366.923      7787.6261      19579.297      4072.3873      5907.8566      5189.4864      442.88054     -1308.1303      15685.642     -10410.825     -783.03449      102662.16      46.824175      46.824175      46.824175      1.1940616     -32.65119      -103.66991     -470.31301    
   1982000   1982000        300.31121      876.51036      28701.753      27391.009      7804.9932      19586.015      4076.4619      5884.364       5180.2725      445.23402     -1299.3807      15707.487     -10408.423     -783.98194      102538.09      46.805305      46.805305      46.805305      1.1955064      1344.4629      766.1763       518.89193    
   1983000   1983000        301.88762      718.064        28547.158      27475.294      7845.9635      19629.331      4166.9711      5866.4028      5174.2975      456.96173     -1329.6136      15701.207     -10406.896     -785.40002      102352.95      46.777118      46.777118      46.777118      1.1976688      1515.2467      633.04815      5.8971455    
   1984000   1984000        299.97378     -857.31633      26087.125      27365.947      7796.2233      19569.724      3999.8141      5901.6813      5206.4192      438.61804     -1290.171       15719.837     -10406.475     -785.95575      102280.58      46.76609       46.76609       46.76609       1.1985163     -598.46552     -1656.2955     -317.18802    
   1985000   1985000        298.6616      -335.02905      26766.166      27265.819      7762.1203      19503.699      3967.2005      5847.1394      5345.8658      451.31606     -1410.0442      15707.024     -10404.803     -786.1051       102261.15      46.763129      46.763129      46.763129      1.198744       856.50252     -1612.5788     -249.01091    
   1986000   1986000        302.98093      917.69328      28870.596      27506.747      7874.3783      19632.369      4044.125       5869.089       5286.854       458.14727     -1316.3805      15697.176     -10406.642     -788.85746      101904.36      46.708679      46.708679      46.708679      1.2029411      1269.0331      345.01819      1139.0285    
   1987000   1987000        295.85921     -111.56903      27052.27       27217.903      7689.2871      19528.616      4034.9811      5893.1357      5221.5362      431.94935     -1340.2698      15695.374     -10408.09      -789.70308      101795.24      46.692001      46.692001      46.692001      1.2042306      520.21202     -457.53726     -397.38185    
   1988000   1988000        296.1916      -1504.2907      24984.988      27227.135      7697.9258      19529.209      3990.3866      5888.1634      5279.2123      453.35939     -1393.8566      15714.335     -10402.391     -786.56529      102201.32      46.754007      46.754007      46.754007      1.1994458     -1987.3435     -518.90048     -2006.6281    
   1989000   1989000        299.85002     -1309.6938      25387.678      27350.893      7793.0069      19557.886      3983.8667      5866.6059      5272.0943      432.47195     -1284.2545      15696.954     -10409.853     -782.1125       102783.18      46.842567      46.842567      46.842567      1.1926556     -1174.2741     -1743.3495     -1011.4579    
   1990000   1990000        301.28447     -1234.2478      25477.854      27329.379      7830.2879      19499.092      3964.6303      5863.5468      5331.2033      436.56582     -1380.0482      15688.735     -10405.541     -781.51982      102861.13      46.854405      46.854405      46.854405      1.1917518      179.61886     -1987.6913     -1894.6711    
   1991000   1991000        299.88439      209.77523      27711.419      27399.008      7793.9003      19605.108      4117.3083      5925.4284      5135.248       445.65878     -1313.258       15698.231     -10403.508     -787.21905      102116.45      46.741061      46.741061      46.741061      1.2004427      894.89154      157.23218     -422.79802    
   1992000   1992000        300.04782      247.50259      27621.156      27251.558      7798.1478      19453.41       3984.1864      5849.6706      5187.5346      440.20136     -1291.0357      15693.606     -10410.753     -785.08574      102393.93      46.783359      46.783359      46.783359      1.1971896      555.71342      736.73936     -549.94501    
   1993000   1993000        302.2404      -1481.0631      25232.42       27451.541      7855.1321      19596.409      4021.6489      5846.1386      5347.2149      429.18551     -1344.9208      15705.432     -10408.29      -782.45541      102738.14      46.835723      46.835723      46.835723      1.1931785     -1230.8731     -1465.4572     -1746.8589    
   1994000   1994000        301.27568      194.73252      27628.422      27338.004      7830.0594      19507.944      4057.5036      5828.154       5186.641       425.98912     -1277.1991      15697.208     -10410.352     -786.10779      102260.8       46.763075      46.763075      46.763075      1.1987481      1462.2125      466.98        -1344.995     
   1995000   1995000        297.48326     -1546.4198      24990.503      27291.464      7731.4955      19559.968      4065.6479      5908.8676      5304.2228      427.63179     -1444.542       15704.654     -10406.513     -787.92583      102024.85      46.727081      46.727081      46.727081      1.2015205     -889.14343     -2283.5865     -1466.5296    
   1996000   1996000        302.49671      491.73058      28162.491      27428.239      7861.7935      19566.445      4052.2761      5934.3765      5161.4932      443.61775     -1319.7172      15698.082     -10403.683     -785.14406      102386.32      46.782201      46.782201      46.782201      1.1972785      278.25005      809.83025      387.11143    
   1997000   1997000        298.34099     -51.481396      27177.725      27254.544      7753.7876      19500.757      4031.9676      5910.5388      5108.2073      435.56336     -1300.6963      15716.917     -10401.741     -785.68551      102315.76      46.771452      46.771452      46.771452      1.1981042      572.04743     -705.28856     -21.203057    
   1998000   1998000        297.99652     -1130.9412      25708.598      27403.683      7744.835       19658.848      4062.5968      5945.0571      5236.9254      442.84494     -1320.9449      15697.156     -10404.787     -782.19631      102772.17      46.840894      46.840894      46.840894      1.1927834     -1710.2222     -1613.8404     -68.761043    
   1999000   1999000        299.17352      1404.2868      29349.28       27256.582      7775.4249      19481.157      4134.1323      5800.194       5063.2505      432.84608     -1259.2286      15718.134     -10408.172     -786.7132       102182.11      46.751077      46.751077      46.751077      1.1996713      1242.4713      929.54076      2040.8484    
   2000000   2000000        299.32228     -650.70343      26412.852      27384.429      7779.2912      19605.138      4114.9121      5869.8544      5211.5417      431.98282     -1323.1161      15704.676     -10404.714     -785.18672      102380.76      46.781354      46.781354      46.781354      1.1973435     -31.97499      -2399.3441      479.20884    
Loop time of 9337.44 on 1 procs for 2000000 steps with 8720 atoms

Performance: 18.506 ns/day, 1.297 hours/ns, 214.192 timesteps/s, 1.868 Matom-step/s
100.0% CPU use with 1 MPI tasks x 1 OpenMP threads

MPI task timing breakdown:
Section |  min time  |  avg time  |  max time  |%varavg| %total
---------------------------------------------------------------
Pair    | 4588.9     | 4588.9     | 4588.9     |   0.0 | 49.15
Bond    | 1426.9     | 1426.9     | 1426.9     |   0.0 | 15.28
Kspace  | 2026.9     | 2026.9     | 2026.9     |   0.0 | 21.71
Neigh   | 340.25     | 340.25     | 340.25     |   0.0 |  3.64
Comm    | 54.815     | 54.815     | 54.815     |   0.0 |  0.59
Output  | 35.517     | 35.517     | 35.517     |   0.0 |  0.38
Modify  | 589.45     | 589.45     | 589.45     |   0.0 |  6.31
Other   |            | 274.7      |            |       |  2.94

Nlocal:           8720 ave        8720 max        8720 min
Histogram: 1 0 0 0 0 0 0 0 0 0
Nghost:          20087 ave       20087 max       20087 min
Histogram: 1 0 0 0 0 0 0 0 0 0
Neighs:              0 ave           0 max           0 min
Histogram: 1 0 0 0 0 0 0 0 0 0
FullNghs:  4.72616e+06 ave 4.72616e+06 max 4.72616e+06 min
Histogram: 1 0 0 0 0 0 0 0 0 0

Total # of neighbors = 4726162
Ave neighs/atom = 541.99106
Ave special neighs/atom = 5.6385321
Neighbor list builds = 49354
Dangerous builds = 0

# --- Cleanup ---
unfix npt_fix

undump dump_npt

# --- Write Output ---
write_dump all custom npt_prod300_last.dump id type mol x y z xu yu zu vx vy vz modify sort id
write_data /home/arz2/PolyJarvis/data/PEEK3/lammps/npt_prod300/npt_prod300_out.data
System init for write_data ...
PPPM Kokkos initialization ...
  using 12-bit tables for long-range coulomb
  G vector (1/distance) = 0.30701697
  grid = 36 36 36
  stencil order = 5
  estimated absolute RMS force accuracy = 0.0003766626
  estimated relative force accuracy = 1.1343082e-06
  using double precision cuFFT
  3d grid and FFT values/proc = 79507 46656
Generated 21 of 21 mixed pair_coeff terms from sixthpower/sixthpower mixing rule

print "STAGE COMPLETE: NPT T=300.0->300.0K P=1.0->1.0atm steps=2000000"
STAGE COMPLETE: NPT T=300.0->300.0K P=1.0->1.0atm steps=2000000
quit
|   0.0 |  6.31
Other   |            | 274.7      |            |       |  2.94

Nlocal:           8720 ave        8720 max        8720 min
Histogram: 1 0 0 0 0 0 0 0 0 0
Nghost:          20087 ave       20087 max       20087 min
Histogram: 1 0 0 0 0 0 0 0 0 0
Neighs:              0 ave           0 max           0 min
Histogram: 1 0 0 0 0 0 0 0 0 0
FullNghs:  4.72616e+06 ave 4.72616e+06 max 4.72616e+06 min
Histogram: 1 0 0 0 0 0 0 0 0 0

Total # of neighbors = 4726162
Ave neighs/atom = 541.99106
Ave special neighs/atom = 5.6385321
Neighbor list builds = 49354
Dangerous builds = 0
System init for write_data ...
PPPM Kokkos initialization ...
  using 12-bit tables for long-range coulomb
  G vector (1/distance) = 0.30701697
  grid = 36 36 36
  stencil order = 5
  estimated absolute RMS force accuracy = 0.0003766626
  estimated relative force accuracy = 1.1343082e-06
  using double precision cuFFT
  3d grid and FFT values/proc = 79507 46656
Generated 21 of 21 mixed pair_coeff terms from sixthpower/sixthpower mixing rule
STAGE COMPLETE: NPT T=300.0->300.0K P=1.0->1.0atm steps=2000000
