units real
atom_style full
boundary p p p

# --- Force Field Styles ---
pair_style lj/class2/coul/long 9.5 9.5
kspace_style pppm 1e-4
dielectric 1.000000
bond_style class2
angle_style class2
dihedral_style class2
improper_style class2
special_bonds lj/coul 0 0 1
pair_modify mix sixthpower tail yes
neighbor 2.0 bin
neigh_modify delay 0 every 1 check yes
neigh_modify one 4000
package gpu 1 neigh no

read_data /home/arz2/PolyJarvis/data/PMMA1/lammps/npt_cool300/npt_cool300_out.data
Reading data file ...
  orthogonal box = (4.4928233 4.4928233 4.4928233) to (43.550159 43.550159 43.550159)
  2 by 2 by 2 MPI processor grid
  reading atoms ...
  6020 atoms
  reading velocities ...
  6020 velocities
  scanning bonds ...
  4 = max bonds/atom
  scanning angles ...
  6 = max angles/atom
  scanning dihedrals ...
  32 = max dihedrals/atom
  scanning impropers ...
  4 = max impropers/atom
  orthogonal box = (4.4928233 4.4928233 4.4928233) to (43.550159 43.550159 43.550159)
  2 by 2 by 2 MPI processor grid
  reading bonds ...
  6010 bonds
  reading angles ...
  11200 angles
  reading dihedrals ...
  15110 dihedrals
  reading impropers ...
  6800 impropers
Finding 1-2 1-3 1-4 neighbors ...
  special bond factors lj:    0        0        1       
  special bond factors coul:  0        0        1       
     4 = max # of 1-2 neighbors
    11 = max # of 1-3 neighbors
    15 = max # of special neighbors
  special bonds CPU = 0.062 seconds
  read_data CPU = 0.411 seconds
include /home/arz2/PolyJarvis/data/PMMA1/lammps/emc_build.params
# LAMMPS parameters created by EMC v9.4.4, build Jul 31 2025 20:33:44

# Variables

variable	seed		index	-1
variable	ntotal		index	6020
variable	fshape		index	1
variable	out
CITE-CITE-CITE-CITE-CITE-CITE-CITE-CITE-CITE-CITE-CITE-CITE-CITE

Your simulation uses code contributions which should be cited:
- GPU package (short-range, long-range and three-body potentials): doi:10.1016/j.cpc.2010.12.021, doi:10.1016/j.cpc.2011.10.012, doi:10.1016/j.cpc.2013.08.002, doi:10.1016/j.commatsci.2014.10.068, doi:10.1016/j.cpc.2016.10.020, doi:10.3233/APC200086
The log file lists these citations in BibTeX format.

CITE-CITE-CITE-CITE-CITE-CITE-CITE-CITE-CITE-CITE-CITE-CITE-CITE

PPPM initialization ...
  using 12-bit tables for long-range coulomb
  G vector (1/distance) = 0.24511599
  grid = 15 15 15
  stencil order = 5
  estimated absolute RMS force accuracy = 0.028296694
  estimated relative force accuracy = 8.5214654e-05
  using double precision KISS FFT
  3d grid and FFT values/proc = 2197 512

--------------------------------------------------------------------------
- Using acceleration for pppm:
-  with 8 proc(s) per device.
-  with 1 thread(s) per proc.
-  Horizontal vector operations: ENABLED
-  Shared memory system: No
--------------------------------------------------------------------------
Device 0: Quadro RTX 6000, 72 CUs, 16/24 GB, 1.8 GHZ (Mixed Precision)
--------------------------------------------------------------------------

Initializing Device and compiling on process 0...Done.
Initializing Device 0 on core 0...Done.
Initializing Device 0 on core 1...Done.
Initializing Device 0 on core 2...Done.
Initializing Device 0 on core 3...Done.
Initializing Device 0 on core 4...Done.
Initializing Device 0 on core 5...Done.
Initializing Device 0 on core 6...Done.
Initializing Device 0 on core 7...Done.


--------------------------------------------------------------------------
- Using acceleration for lj/class2/coul/long:
-  with 8 proc(s) per device.
-  with 1 thread(s) per proc.
-  Horizontal vector operations: ENABLED
-  Shared memory system: No
--------------------------------------------------------------------------
Device 0: Quadro RTX 6000, 72 CUs, 16/24 GB, 1.8 GHZ (Mixed Precision)
--------------------------------------------------------------------------

Initializing Device and compiling on process 0...Done.
Initializing Device 0 on core 0...Done.
Initializing Device 0 on core 1...Done.
Initializing Device 0 on core 2...Done.
Initializing Device 0 on core 3...Done.
Initializing Device 0 on core 4...Done.
Initializing Device 0 on core 5...Done.
Initializing Device 0 on core 6...Done.
Initializing Device 0 on core 7...Done.

Generated 15 of 15 mixed pair_coeff terms from sixthpower/sixthpower mixing rule
Neighbor list info ...
  update: every = 1 steps, delay = 0 steps, check = yes
  max neighbors/atom: 4000, page size: 100000
  master list distance cutoff = 11.5
  ghost atom cutoff = 11.5
  binsize = 5.75, bins = 7 7 7
  1 neighbor lists, perpetual/occasional/extra = 1 0 0
  (1) pair lj/class2/coul/long/gpu, perpetual
      attributes: full, newton on
      pair build: full/bin
      stencil: full/bin/3d
      bin: standard
Setting up Verlet run ...
  Unit style    : real
  Current step  : 0
  Time step     : 1
Per MPI rank memory allocation (min/avg/max) = 23.78 | 24.02 | 24.17 Mbytes
   Step          Time           Temp          Press         Enthalpy        TotEng         KinEng         PotEng         E_bond        E_angle        E_dihed        E_impro         E_vdwl         E_coul         E_long         E_tail         Volume           Lx             Ly             Lz          Density          Pxx            Pyy            Pzz      
         0   0              301.29284      294.07755      22155.7        21900.168      5405.6441      16494.524      3040.7694      5292.7018     -1551.1812      163.09652     -222.93352      27991.847     -18219.777     -421.82022      59581.009      39.057336      39.057336      39.057336      1.1166917      14.336386      191.22238      676.67387    
      1000   1000           298.97941      405.28263      22121.308      21769.026      5364.1378      16404.888      2972.5558      5358.2289     -1561.3913      162.13009     -315.46555      28005.278     -18216.448     -421.67556      59601.449      39.061802      39.061802      39.061802      1.1163087     -475.33416      409.57654      1281.6055    
      2000   2000           298.36647     -2340.2533      19813.151      21854.67       5353.1407      16501.529      3076.7808      5325.7926     -1550.3864      159.69259     -286.39406      27991.867     -18215.823     -420.16581      59815.61       39.108532      39.108532      39.108532      1.1123119     -818.94919     -1519.7974     -4682.0134    
      3000   3000           302.66837      701.55604      22492.433      21876.809      5430.3232      16446.485      3002.1666      5307.2037     -1545.0738      167.92459     -294.30058      28021.856     -18213.291     -417.69354      60169.651      39.185539      39.185539      39.185539      1.105767       483.99757     -191.21931      1811.8899    
      4000   4000           297.83231      1066.1013      22707.34       21775.095      5343.5571      16431.538      3060.6063      5343.8889     -1624.8318      165.79209     -289.25474      27997.063     -18221.726     -419.15969      59959.188      39.139798      39.139798      39.139798      1.1096484     -8.8160665      1514.9277      1692.1924    
      5000   5000           302.46556      1724.1891      23483.233      21978.11       5426.6846      16551.426      3097.0946      5302.7404     -1555.9399      163.41936     -246.53695      28009.937     -18219.289     -419.87899      59856.47       39.117435      39.117435      39.117435      1.1115526      776.70745      1515.4583      2880.4016    
      6000   6000           301.05984     -81.452358      21733.135      21804.183      5401.4638      16402.72       3077.2084      5337.6315     -1603.6299      156.74521     -357.56175      28009.085     -18216.759     -420.20264      59810.367      39.107389      39.107389      39.107389      1.1124094      1146.4784     -1103.7779     -287.05757    
      7000   7000           295.51168     -743.89768      21008.909      21657.18       5301.9215      16355.258      3029.7254      5229.8717     -1605.3836      157.54209     -241.00188      28000.271     -18215.766     -420.59864      59754.055      39.095112      39.095112      39.095112      1.1134578     -397.70428     -1601.0417     -232.94704    
      8000   8000           297.35421      512.39927      22249.385      21804.01       5334.9793      16469.031      3032.4517      5294.1793     -1554.1731      159.68925     -237.05792      27995.578     -18221.637     -421.69008      59599.396      39.061353      39.061353      39.061353      1.1163471      1194.3294      478.1294      -135.26096    
      9000   9000           287.6778      -941.39436      20674.451      21493.428      5161.37        16332.058      2990.2084      5258.8238     -1577.5474      157.97955     -289.87443      28011.42      -18218.951     -421.3188       59651.917      39.072824      39.072824      39.072824      1.1153642      179.95065     -1506.023      -1498.1107    
     10000   10000          300.60132     -809.30752      21134.541      21836.382      5393.2372      16443.144      3009.5413      5316.5498     -1529.9252      161.58455     -289.51277      27989.436     -18214.529     -422.65536      59463.281      39.031594      39.031594      39.031594      1.1189025     -881.13808     -438.94142     -1107.843     
     11000   11000          300.52039      27.328949      21784.995      21761.129      5391.7853      16369.343      2991.6996      5326.9821     -1575.8077      150.50888     -308.21947      28003.41      -18219.23      -419.70782      59880.882      39.122752      39.122752      39.122752      1.1110995     -429.64848      647.44631     -135.81098    
     12000   12000          298.38901     -695.90465      21233.144      21838.548      5353.5451      16485.003      3057.0854      5313.0232     -1518.8587      163.27604     -314.30245      28004.891     -18220.111     -421.32304      59651.317      39.072693      39.072693      39.072693      1.1153755      102.2401      -1243.7114     -946.2427     
     13000   13000          300.50569     -430.79853      21400.738      21774.46       5391.5216      16382.938      3054.5005      5238.7303     -1556.806       158.75557     -298.46685      27999.848     -18213.623     -422.5095       59483.809      39.036085      39.036085      39.036085      1.1185164     -615.20362     -136.80431     -540.38765    
     14000   14000          297.01275     -449.78509      21283.7        21674.605      5328.8531      16345.751      3069.2665      5241.0256     -1567.6454      165.59604     -359.59517      28014.722     -18217.618     -421.74062      59592.255      39.059793      39.059793      39.059793      1.1164809     -815.61062     -276.09537     -257.64927    
     15000   15000          293.69401     -1147.9614      20713.971      21710.771      5269.3099      16441.461      3070.1682      5329.9915     -1588.0159      170.88392     -321.73688      27997.622     -18217.451     -422.11453      59539.467      39.048257      39.048257      39.048257      1.1174708     -3377.8026     -1568.0368      1501.9552    
     16000   16000          301.70582     -1320.2057      20734.65       21878.798      5413.0536      16465.744      3107.8908      5253.999      -1519.5978      146.56896     -291.28123      27987.848     -18219.684     -422.93219      59424.358      39.023076      39.023076      39.023076      1.1196354     -837.00673     -969.40499     -2154.2053    
     17000   17000          295.68893      1019.2094      22579.828      21692.711      5305.1016      16387.61       2977.2131      5321.7423     -1575.7832      156.72147     -294.82504      28017.402     -18214.861     -421.10833      59681.731      39.079332      39.079332      39.079332      1.1148071     -291.54265      1906.244       1442.9268    
     18000   18000          299.92596      1076.6322      22730.503      21795.546      5381.1203      16414.426      3008.0541      5294.6504     -1577.0452      164.67506     -250.29518      27992.314     -18217.927     -422.07266      59545.373      39.049548      39.049548      39.049548      1.11736       -324.14777      909.97854      2644.0659    
     19000   19000          303.39814      546.50444      22432.104      21957.981      5443.4165      16514.564      3005.2155      5330.5499     -1511.9745      170.95473     -282.40927      28018.832     -18216.604     -422.4869       59486.991      39.036781      39.036781      39.036781      1.1184566      552.4976       26.386938      1060.6288    
     20000   20000          298.07481      239.99547      21891.572      21682.806      5347.9079      16334.898      2960.7006      5300.3097     -1568.3198      155.17738     -285.07748      27989.436     -18217.328     -421.36184      59645.824      39.071494      39.071494      39.071494      1.1154782      246.6307       467.50507      5.8506435    
     21000   21000          305.15056      152.72883      22004.815      21871.981      5474.8574      16397.124      3075.5148      5257.195      -1578.3155      163.68449     -315.52736      28007.866     -18213.293     -421.42839      59636.406      39.069437      39.069437      39.069437      1.1156544      86.855374      557.50699     -186.17587    
     22000   22000          295.84763     -1134.9645      20733.154      21727.455      5307.9489      16419.506      3020.8138      5312.5297     -1514.1907      168.02456     -337.03171      27985.245     -18215.885     -418.38458      60070.269      39.163953      39.163953      39.163953      1.1075964     -2095.8898     -862.23789     -446.76564    
     23000   23000          293.29378      416.22181      21974.111      21612.906      5262.1291      16350.776      2983.5447      5251.9204     -1591.8546      167.30059     -260.15844      28016.165     -18216.141     -422.35893      59505.015      39.040723      39.040723      39.040723      1.1181178     -1884.147       413.42103      2719.3914    
     24000   24000          295.98298      537.83785      22253.354      21786.796      5310.3774      16476.419      3063.2946      5291.1886     -1536.3422      158.67147     -282.37173      27998.172     -18216.194     -422.52902      59481.061      39.035484      39.035484      39.035484      1.1185681     -426.44616      803.65512      1236.3046    
     25000   25000          298.64899      11.769895      21814.255      21803.949      5358.2096      16445.74       3117.3812      5280.1878     -1590.8706      152.07671     -318.12562      28019.026     -18213.935     -418.62184      60036.223      39.156553      39.156553      39.156553      1.1082245     -1090.882       2067.6544     -941.46272    
     26000   26000          300.98885     -42.593283      21791.163      21828.295      5400.1902      16428.105      3044.8568      5361.191      -1609.2291      167.41824     -324.72502      28004.571     -18215.978     -420.43804      59776.879      39.100089      39.100089      39.100089      1.1130326     -1135.725       40.777194      967.16792    
     27000   27000          299.37102      629.93186      22204.606      21659.159      5371.1639      16287.995      2905.3109      5242.2184     -1543.9573      156.7559      -272.54094      28015.386     -18215.178     -423.30313      59372.285      39.011674      39.011674      39.011674      1.1206174      985.94797      630.08813      273.75949    
     28000   28000          301.18207      1252.3564      22905.207      21813.114      5403.6568      16409.457      3030.0273      5213.5676     -1567.6002      149.19268     -197.74151      28000.458     -18218.447     -420.31938      59793.755      39.103768      39.103768      39.103768      1.1127185      945.68994      890.227        1921.1522    
     29000   29000          301.12149     -437.59305      21480.689      21861.814      5402.57        16459.244      3079.0575      5365.763      -1566.3259      175.03072     -368.7267       27994.444     -18219.999     -420.83796      59720.074      39.0877        39.0877        39.0877        1.1140913     -1280.5326     -903.24558      870.99902    
     30000   30000          299.80939     -433.15808      21391.232      21767.994      5379.0289      16388.965      3003.9825      5312.484      -1569.9307      157.77914     -288.22519      27991.593     -18218.718     -421.3961       59640.975      39.070435      39.070435      39.070435      1.1155689     -728.0886      -740.03545      168.6498     
     31000   31000          304.40277      19.291834      21799.446      21782.643      5461.441       16321.202      3011.8529      5309.9777     -1580.6587      162.31395     -323.56348      27960.318     -18219.038     -420.8326       59720.836      39.087866      39.087866      39.087866      1.1140771      2419.2801     -1114.7245     -1246.6801    
     32000   32000          298.83976      365.02915      21921.718      21603.894      5361.6322      16242.262      3003.6117      5198.644      -1596.9101      160.71617     -296.28583      27992.074     -18219.588     -420.97031      59701.299      39.083603      39.083603      39.083603      1.1144417     -1653.523       1217.9332      1530.6773    
     33000   33000          305.91376      892.82846      22602.893      21825.77       5488.5505      16337.219      2942.6474      5271.4259     -1565.3651      162.40868     -265.50774      28010.011     -18218.401     -421.10389      59682.36       39.07947       39.07947       39.07947       1.1147953      1990.9945      817.51812     -130.02718    
     34000   34000          300.48385     -270.20386      21504.981      21741.566      5391.1297      16350.436      2987.4288      5312.1834     -1586.2889      166.27712     -305.20556      27992.558     -18216.517     -418.61564      60037.112      39.156746      39.156746      39.156746      1.1082081     -479.82145      225.96066     -556.75077    
     35000   35000          299.13115     -392.53288      21406.917      21750.438      5366.8603      16383.578      3049.442       5250.2957     -1594.6314      162.05466     -269.91165      28002.684     -18216.355     -418.82562      60007.012      39.150201      39.150201      39.150201      1.108764      -23.644555     -96.027471     -1057.9266    
     36000   36000          300.17143     -863.08756      21085.446      21842.571      5385.5244      16457.046      3012.9737      5374.41       -1598.2718      160.48072     -270.89086      27994.859     -18216.515     -417.82908      60150.132      39.181302      39.181302      39.181302      1.1061258     -1866.5243     -1145.0472      422.30886    
     37000   37000          300.47028      510.5528       22264.367      21819.565      5390.8863      16428.679      2986.1284      5266.6151     -1525.2023      172.08932     -252.56427      28000.772     -18219.159     -420.71219      59737.928      39.091594      39.091594      39.091594      1.1137583     -394.78023      1130.9974      795.44119    
     38000   38000          297.03389     -764.4193       20976.801      21641.382      5329.2323      16312.15       2953.184       5309.8196     -1554.2298      172.70616     -334.58405      27977.72      -18212.466     -421.59427      59612.941      39.064312      39.064312      39.064312      1.1160935     -1961.6091     -132.40618     -199.24267    
     39000   39000          297.36869      2271.0521      23687.648      21717.808      5335.2391      16382.569      2967.8861      5249.4195     -1571.9288      164.72168     -234.64081      28020.16      -18213.049     -422.57835      59474.117      39.033965      39.033965      39.033965      1.1186987      906.36869      3746.2096      2160.5779    
     40000   40000          301.46479      638.89766      22400.362      21844.519      5408.7293      16435.79       2971.0378      5297.982      -1557.5195      161.38565     -241.83323      28017.753     -18213.017     -421.29905      59654.714      39.073435      39.073435      39.073435      1.115312       1545.5825     -71.883067      442.9936     
     41000   41000          299.05008     -751.95938      21019.461      21676.91       5365.4057      16311.504      3044.0855      5200.6762     -1553.09        163.67058     -324.15236      27996.3       -18215.985     -419.22174      59950.312      39.137867      39.137867      39.137867      1.1098127     -147.65075     -1248.5903     -859.63703    
     42000   42000          302.42593     -825.51819      21129.775      21851.072      5425.9735      16425.099      3034.9558      5308.2078     -1557.3222      168.61547     -293.88606      27981.816     -18217.288     -419.49197      59911.694      39.129461      39.129461      39.129461      1.110528      -191.71911     -634.95051     -1649.885     
     43000   43000          300.11413     -1379.6737      20668.402      21876.094      5384.4964      16491.598      3017.8845      5296.9105     -1528.7683      165.96918     -241.76866      27999.311     -18217.94      -418.72737      60021.093      39.153263      39.153263      39.153263      1.1085039     -2698.6444     -672.46981     -767.90696    
     44000   44000          301.13257     -31.310389      21740.523      21767.769      5402.7687      16365          3023.6641      5255.0321     -1570.3292      163.29991     -297.80468      28003.023     -18211.885     -421.20559      59667.95       39.076324      39.076324      39.076324      1.1150645     -120.30889     -1412.4522      1438.8299    
     45000   45000          294.97953      850.69178      22452.136      21712.053      5292.3739      16419.679      3061.8185      5310.7151     -1597.8061      152.84068     -308.95301      28014.513     -18213.449     -421.31086      59653.041      39.07307       39.07307       39.07307       1.1153432     -673.70002      2492.1528      733.62252    
     46000   46000          301.90734      727.25323      22534.089      21901.181      5416.6693      16484.511      2948.1665      5369.6208     -1548.6024      162.33973     -234.56009      27999.452     -18211.905     -421.16887      59673.153      39.07746       39.07746       39.07746       1.1149673     -324.93629      1331.8785      1174.8175    
     47000   47000          301.09945      1222.3043      22816.805      21754.02       5402.1745      16351.846      2941.5216      5311.9022     -1548.269       149.9007      -284.60832      27997.986     -18216.587     -421.54627      59619.728      39.065795      39.065795      39.065795      1.1159664     -667.61217      1144.6984      3189.8266    
     48000   48000          300.89692      1149.1513      22645.212      21648.762      5398.5408      16250.221      2926.5508      5242.5708     -1626.8058      183.30965     -250.78524      27992.101     -18216.72      -422.70049      59456.933      39.030205      39.030205      39.030205      1.119022       1839.1166      1482.9711      125.36632    
     49000   49000          300.6967      -390.25095      21522.645      21861.801      5394.9485      16466.853      2992.7732      5340.4797     -1473.2511      155.34465     -331.71809      27997.705     -18214.48      -421.74961      59590.984      39.059516      39.059516      39.059516      1.1165047     -905.07272     -222.53517     -43.144971    
     50000   50000          296.92417     -1780.9425      20108.127      21665.409      5327.2637      16338.146      3027.3798      5246.7611     -1587.3898      166.05635     -288.05118      27990.188     -18216.799     -419.17334      59957.234      39.139373      39.139373      39.139373      1.1096845     -2306.3707     -1341.5237     -1694.9332    
     51000   51000          302.17377     -120.80632      21692.832      21797.962      5421.4493      16376.513      2944.0657      5312.4172     -1534.7571      169.49095     -289.09358      27987.737     -18213.347     -421.18542      59670.807      39.076948      39.076948      39.076948      1.1150112     -446.75759      1080.5405     -996.20187    
     52000   52000          297.7254      -2310.632       19743.802      21763.961      5341.639       16422.322      2996.8309      5354.59       -1548.0285      162.1709      -325.02525      27997.579     -18215.795     -419.23392      59948.57       39.137488      39.137488      39.137488      1.1098449     -2587.6127     -2376.0779     -1968.2053    
     53000   53000          299.53257     -558.90955      21429.175      21916.336      5374.0623      16542.273      3076.7206      5347.2253     -1573.1655      166.18035     -260.14632      28001.631     -18216.172     -420.514        59766.081      39.097735      39.097735      39.097735      1.1132337      25.509872      304.31727     -2006.5558    
     54000   54000          298.96465      19.388137      21835.06       21818.106      5363.873       16454.233      3074.443       5234.1449     -1560.4728      152.19788     -226.14309      27998.474     -18218.411     -419.1749       59957.011      39.139324      39.139324      39.139324      1.1096887     -55.628836     -6.0278605      119.82111    
     55000   55000          303.28567     -277.62867      21616.699      21857.748      5441.3986      16416.35       2945.9576      5303.7653     -1529.5746      184.95139     -274.59135      28002.916     -18217.075     -422.15215      59534.162      39.047097      39.047097      39.047097      1.1175704     -1883.3493      584.18309      466.28022    
     56000   56000          301.64899     -803.60232      21165.548      21871.956      5412.0341      16459.922      3004.6618      5258.3208     -1568.9212      171.36742     -188.7828       27995.932     -18212.657     -416.96223      60275.182      39.208435      39.208435      39.208435      1.103831       14.423285     -1185.3809     -1239.8494    
     57000   57000          300.16229     -689.16214      21292.621      21896.97       5385.3605      16511.609      3045.1836      5346.6714     -1586.4469      160.75653     -215.86591      27978.761     -18217.451     -417.96965      60129.903      39.176909      39.176909      39.176909      1.106498       817.81324     -904.51187     -1980.7878    
     58000   58000          306.57463      636.43834      22292.921      21738.022      5500.4075      16237.614      2937.0632      5280.6932     -1609.831       162.79651     -323.59231      28008.548     -18218.063     -420.39105      59783.562      39.101546      39.101546      39.101546      1.1129082      1903.3456      483.65747     -477.68805    
     59000   59000          307.69456     -60.153388      21892.885      21944.931      5520.5006      16424.43       2950.2616      5399.2233     -1581.9679      169.19263     -285.23969      27990.501     -18217.54      -423.63302      59326.051      39.001545      39.001545      39.001545      1.1214907      841.96439     -301.6464      -720.77815    
     60000   60000          298.46181     -310.65672      21474.999      21745.919      5354.8513      16391.068      3009.6604      5265.4901     -1588.9982      175.4995      -269.70395      28012.702     -18213.582     -420.29096      59797.799      39.10465       39.10465       39.10465       1.1126432      6.1152004     -1545.7663      607.68096    
     61000   61000          302.98886     -631.88863      21319.781      21873.438      5436.0734      16437.364      3094.2203      5303.2345     -1577.1106      167.28008     -327.5475       27992.545     -18215.257     -418.32242      60079.196      39.165893      39.165893      39.165893      1.1074319     -2215.8415      1058.0252     -737.84961    
     62000   62000          297.18135     -324.70069      21490.063      21773.179      5331.8779      16441.301      3025.1024      5339.0812     -1605.0689      163.67844     -271.83962      28005.466     -18215.118     -420.36857      59786.759      39.102243      39.102243      39.102243      1.1128487      502.19441     -771.76373     -704.53274    
     63000   63000          302.52137     -9.2171374      21796          21804.029      5427.6858      16376.343      3032.4663      5227.9992     -1574.6136      176.38947     -264.99103      27994.402     -18215.31      -420.76242      59730.796      39.090039      39.090039      39.090039      1.1138913      207.93796      198.32528     -433.91466    
     64000   64000          300.76158      125.02542      21762.404      21653.632      5396.1127      16257.519      2993.058       5197.4816     -1530.2616      153.90983     -339.11877      27997.742     -18215.292     -421.30004      59654.573      39.073404      39.073404      39.073404      1.1153146     -618.90968     -445.72068      1439.7066    
     65000   65000          300.26014     -530.40902      21270.695      21733.044      5387.1161      16345.928      2952.8994      5293.2154     -1552.6255      154.05211     -296.9932       28010.909     -18215.53      -420.48714      59769.9        39.098567      39.098567      39.098567      1.1131626     -1775.6702      2205.7757     -2021.3325    
     66000   66000          304.80669     -366.59835      21562.208      21882.473      5468.6879      16413.786      2989.588       5360.4795     -1552.1611      157.41263     -314.83272      27988.054     -18214.754     -419.55727      59902.369      39.127431      39.127431      39.127431      1.1107009      450.02802     -1636.708       86.884928    
     67000   67000          302.01961     -92.015827      21656.689      21736.828      5418.6835      16318.145      2933.7089      5293.0616     -1533.0981      169.274       -317.45453      27988.883     -18216.231     -420.85252      59718.008      39.087249      39.087249      39.087249      1.1141298     -380.79326     -672.94334      777.68912    
     68000   68000          303.73478      954.38421      22651.867      21821.273      5449.4562      16371.817      2973.2954      5345.8419     -1539.6589      156.10148     -354.017        28001.388     -18211.134     -421.15859      59674.61       39.077778      39.077778      39.077778      1.1149401      520.18051      376.42195      1966.5502    
     69000   69000          299.93762      2674.1693      24099.192      21763.862      5381.3296      16382.532      2892.3668      5325.8948     -1552.8037      166.39202     -227.93338      27992.144     -18213.528     -419.71232      59880.24       39.122612      39.122612      39.122612      1.1111114      4312.947       2000.151       1709.4097    
     70000   70000          302.56822     -2202.3091      19887.23       21812.586      5428.5264      16384.059      3073.7524      5226.3738     -1567.2493      159.22774     -306.06101      28013.062     -18215.046     -419.25514      59945.537      39.136828      39.136828      39.136828      1.1099011     -2632.3238     -1952.9563     -2021.6474    
     71000   71000          307.58109      949.79563      22720.408      21892.285      5518.4647      16373.82       3060.0407      5196.0221     -1569.2424      148.30173     -235.70947      27990.332     -18215.925     -420.38437      59784.512      39.101753      39.101753      39.101753      1.1128905      1349.7561      1622.8006     -123.16976    
     72000   72000          301.78881     -1048.2648      20861.152      21774.528      5414.5426      16359.986      3013.0763      5255.8291     -1574.6495      159.41597     -289.33015      28009.755     -18214.112     -420.66128      59745.157      39.093171      39.093171      39.093171      1.1136236     -1256.2983     -212.36735     -1676.1287    
     73000   73000          300.93766      1335.2689      22905.686      21744.666      5399.2716      16345.395      2992.7984      5271.307      -1569.08        158.99227     -288.1728       27993.787     -18214.237     -421.54128      59620.434      39.065949      39.065949      39.065949      1.1159532      1649.8247      1334.4298      1021.5522    
     74000   74000          298.36084      48.398033      21835.159      21792.767      5353.0398      16439.727      3005.0284      5297.0514     -1538.6875      150.32668     -262.52652      28008.246     -18219.712     -418.45521      60060.13       39.16175       39.16175       39.16175       1.1077834      640.98919      1105.4534     -1601.2484    
     75000   75000          300.35486     -865.62687      21092.406      21843.489      5388.8153      16454.674      3028.6598      5301.6189     -1571.6425      156.2343      -274.86112      28025.277     -18210.613     -422.42892      59495.155      39.038567      39.038567      39.038567      1.1183031     -660.36573     -1865.3704     -71.144474    
     76000   76000          297.81203      1209.7433      22731.046      21679.369      5343.1932      16336.176      3004.4767      5254.8622     -1589.1399      153.41828     -280.84436      28009.229     -18215.826     -421.62063      59609.214      39.063498      39.063498      39.063498      1.1161633      536.07349     -116.36731      3209.5237    
     77000   77000          306.56344      584.93665      22330.803      21822.002      5500.2066      16321.795      2980.8367      5226.4881     -1577.7965      172.65123     -266.02893      28001.783     -18216.138     -421.37813      59643.519      39.07099       39.07099       39.07099       1.1155213      664.60149      650.8226       439.38586    
     78000   78000          300.99573     -234.05314      21615.185      21819.782      5400.3135      16419.469      2985.0577      5306.1388     -1547.7654      160.77176     -276.20258      28007.348     -18215.879     -419.30003      59939.119      39.135431      39.135431      39.135431      1.1100199      206.44441     -55.858323     -852.74552    
     79000   79000          297.40761     -614.75572      21151.483      21687.515      5335.9374      16351.577      3021.1509      5244.6545     -1551.5809      170.77913     -328.33742      28008.085     -18213.174     -420.36153      59787.76       39.102461      39.102461      39.102461      1.1128301     -1113.551       846.58145     -1577.2977    
     80000   80000          300.19725      12.948486      21771.486      21760.163      5385.9876      16374.176      2930.4071      5308.5972     -1531.5276      166.88135     -274.25771      27989.816     -18215.741     -419.17285      59957.305      39.139388      39.139388      39.139388      1.1096832      1490.6033      289.09609     -1740.8539    
     81000   81000          299.32791      859.88511      22562.867      21814.075      5370.3903      16443.685      3011.0011      5354.2546     -1531.8636      166.74184     -331.55242      27992.249     -18217.145     -420.91102      59709.709      39.085438      39.085438      39.085438      1.1142847      1276.5891     -1470.5394      2773.6056    
     82000   82000          302.26137     -1342.1044      20681.713      21850.059      5423.021       16427.038      3043.8387      5343.4354     -1582.4085      168.90057     -324.91703      27994.937     -18216.748     -421.04261      59691.048      39.081366      39.081366      39.081366      1.1146331     -29.601852     -2114.926      -1881.7853    
     83000   83000          299.72114     -1744.9813      20255.967      21771.376      5377.4456      16393.93       3050.6702      5328.4286     -1594.6583      161.11633     -334.41178      27994.874     -18212.089     -422.05799      59547.444      39.05          39.05          39.05          1.1173211     -2710.9302     -503.69605     -2020.3176    
     84000   84000          305.71537      971.37577      22806.681      21965.919      5484.991       16480.928      3000.3173      5325.5759     -1523.1677      168.44849     -265.66283      27991.503     -18216.086     -423.47283      59348.493      39.006462      39.006462      39.006462      1.1210666      988.90747      928.66308      996.55676    
     85000   85000          296.38518      727.78187      22335.737      21703.597      5317.5934      16386.003      2963.2964      5271.6602     -1569.2301      155.79        -218.0652       27995.795     -18213.243     -421.98701      59557.459      39.052189      39.052189      39.052189      1.1171332      1975.183       1.7202113      206.44246    
     86000   86000          298.95424      433.1735       22184.704      21806.246      5363.6862      16442.56       2993.1412      5342.8383     -1573.3806      152.35359     -260.80478      28004.783     -18216.371     -419.52199      59907.407      39.128528      39.128528      39.128528      1.1106075      813.10346      1166.0953     -679.67826    
     87000   87000          304.02568      216.82928      22069.056      21880.054      5454.6754      16425.378      2982.6877      5339.3662     -1568.1885      162.4803      -247.27884      27970.425     -18214.114     -420.49608      59768.629      39.09829       39.09829       39.09829       1.1131862      656.62923     -542.89611      536.75471    
     88000   88000          300.73401     -333.09492      21518.108      21808.704      5395.618       16413.086      3073.1821      5286.1886     -1586.7018      167.11174     -315.84307      28004.885     -18215.736     -420.13582      59819.88       39.109462      39.109462      39.109462      1.1122325      1327.6037     -489.49613     -1837.3924    
     89000   89000          298.42168      20.844018      21755.17       21737.023      5354.1313      16382.892      3001.2787      5351.3206     -1603.0569      167.97278     -325.61307      28005.971     -18214.981     -421.01185      59695.408      39.082317      39.082317      39.082317      1.1145517      1783.7822     -2346.6986      625.44844    
     90000   90000          297.90814      859.57466      22513.443      21764.595      5344.9177      16419.678      3013.1365      5266.0066     -1550.5416      156.86632     -228.42719      27976.846     -18214.209     -420.72758      59735.743      39.091118      39.091118      39.091118      1.1137991      1133.0672      1830.0045     -384.34777    
     91000   91000          299.41053     -159.15495      21638.687      21776.748      5371.8727      16404.875      2999.317       5350.3333     -1542.6288      170.82884     -372.38487      28012.097     -18212.688     -422.53406      59480.351      39.035329      39.035329      39.035329      1.1185814      147.26998      899.31924     -1524.0541    
     92000   92000          305.02966      94.867716      21972.377      21889.948      5472.6883      16417.259      3036.1688      5277.991      -1593.0425      161.87215     -249.49876      27996.503     -18212.734     -421.83722      59578.608      39.056811      39.056811      39.056811      1.1167367      346.86736      109.96583     -172.23005    
     93000   93000          298.60217     -1242.3234      20666.216      21745.545      5357.3696      16388.175      3052.6451      5244.0858     -1591.1323      173.03869     -250.90845      27979.66      -18219.213     -421.88317      59572.119      39.055393      39.055393      39.055393      1.1168583      172.28642     -1548.1444     -2351.1123    
     94000   94000          299.23527      240.85389      21970.364      21760.324      5368.7282      16391.596      2953.6824      5361.0994     -1583.8681      165.64178     -296.7718       28005.939     -18214.126     -420.30354      59796.009      39.104259      39.104259      39.104259      1.1126765     -1182.9693      1010.0216      895.50927    
     95000   95000          301.05031     -498.41328      21414.895      21852.338      5401.2928      16451.045      3062.9052      5248.689      -1544.3698      173.89157     -269.07817      27992.548     -18213.541     -417.61852      60180.458      39.187886      39.187886      39.187886      1.1055684     -1249.2551      530.00879     -775.99357    
     96000   96000          304.55983      532.98695      22321.07       21858.672      5464.2588      16394.413      2910.1577      5365.4531     -1571.218       171.49933     -257.66176      27990.357     -18214.174     -422.48577      59487.15       39.036816      39.036816      39.036816      1.1184536      991.3545       1793.8739     -1186.2676    
     97000   97000          299.44671     -1752.5681      20161.689      21686.917      5372.5218      16314.395      3050.0253      5197.429      -1589.8623      149.64115     -277.48669      27999.708     -18215.06      -421.16425      59673.807      39.077603      39.077603      39.077603      1.1149551     -1637.7435     -3401.5508     -218.41013    
     98000   98000          302.73087     -622.08357      21251.565      21791.329      5431.4445      16359.885      3071.9836      5274.1195     -1580.7699      164.80505     -344.01072      27990.173     -18216.416     -422.43057      59494.923      39.038516      39.038516      39.038516      1.1183075     -2085.8973      757.29596     -537.64934    
     99000   99000          304.08485     -838.44895      21000.514      21727.39       5455.737       16271.653      2971.3589      5235.6674     -1547.1133      179.25477     -333.42588      27984.549     -18218.637     -422.79279      59443.952      39.027365      39.027365      39.027365      1.1192663     -1754.3202     -386.8177      -374.20896    
    100000   100000         301.98011     -192.2094       21646.684      21813.476      5417.9748      16395.501      3020.7572      5303.4506     -1558.8008      175.61287     -317.77414      27989.331     -18217.076     -422.38832      59500.875      39.039818      39.039818      39.039818      1.1181956     -1960.5214      1265.4308      118.46241    
    101000   101000         303.05055      1028.0627      22776.098      21887.238      5437.1802      16450.058      3027.2981      5323.0498     -1556.8926      175.32733     -299.9586       27996.211     -18214.978     -423.93303      59284.067      38.992343      38.992343      38.992343      1.1222849      655.7229       2198.4423      230.0228     
    102000   102000         301.38257      587.8432       22279.027      21770.612      5407.2541      16363.357      2955.1743      5261.067      -1581.6491      170.38917     -224.11604      27998.042     -18215.55      -423.79299      59303.658      38.996637      38.996637      38.996637      1.1219142     -227.38664      380.15849      1610.7578    
    103000   103000         300.6466       728.90496      22349.476      21721.488      5394.0496      16327.438      2926.0298      5312.4729     -1555.8923      163.30255     -299.15252      27996.137     -18215.459     -425.43196      59075.191      38.946495      38.946495      38.946495      1.1262531     -1852.1869      2222.555       1816.3468    
    104000   104000         295.16924     -480.66085      21286.327      21703.954      5295.7777      16408.176      2954.8522      5362.285      -1585.982       155.43906     -255.38018      27996.884     -18219.922     -421.8533       59576.337      39.056315      39.056315      39.056315      1.1167792     -1183.8968     -834.10588      576.02014    
    105000   105000         303.48045     -1666.3566      20401.828      21853.824      5444.8931      16408.931      3039.4252      5330.6266     -1576.3729      159.16839     -327.06232      28002.443     -18219.297     -420.64286      59747.773      39.093742      39.093742      39.093742      1.1135748     -2062.663      -1871.5956     -1064.811     
    106000   106000         294.32427      300.71731      21934.77       21672.803      5280.6176      16392.185      3048.4951      5216.9402     -1533.3336      161.23401     -269.07574      27987.634     -18219.709     -420.74907      59732.691      39.090452      39.090452      39.090452      1.113856       651.63959      705.81458     -455.30225    
    107000   107000         298.1909      -366.30231      21477.54       21796.445      5349.9907      16446.455      3000.413       5325.7511     -1567.697       169.25889     -249.74365      27989.355     -18220.883     -421.00682      59696.121      39.082473      39.082473      39.082473      1.1145383     -1772.0898      364.11476      309.06811    
    108000   108000         298.95542     -2041.9479      20017.354      21803.011      5363.7074      16439.303      3054.4295      5345.7522     -1541.3339      157.10965     -357.38         27996.385     -18215.659     -419.13883      59962.172      39.140447      39.140447      39.140447      1.1095932     -1537.1859     -1929.3645     -2659.2933    
    109000   109000         305.72254     -520.84549      21481.004      21936.565      5485.1196      16451.446      3062.6264      5277.6901     -1522.9193      182.16164     -309.59567      27980.985     -18219.503     -419.05672      59973.92       39.143003      39.143003      39.143003      1.1093758     -825.50575     -321.17552     -415.8552     
    110000   110000         298.48481     -1541.9752      20433.939      21782.678      5355.2639      16427.414      3004.9932      5316.346      -1553.4049      165.78843     -289.1188       28000.606     -18217.796     -419.04513      59975.579      39.143364      39.143364      39.143364      1.1093451     -1242.3301     -1737.4615     -1646.1342    
    111000   111000         301.08707      189.25298      21931.783      21767.092      5401.9524      16365.139      2918.5084      5293.8861     -1548.4214      160.86722     -251.76222      28009.313     -18217.252     -421.19431      59669.549      39.076673      39.076673      39.076673      1.1150347      1322.7741      536.82782     -1291.843     
    112000   112000         303.07446      197.03858      21934.987      21763.072      5437.6092      16325.463      2951.287       5227.3732     -1547.6666      167.62821     -264.85431      28009.611     -18217.916     -420.0971       59825.393      39.110664      39.110664      39.110664      1.11213       -1346.0394      1760.4573      176.69786    
    113000   113000         299.05829     -649.43044      21239.566      21806.205      5365.5531      16440.652      2994.6215      5336.1147     -1565.5283      166.29799     -268.55853      27996.093     -18218.388     -420.08493      59827.127      39.111042      39.111042      39.111042      1.1120978      43.614047     -481.13598     -1510.7694    
    114000   114000         303.53875     -348.03847      21567.259      21870.118      5445.9392      16424.179      2949.8194      5338.7062     -1551.1793      164.44742     -276.8226       28013.667     -18214.459     -421.20924      59667.433      39.076212      39.076212      39.076212      1.1150742     -677.65984      474.72256     -841.17813    
    115000   115000         303.66222     -77.811259      21707.668      21775.539      5448.1544      16327.384      2952.1052      5252.5038     -1559.6209      158.04605     -281.43709      28018.872     -18213.084     -420.21367      59808.797      39.107047      39.107047      39.107047      1.1124386     -2183.8674      641.6217       1308.812     
    116000   116000         298.62351      705.27524      22360.483      21745.065      5357.7524      16387.312      2925.3856      5282.9314     -1539.5102      149.47782     -238.79058      28024.371     -18216.553     -420.04846      59832.321      39.112174      39.112174      39.112174      1.1120012      1978.7143     -280.52433      417.63571    
    117000   117000         304.13483     -41.713356      21823.235      21859.591      5456.6338      16402.958      3105.6839      5322.3984     -1608.5884      154.52298     -354.09862      28001.666     -18218.627     -420.5414       59762.188      39.096886      39.096886      39.096886      1.1133062     -623.73853      1341.0414     -842.44298    
    118000   118000         296.40503     -656.25981      21112.705      21685.889      5317.9496      16367.939      2998.4427      5254.1313     -1550.9232      162.44894     -284.04681      28003.709     -18215.822     -419.65581      59888.303      39.124368      39.124368      39.124368      1.1109618     -925.92624     -357.31624     -685.53696    
    119000   119000         301.11993     -1146.7532      20867.498      21863.054      5402.542       16460.512      3020.245       5368.6007     -1556.436       166.06211     -289.89992      27969.682     -18217.742     -422.19752      59527.764      39.045698      39.045698      39.045698      1.1176905     -1142.118      -1686.7511     -611.39055    
    120000   120000         297.47044     -542.83287      21207.067      21677.223      5337.0646      16340.158      2974.6146      5319.7634     -1589.888       166.9755      -296.48981      27981.299     -18216.116     -423.19004      59388.152      39.015149      39.015149      39.015149      1.120318      -581.14        -1662.6695      615.31092    
    121000   121000         302.75967      1122.5897      22768.523      21793.261      5431.9613      16361.3        3061.0828      5242.6307     -1574.9471      165.33953     -299.10947      27987.712     -18221.409     -421.90103      59569.596      39.054842      39.054842      39.054842      1.1169056      1002.0786      2022.8906      342.80001    
    122000   122000         307.25393      132.96919      22010.992      21895.027      5512.5951      16382.432      3040.9667      5240.0357     -1592.0985      161.5674      -248.43242      27998.062     -18217.669     -420.27653      59799.853      39.105097      39.105097      39.105097      1.112605       300.92631      385.91434     -287.93308    
    123000   123000         300.27579      664.30981      22337.693      21760.804      5387.3967      16373.407      3003.0462      5347.2477     -1585.4146      155.63621     -334.69722      28000.547     -18212.958     -422.07509      59545.031      39.049473      39.049473      39.049473      1.1173664     -454.17697      1717.5416      729.56478    
    124000   124000         297.12057      2238.2726      23690.041      21751.243      5330.7874      16420.455      2943.1418      5319.4273     -1553.8027      172.41        -241.7921       28000.882     -18219.811     -423.14719      59394.166      39.016466      39.016466      39.016466      1.1202046      2113.9949      1592.2867      3008.5363    
    125000   125000         302.33111      1035.7099      22712.134      21808.522      5424.2724      16384.25       2987.0986      5225.0181     -1529.0941      154.38348     -236.3166       27999.6       -18216.439     -420.11424      59822.952      39.110132      39.110132      39.110132      1.1121754      370.05186      2678.1926      58.885326    
    126000   126000         297.04348      60.650259      21702.393      21649.569      5329.4043      16320.164      3058.5675      5212.4511     -1568.0033      175.20046     -329.87179      27989.814     -18217.994     -420.83032      59721.158      39.087936      39.087936      39.087936      1.1140711     -24.206001     -725.93762      932.0944     
    127000   127000         301.43154      240.17302      22085.908      21876.349      5408.1326      16468.217      2961.5993      5291.3967     -1560.1051      174.44021     -161.01101      27980.287     -18218.39      -420.07808      59828.101      39.111254      39.111254      39.111254      1.1120797      620.43892      129.87139     -29.791251    
    128000   128000         301.14176      528.33416      22253.099      21792.773      5402.9335      16389.84       3034.5139      5285.5595     -1577.4604      166.93427     -277.2077       27978.766     -18221.266     -420.68294      59742.082      39.092501      39.092501      39.092501      1.1136809      362.54878     -141.41784      1363.8715    
    129000   129000         299.24168     -572.57918      21409.093      21905.799      5368.8432      16536.956      3148.7969      5322.5854     -1566.428       164.39633     -288.28982      27975.207     -18219.312     -422.51943      59482.411      39.035779      39.035779      39.035779      1.1185427     -1172.5965     -78.327898     -466.81311    
    130000   130000         299.73001      699.10323      22412.986      21803.864      5377.6046      16426.259      2940.7373      5338.9115     -1572.7415      159.45413     -245.32459      28023.927     -18218.704     -420.67591      59743.079      39.092718      39.092718      39.092718      1.1136623      34.040488      2120.0393     -56.770127    
    131000   131000         297.12465     -145.50245      21692.311      21818.661      5330.8607      16487.801      3064.5121      5330.5369     -1555.3532      182.48349     -286.75885      27969.638     -18217.257     -422.08959      59542.986      39.049026      39.049026      39.049026      1.1174048     -863.97067      1246.7595     -819.29622    
    132000   132000         296.9346      -444.77325      21269.778      21658.979      5327.4508      16331.529      2986.1067      5290.5564     -1573.9794      166.63018     -325.70033      28006.149     -18218.234     -418.86676      60001.119      39.14892       39.14892       39.14892       1.1088729      299.76258     -146.6752      -1487.4071    
    133000   133000         300.46488      383.71987      22169.38       21836.001      5390.7894      16445.212      3084.4593      5305.6535     -1552.0811      176.76936     -324.82798      27970.626     -18215.388     -421.87916      59572.685      39.055517      39.055517      39.055517      1.1168477      179.80871     -317.57725      1288.9282    
    134000   134000         296.14386      9.8640438      21849.39       21840.751      5313.2638      16527.487      3016.0759      5338.1461     -1533.6842      177.54215     -257.57238      28000.076     -18213.096     -418.50423      60053.096      39.160221      39.160221      39.160221      1.1079132      1387.2027     -172.1179      -1185.4927    
    135000   135000         298.51463     -337.27211      21394.856      21689.317      5355.799       16333.518      2951.3989      5265.3924     -1548.3787      157.2722      -254.81463      27982.705     -18220.058     -419.82044      59864.818      39.119253      39.119253      39.119253      1.1113976     -1873.7415     -413.71837      1275.6435    
    136000   136000         295.63451     -1777.2192      20236.64       21796.816      5304.1253      16492.691      3105.261       5327.8474     -1591.0019      177.08694     -293.76775      27985.944     -18218.679     -417.52132      60194.469      39.190926      39.190926      39.190926      1.1053111     -2382.926      -1590.3014     -1358.4301    
    137000   137000         294.30471     -1156.7013      20689.312      21697.026      5280.2667      16416.76       2987.6643      5296.4143     -1555.0022      170.50514     -269.46538      28004.43      -18217.786     -420.72186      59736.554      39.091295      39.091295      39.091295      1.113784      -869.99336     -1437.7924     -1162.3181    
    138000   138000         297.84114     -639.85669      21141.698      21701.07       5343.7155      16357.355      3015.8453      5257.3767     -1549.1463      174.61969     -315.83141      27991.572     -18217.081     -419.2693       59943.512      39.136387      39.136387      39.136387      1.1099386     -685.21041     -128.02888     -1106.3308    
    139000   139000         297.96179      192.03773      22016.721      21848.827      5345.8802      16502.946      3098.5795      5278.6094     -1558.9638      165.99837     -259.10987      27993.775     -18215.943     -419.23798      59947.99       39.137361      39.137361      39.137361      1.1098557      990.71243     -408.2295      -6.3697388    
    140000   140000         300.24539     -775.65501      21014.847      21693.99       5386.8514      16307.139      2988.46        5186.8718     -1574.4984      159.82391     -241.06395      28006.526     -18218.981     -418.61887      60036.649      39.156646      39.156646      39.156646      1.1082167     -1350.3667      11.612077     -988.21039    
    141000   141000         298.63902      337.66788      22080.748      21786.762      5358.0308      16428.731      3024.3561      5273.9754     -1581.9917      168.59883     -253.71031      28013.469     -18215.966     -420.99182      59698.248      39.082937      39.082937      39.082937      1.1144986      382.32683      247.99645      382.68035    
    142000   142000         300.08707      782.71833      22491.65       21811.17       5384.0109      16427.159      2953.0013      5354.4824     -1556.9868      155.07518     -279.34801      28017.101     -18216.166     -421.60069      59612.032      39.064114      39.064114      39.064114      1.1161105      1290.3821      678.89623      378.87671    
    143000   143000         295.58396     -122.90109      21515.265      21622.929      5303.2184      16319.711      2896.8928      5245.8477     -1534.9983      156.27778     -218.3288       27990.903     -18216.883     -418.40324      60067.59       39.163371      39.163371      39.163371      1.1076458     -694.04473      1095.1281     -769.78664    
    144000   144000         299.39822      82.772529      21875.174      21802.899      5371.6518      16431.247      3030.8867      5262.8198     -1582.1903      174.21251     -227.1819       27991.514     -18218.813     -419.76843      59872.235      39.120869      39.120869      39.120869      1.1112599     -84.382158     -211.43758      544.13733    
    145000   145000         299.11105      268.48318      22097.819      21864.672      5366.4996      16498.172      3056.8675      5279.9247     -1585.4473      166.821       -192.90716      27991.584     -18218.67      -422.0837       59543.817      39.049207      39.049207      39.049207      1.1173892     -405.4099       1187.3725      23.486979    
    146000   146000         302.88117     -71.115456      21716.317      21778.257      5434.1413      16344.116      2946.6101      5268.8899     -1546.2885      156.27201     -291.69502      28027.283     -18216.956     -420.82725      59721.594      39.088031      39.088031      39.088031      1.114063      -1045.9956      1360.8163     -528.16703    
    147000   147000         302.21396     -1893.0269      20177.78       21830.415      5422.1704      16408.245      3069.2217      5265.5801     -1545.1071      162.47525     -314.89007      27986.329     -18215.364     -419.84698      59861.035      39.118429      39.118429      39.118429      1.1114679     -3630.7115     -21.559781     -2026.8094    
    148000   148000         306.1302       173.54386      21979.971      21827.972      5492.4337      16335.538      3005.7501      5304.5557     -1594.5244      155.10067     -306.49844      27991.265     -18220.11      -418.48434      60055.949      39.160841      39.160841      39.160841      1.1078605      209.87561      1213.1551     -902.39912    
    149000   149000         297.4748      -2441.7066      19520.127      21655.246      5337.1428      16318.103      3015.7305      5226.1811     -1529.6254      168.49061     -337.1555       27992.385     -18217.903     -419.16263      59958.766      39.139706      39.139706      39.139706      1.1096562     -3295.9462     -1174.6084     -2854.5652    
    150000   150000         299.73573     -689.82743      21187.084      21789.636      5377.7072      16411.929      3089.8595      5234.9882     -1537.408       143.5129      -298.86798      27997.97      -18218.125     -419.62049      59893.344      39.125466      39.125466      39.125466      1.1108683     -1221.957       552.53132     -1400.0566    
    151000   151000         299.78207     -1102.9673      20861.969      21817.335      5378.5387      16438.796      3016.071       5350.8165     -1581.4416      166.79475     -295.27424      28000.891     -18219.061     -423.15928      59392.469      39.016094      39.016094      39.016094      1.1202366     -3502.5801      1487.2313     -1293.5529    
    152000   152000         297.45884     -625.20582      21169.105      21716.945      5336.8564      16380.088      2997.7799      5215.6556     -1542.3587      155.60811     -246.92356      28015.535     -18215.208     -418.29307      60083.411      39.166809      39.166809      39.166809      1.1073542     -632.50903     -64.925459     -1178.183     
    153000   153000         300.85139      994.02201      22694.239      21832.512      5397.724       16434.788      2949.9531      5327.1356     -1541.6126      169.98594     -259.55692      28003.845     -18214.962     -422.80269      59442.56       39.02706       39.02706       39.02706       1.1192926     -356.82588      1933.8788      1405.0131    
    154000   154000         301.09096      1151.8179      22821.117      21818.816      5402.0222      16416.793      2920.1208      5305.3755     -1558.3102      154.02788     -207.84253      28018.705     -18215.283     -421.2081       59667.594      39.076247      39.076247      39.076247      1.1150712      506.9387       2199.5656      748.94947    
    155000   155000         300.61692     -1486.2854      20493.071      21786.322      5393.5171      16392.805      2999.3121      5349.0715     -1581.2828      166.25742     -335.12306      28012.617     -18218.048     -421.24107      59662.925      39.075227      39.075227      39.075227      1.1151585     -1438.8682     -593.50259     -2426.4855    
    156000   156000         296.30371     -1614.9548      20378.103      21792.235      5316.1318      16476.103      3019.171       5339.2585     -1557.0756      166.57712     -304.82048      28030.165     -18217.172     -418.58304      60041.788      39.157763      39.157763      39.157763      1.1081218     -402.94076     -2683.8374     -1758.0863    
    157000   157000         302.01632     -1775.7736      20298.748      21857.707      5418.6245      16439.082      3052.4047      5241.5849     -1514.8237      174.39918     -280.42529      27982.145     -18216.202     -417.50734      60196.485      39.191364      39.191364      39.191364      1.1052741     -1806.0126     -1671.1543     -1850.1537    
    158000   158000         296.9416       1521.3553      23013.348      21681.936      5327.5765      16354.359      2991.5145      5214.8269     -1574.3774      161.20387     -228.22073      28010.205     -18220.793     -418.82191      60007.544      39.150317      39.150317      39.150317      1.1087542      2072.7751      2013.0678      478.22314    
    159000   159000         298.03843     -377.941        21489.193      21817.996      5347.2553      16470.74       2974.1574      5323.4387     -1547.6165      173.70679     -242.149        28005.382     -18216.179     -421.30819      59653.42       39.073152      39.073152      39.073152      1.1153362     -0.56250352    -16.834236     -1116.4263    
    160000   160000         294.47578      854.14133      22457.296      21719.498      5283.336       16436.162      2994.2804      5253.7867     -1529.4361      166.99786     -236.69827      28005.97      -18218.739     -424.33004      59228.6        38.980178      38.980178      38.980178      1.1233359      193.13088      392.96916      1976.3239    
    161000   161000         298.50442     -527.90083      21335.707      21794.401      5355.6158      16438.785      3006.8908      5353.2681     -1572.131       154.34806     -283.15506      27999.291     -18219.726     -421.83227      59579.308      39.056964      39.056964      39.056964      1.1167235      820.49758     -567.30676     -1836.8933    
    162000   162000         300.13832      578.42657      22297.874      21794.93       5384.9304      16410          2992.5625      5391.7429     -1623.8689      167.17427     -284.8791       27987.198     -18219.93      -421.54132      59620.428      39.065948      39.065948      39.065948      1.1159533     -861.41419      257.12274      2339.5712    
    163000   163000         294.24566      140.0695       21829.138      21707.185      5279.2073      16427.977      3013.6429      5312.1343     -1551.6669      177.05591     -284.09167      27983.122     -18222.219     -420.97939      59700.012      39.083322      39.083322      39.083322      1.1144657     -136.10079     -139.64326      695.95256    
    164000   164000         299.19263     -625.11511      21272.426      21815.472      5367.9632      16447.509      3049.3528      5327.6818     -1577.1408      153.05538     -273.81876      27986.988     -18218.609     -421.92417      59566.33       39.054128      39.054128      39.054128      1.1169669     -1012.4223     -792.42062     -70.502383    
    165000   165000         304.10388      138.01217      21859.049      21738.564      5456.0785      16282.486      2938.3213      5209.8864     -1532.2515      160.23446     -288.65235      28012.341     -18217.394     -419.85083      59860.485      39.118309      39.118309      39.118309      1.1114781      618.16013     -782.27291      578.14928    
    166000   166000         301.59603      722.70824      22451.441      21821.659      5411.0839      16410.576      3024.3423      5333.106      -1569.9404      169.51992     -313.64182      27983.837     -18216.647     -420.61453      59751.797      39.09462       39.09462       39.09462       1.1134998      708.36932      799.49783      660.25758    
    167000   167000         300.60197      833.72612      22639.27       21911.503      5393.249       16518.254      2978.9426      5363.9664     -1556.1404      166.07127     -227.22092      28011.326     -18218.691     -419.89649      59853.976      39.116892      39.116892      39.116892      1.1115989      132.45618      924.13839      1444.5838    
    168000   168000         308.26208     -163.01884      21728.164      21870.312      5530.6828      16339.629      2942.8858      5266.6125     -1538.5644      150.19432     -273.3404       28009.088     -18217.247     -420.34904      59789.537      39.102849      39.102849      39.102849      1.112797       158.50945     -801.96272      154.39673    
    169000   169000         294.35748     -866.30399      20962.344      21719.475      5281.2135      16438.261      3083.7911      5303.7221     -1610.4926      163.43741     -290.76597      28005.878     -18217.309     -419.383        59927.261      39.13285       39.13285       39.13285       1.1102396     -414.3606      -487.50519     -1697.0462    
    170000   170000         303.21691     -84.913274      21719.956      21794.023      5440.1649      16353.858      3034.1156      5282.9439     -1582.6912      163.60066     -315.98492      27989.424     -18217.55      -420.20862      59809.517      39.107204      39.107204      39.107204      1.1124252     -709.54919      211.0892       243.72017    
    171000   171000         299.01741     -2834.6927      19369.271      21841.303      5364.8195      16476.484      3100.0149      5290.7717     -1484.3557      153.74651     -354.06827      27990.347     -18219.972     -420.30347      59796.02       39.104262      39.104262      39.104262      1.1126763     -3110.6941     -1215.009      -4178.3749    
    172000   172000         301.69077     -145.75242      21600.425      21726.832      5412.7836      16314.049      2896.1425      5351.6572     -1589.7376      168.04152     -299.63781      28004.366     -18216.783     -422.62345      59467.77       39.032576      39.032576      39.032576      1.1188181      3.7464974     -701.82073      260.81698    
    173000   173000         304.53293      1271.2445      22935.702      21829.673      5463.7762      16365.897      2939.3666      5285.9353     -1549.0153      161.14775     -258.49561      28006.607     -18219.648     -421.28283      59657.01       39.073936      39.073936      39.073936      1.115269       1221.7169      836.74265      1755.274     
    174000   174000         299.89418      1236.6309      22841.759      21771.084      5380.5501      16390.534      3000.0484      5288.7213     -1571.0983      163.80391     -262.93217      27989.566     -18217.575     -423.34409      59366.542      39.010416      39.010416      39.010416      1.1207258      621.38859      1660.1832      1428.3209    
    175000   175000         299.43807     -563.68556      21227.774      21717.106      5372.3668      16344.739      3029.25        5263.0057     -1537.2922      168.96967     -340.91319      27983.438     -18221.72      -422.2261       59523.735      39.044817      39.044817      39.044817      1.1177661     -2109.2313     -235.19595      653.37061    
    176000   176000         302.06322      352.04015      22068.823      21762.974      5419.4659      16343.508      3014.274       5199.3634     -1539.4304      168.61584     -272.13251      27990.048     -18217.231     -421.88755      59571.5        39.055258      39.055258      39.055258      1.1168699      844.89324     -119.35633      330.58355    
    177000   177000         297.33525     -577.1672       21161.886      21663.483      5334.639       16328.844      2993.9075      5295.1372     -1580.8692      157.10869     -318.95389      28002.149     -18219.634     -421.75193      59590.656      39.059444      39.059444      39.059444      1.1165109     -1487.0583      868.38002     -1112.8233    
    178000   178000         300.39312      1015.8832      22727.494      21844.555      5389.5019      16455.053      3012.6914      5320.2364     -1554.1493      168.78952     -292.28431      28015.79      -18216.021     -421.71966      59595.216      39.06044       39.06044       39.06044       1.1164254      287.64864      1951.0901      808.91079    
    179000   179000         301.49503      110.20137      21851.207      21755.586      5409.2718      16346.315      2989.4039      5243.7952     -1560.2421      174.14955     -273.86214      27990.219     -18217.149     -422.42159      59496.188      39.038793      39.038793      39.038793      1.1182837     -735.88627     -63.9716        1130.462     
    180000   180000         301.20944      1308.0462      22848.95       21711.687      5404.1478      16307.54       2958.886       5202.0933     -1558.5768      160.17624     -240.09309      28001.588     -18216.534     -421.57379      59615.836      39.064945      39.064945      39.064945      1.1160393      1479.6743      1480.4518      964.01256    
    181000   181000         303.58636      1305.5214      22900.397      21771.827      5446.7933      16325.034      2954.8885      5205.5304     -1547.9751      184.30555     -246.46778      27991.11      -18216.357     -424.00096      59274.57       38.99026       38.99026       38.99026       1.1224648     -1266.0245      2150.7766      3031.8123    
    182000   182000         294.41995      702.31634      22181.106      21571.574      5282.3343      16289.24       2979.1917      5238.5328     -1554.1453      167.55136     -309.64516      27986.542     -18218.787     -422.32581      59509.681      39.041744      39.041744      39.041744      1.1180301      524.94659     -918.02848      2500.0309    
    183000   183000         299.15741     -421.91444      21422.164      21788.706      5367.3313      16421.375      2896.9549      5355.3924     -1518.3984      165.78813     -261.97457      28000.405     -18216.792     -421.90201      59569.459      39.054812      39.054812      39.054812      1.1169082     -1440.4536      1039.9779     -865.26765    
    184000   184000         296.64944      171.63958      21967.445      21818.184      5322.3347      16495.849      3041.0416      5341.3444     -1591.8401      168.11278     -250.14789      28003.148     -18215.809     -421.48604      59628.249      39.067656      39.067656      39.067656      1.115807      -1004.7444      1048.7302      470.93294    
    185000   185000         295.71083      259.06954      21961.452      21735.185      5305.4946      16429.69       3028.9845      5298.0838     -1539.8047      157.44063     -294.29001      28001.104     -18221.828     -419.66696      59886.712      39.124022      39.124022      39.124022      1.1109913     -293.05262      1690.1831     -619.92188    
    186000   186000         301.3873       727.42533      22485.655      21851.269      5407.3389      16443.93       2970.6344      5283.285      -1513.5592      155.24387     -227.41546      27993.491     -18217.749     -420.28722      59798.331      39.104766      39.104766      39.104766      1.1126333     -843.56218      1810.7496      1215.0885    
    187000   187000         293.70284      923.44266      22514.686      21710.664      5269.4682      16441.196      3008.2838      5324.0186     -1521.7621      156.64389     -271.21142      27965.314     -18220.091     -420.97183      59701.083      39.083556      39.083556      39.083556      1.1144457      1657.8332      1290.7183     -178.2235     
    188000   188000         300.66858      1123.7406      22684.145      21712.258      5394.444       16317.814      3022.9985      5231.0334     -1591.0703      165.56892     -263.86749      27970.515     -18217.364     -423.80043      59302.617      38.996409      38.996409      38.996409      1.1219339      431.33572      1690.7331      1249.1531    
    189000   189000         302.73339      1078.4653      22757.68       21817.385      5431.4899      16385.895      3001.15        5350.3096     -1611.2238      168.0067      -321.49431      28017.874     -18218.727     -420.39065      59783.619      39.101558      39.101558      39.101558      1.1129071      1026.1038      1219.1185      990.17357    
    190000   190000         295.9003       9.7876633      21631.885      21623.361      5308.894       16314.467      2965.2466      5247.849      -1576.4915      158.88467     -236.62665      27973.039     -18217.434     -420.84544      59719.012      39.087468      39.087468      39.087468      1.1141111     -65.134364      321.90709     -227.40974    
    191000   191000         301.34652     -122.59594      21604.322      21711.011      5406.6072      16304.404      3042.4962      5229.9695     -1570.2844      159.8833      -326.60642      27986.082     -18217.137     -421.18053      59671.5        39.077099      39.077099      39.077099      1.1149982     -187.19993      196.5119      -377.09979    
    192000   192000         301.24672      81.434077      21864.748      21793.829      5404.8167      16389.012      3020.1974      5307.3772     -1525.126       147.35308     -311.69978      27966.897     -18215.986     -420.87814      59714.373      39.086456      39.086456      39.086456      1.1141977     -767.68813     -171.46426      1183.4546    
    193000   193000         304.1612       232.64551      22145.839      21941.839      5457.1068      16484.732      3030.7322      5325.5097     -1593.2506      175.01384     -246.75938      28009.087     -18215.601     -417.99965      60125.586      39.175971      39.175971      39.175971      1.1065774      1355.2946      527.21065     -1184.5687    
    194000   194000         294.99025      208.37186      21965.42       21783.452      5292.5663      16490.886      3005.4589      5397.8054     -1583.2762      169.47278     -286.74818      28003.5       -18215.327     -419.71458      59879.918      39.122542      39.122542      39.122542      1.1111174      943.79173      11.017563     -329.69372    
    195000   195000         301.56571     -38.042019      21727.644      21760.771      5410.5398      16350.231      3029.7081      5328.4033     -1592.8146      157.66163     -350.83789      27998.508     -18220.397     -420.91137      59709.659      39.085427      39.085427      39.085427      1.1142856     -172.71771      424.52654     -365.93489    
    196000   196000         296.2094       505.40706      22217.843      21777.683      5314.4396      16463.244      3027.8311      5293.7471     -1558.5063      165.13253     -224.47771      27980.929     -18221.412     -420.86398      59716.382      39.086894      39.086894      39.086894      1.1141602     -420.69583     -535.52309      2472.4401    
    197000   197000         298.6136      -7.0752529      21910.156      21916.318      5357.5745      16558.743      3029.2228      5419.9553     -1564.1361      163.29557     -277.6852       28003.748     -18215.657     -420.87434      59714.913      39.086574      39.086574      39.086574      1.1141876     -1594.2791      1937.672      -364.61869    
    198000   198000         300.21771     -793.71393      21065.701      21757.46       5386.3548      16371.105      3046.0399      5206.6517     -1553.7265      161.55084     -250.31535      27979.385     -18218.48      -420.55259      59760.597      39.096539      39.096539      39.096539      1.1133359     -1674.4116      698.8989      -1405.6291    
    199000   199000         296.41059     -438.92322      21399.762      21782.839      5318.0494      16464.79       3049.9414      5285.9161     -1546.7502      170.4563      -280.38415      28001.949     -18216.338     -419.96551      59844.139      39.114748      39.114748      39.114748      1.1117816     -1006.4295     -255.01369     -55.32649     
    200000   200000         297.2741       309.51668      22027.583      21756.819      5333.542       16423.277      3001.2167      5274.3167     -1570.7895      180.44864     -227.97279      27986.727     -18220.669     -418.99185      59983.205      39.145023      39.145023      39.145023      1.1092041     -1831.6207      816.36937      1943.8014    
    201000   201000         295.61068      1759.9923      23178.331      21639.223      5303.6977      16335.526      2895.5955      5253.5061     -1587.5767      184.47023     -216.35143      28021.188     -18215.306     -419.13404      59962.856      39.140596      39.140596      39.140596      1.1095805      267.76705      2067.9688      2944.2412    
    202000   202000         295.5127      -774.54948      20988.606      21666.35       5301.9399      16364.41       2983.6814      5326.0308     -1596.8536      152.38741     -275.84808      27991.305     -18216.293     -418.88514      59998.486      39.148347      39.148347      39.148347      1.1089216     -1679.1796     -842.70227      198.23344    
    203000   203000         302.13968     -1400.4223      20608.713      21837.035      5420.8378      16416.197      3072.9934      5305.1646     -1555.6012      154.51572     -340.7909       27996.152     -18216.236     -417.88601      60141.937      39.179522      39.179522      39.179522      1.1062766     -1846.798      -1290.9257     -1063.5431    
    204000   204000         299.94762      242.75738      21952.283      21739.929      5381.5089      16358.42       2989.8254      5259.4781     -1584.3097      172.55039     -246.24192      27985.922     -18218.803     -419.01054      59980.53       39.144441      39.144441      39.144441      1.1092535      429.41487     -382.87414      681.73142    
    205000   205000         303.79384      350.21929      22140.006      21834.182      5450.5159      16383.666      2981.8681      5270.538      -1562.3103      166.85664     -261.53321      28003.471     -18215.225     -419.73929      59876.393      39.121774      39.121774      39.121774      1.1111828     -342.21589      2006.1921     -613.31837    
    206000   206000         299.02083     -862.04735      20978.927      21724.354      5364.8809      16359.473      3004.8916      5298.6894     -1565.056       161.73784     -294.05444      27973.453     -18220.188     -423.87451      59292.253      38.994137      38.994137      38.994137      1.12213       -1719.4246     -1622.6381      755.92064    
    207000   207000         306.83657     -423.88036      21535.077      21904.64       5505.1071      16399.533      3027.9488      5279.8893     -1565.3735      165.41041     -287.20375      27997.766     -18218.904     -420.40275      59781.897      39.101183      39.101183      39.101183      1.1129392     -1437.2409      785.9748      -620.37494    
    208000   208000         299.93945      295.61639      22094.845      21837.546      5381.3623      16456.183      3013.9655      5305.8273     -1532.2661      164.66044     -261.97649      27984.731     -18218.758     -421.11481      59680.813      39.079132      39.079132      39.079132      1.1148242      2371.1498     -902.31595     -581.98472    
[...]
--------------------------------------------------------------------------

Initializing Device and compiling on process 0...Done.
Initializing Device 0 on core 0...Done.
Initializing Device 0 on core 1...Done.
Initializing Device 0 on core 2...Done.
Initializing Device 0 on core 3...Done.
Initializing Device 0 on core 4...Done.
Initializing Device 0 on core 5...Done.
Initializing Device 0 on core 6...Done.
Initializing Device 0 on core 7...Done.

Generated 15 of 15 mixed pair_coeff terms from sixthpower/sixthpower mixing rule
STAGE COMPLETE: NPT T=300.0->300.0K P=1.0->1.0atm steps=2000000
   -1012.6733      156.1557      -402.38005    
   1953000   1953000        301.43146     -738.90041      21079.926      21714.718      5408.1313      16306.586      2979.5619      5219.2394     -1539.063       168.16615     -311.06772      28003.797     -18214.047     -426.64415      58907.346      38.909575      38.909575      38.909575      1.1294621     -913.67918      44.759667     -1347.7817    
   1954000   1954000        302.18874      179.08977      21959.515      21804.492      5421.7179      16382.774      2999.3311      5235.1582     -1537.2643      171.09798     -279.45154      28011.816     -18217.914     -423.43398      59353.939      39.007655      39.007655      39.007655      1.1209638      1305.8713     -411.67625     -356.92575    
   1955000   1955000        296.84197      205.80379      21813.783      21635.986      5325.789       16310.198      2997.3122      5198.7193     -1514.7013      173.30508     -322.62746      27992.092     -18213.902     -424.26958      59237.04       38.98203       38.98203       38.98203       1.1231759     -254.65926     -879.78153      1751.8521    
   1956000   1956000        298.19696     -1570.9435      20364.468      21736.69       5350.0995      16386.59       3012.4816      5355.0856     -1570.0399      155.64925     -325.94884      27975.997     -18216.634     -419.61145      59894.634      39.125747      39.125747      39.125747      1.1108443     -2438.9727     -899.5451      -1374.3127    
   1957000   1957000        304.03471     -178.61779      21694.326      21849.917      5454.8375      16395.08       3082.4465      5250.9593     -1559.3134      171.62649     -314.10048      27977.105     -18213.644     -420.77621      59728.838      39.089612      39.089612      39.089612      1.1139278     -843.65985      601.52352     -293.71704    
   1958000   1958000        298.59557      307.12411      22120.413      21853.464      5357.2512      16496.213      3063.9582      5328.3371     -1516.3621      163.10134     -312.05367      27982.993     -18213.761     -421.69383      59598.867      39.061238      39.061238      39.061238      1.1163571     -1073.0801     -526.79599      2521.2484    
   1959000   1959000        302.34081     -201.57346      21613.586      21788.222      5424.4463      16363.775      2991.1351      5270.1813     -1558.0384      165.2129      -272.30507      27982.515     -18214.926     -423.06888      59405.16       39.018873      39.018873      39.018873      1.1199972     -527.00014     -538.94714      461.2269     
   1960000   1960000        299.64631     -813.05249      20957.256      21665.259      5376.103       16289.156      2960.5237      5277.9236     -1558.5736      174.58758     -336.5679       27986.249     -18214.986     -420.91517      59709.119      39.085309      39.085309      39.085309      1.1142957     -167.15762      371.50177     -2643.5016    
   1961000   1961000        301.89925      294.19491      22034.396      21777.223      5416.5241      16360.699      2957.2906      5320.0856     -1555.831       164.86167     -291.74189      27981.194     -18215.161     -419.29478      59939.869      39.135594      39.135594      39.135594      1.110006       220.65819      277.70888      384.21766    
   1962000   1962000        294.22409     -341.20966      21409.846      21705.51       5278.8202      16426.69       3044.3549      5298.4563     -1545.4978      168.79479     -305.969        27980.1       -18213.549     -422.99354      59415.74       39.02119       39.02119       39.02119       1.1197978     -265.6146      -534.47862     -223.53574    
   1963000   1963000        295.18757      1209.8587      22841.838      21798.95       5296.1066      16502.844      2926.7558      5416.6304     -1543.6855      165.4288      -273.99707      28024.459     -18212.747     -425.21471      59105.373      38.953126      38.953126      38.953126      1.125678       1422.6198      1876.714       330.24214    
   1964000   1964000        300.17365     -886.00296      20940.38       21709.885      5385.5643      16324.32       2945.9421      5268.8099     -1506.5315      148.73704     -316.49771      28000.986     -18217.126     -422.02186      59552.541      39.051114      39.051114      39.051114      1.1172255     -2641.3491      579.53808     -596.1978     
   1965000   1965000        296.24904     -67.135362      21560.639      21619.068      5315.1508      16303.917      3003.7344      5204.83       -1506.0281      161.84755     -324.49777      27979.471     -18215.44      -421.14883      59675.992      39.07808       39.07808       39.07808       1.1149143      11.530215     -349.92807      136.99177    
   1966000   1966000        303.54567      331.5522       22130.858      21844.848      5446.0634      16398.785      3014.5157      5348.7678     -1569.0613      170.9758      -335.10834      27983.659     -18214.964     -424.89507      59149.837      38.962892      38.962892      38.962892      1.1248318      1504.0147     -1340.4062      831.04809    
   1967000   1967000        298.05092     -713.85179      21090.163      21710.357      5347.4793      16362.877      3006.5515      5282.1061     -1592.2541      159.80206     -260.00116      27984.017     -18217.344     -421.88286      59572.162      39.055403      39.055403      39.055403      1.1168575     -1030.0454     -518.21658     -593.29341    
   1968000   1968000        302.64471     -777.08605      21080.351      21754.576      5429.8988      16324.677      2956.4969      5234.7227     -1557.5477      178.80709     -264.10492      27990.725     -18214.422     -422.45025      59492.152      39.03791       39.03791       39.03791       1.1183595     -608.12287     -1135.4629     -587.67242    
   1969000   1969000        300.42442     -399.29848      21451.863      21798.279      5390.0635      16408.216      3000.2844      5353.7756     -1557.6934      163.20649     -308.39719      27970.999     -18213.959     -422.48446      59487.334      39.036856      39.036856      39.036856      1.1184501     -1142.4201      454.32762     -509.80299    
   1970000   1970000        296.91359      176.30233      21832.033      21679.379      5327.0739      16352.305      3009.0175      5269.4971     -1571.1881      169.14375     -305.9826       27999.512     -18217.695     -423.31159      59371.099      39.011414      39.011414      39.011414      1.1206398     -788.41632      1242.6042      74.719131    
   1971000   1971000        300.2302      -827.95265      21064.032      21781.853      5386.5789      16395.274      3019.0045      5290.3954     -1541.3616      150.8116      -306.47396      27999.229     -18216.331     -422.76661      59447.634      39.02817       39.02817       39.02817       1.119197      -1269.7066      493.45461     -1707.6059    
   1972000   1972000        301.0467      -322.47419      21528.768      21808.409      5401.2281      16407.181      3021.9023      5363.4355     -1601.9723      160.55839     -320.57006      27997.407     -18213.58      -422.6733       59460.756      39.031042      39.031042      39.031042      1.11895       -1734.6472      1363.5675     -596.34287    
   1973000   1973000        303.11657     -17.430704      21699.924      21714.999      5438.3646      16276.634      2895.6893      5319.4905     -1588.4262      167.60413     -322.49922      28019.115     -18214.34      -423.82708      59298.888      38.995592      38.995592      38.995592      1.1220044      1098.1043     -1070.9851     -79.411294    
   1974000   1974000        301.57803      705.79778      22346.604      21735.79       5410.7608      16325.029      2971.1652      5278.2508     -1539.3557      160.30798     -314.88202      27986.417     -18216.874     -423.52804      59340.757      39.004767      39.004767      39.004767      1.1212128     -341.18591      1339.3945      1119.1848    
   1975000   1975000        298.21949     -639.11806      21252.387      21804.543      5350.5038      16454.039      3061.5598      5274.8771     -1580.3037      162.47587     -243.4563       27993.163     -18214.277     -424.25865      59238.567      38.982365      38.982365      38.982365      1.123147      -1526.1789      2075.619      -2466.7943    
   1976000   1976000        297.92717      377.40394      22047.568      21721.942      5345.2591      16376.683      2983.3277      5306.6993     -1497.5046      151.00422     -346.09396      27994.516     -18215.266     -424.81363      59161.176      38.965382      38.965382      38.965382      1.1246162      1133.4008     -477.51067      476.32172    
   1977000   1977000        304.5078       1667.3364      23405.752      21963.172      5463.3253      16499.847      3027.6545      5333.5116     -1530.5141      166.94697     -278.98556      27998.114     -18216.881     -423.63771      59325.395      39.001401      39.001401      39.001401      1.1215031      1215.979      -115.31503      3901.3452    
   1978000   1978000        304.30344      1270.7759      22926.3        21825.892      5459.6588      16366.233      2953.9402      5368.3005     -1587.1502      158.20074     -306.61146      27996.345     -18216.792     -423.27866      59375.718      39.012426      39.012426      39.012426      1.1205526      982.58142      1124.7688      1704.9775    
   1979000   1979000        297.82214     -133.05315      21710.312      21826.164      5343.3746      16482.789      3059.1124      5346.9628     -1552.7249      173.1504      -317.05571      27986.858     -18213.514     -420.95111      59704.022      39.084197      39.084197      39.084197      1.1143909     -238.36599      391.86836     -552.66182    
   1980000   1980000        305.02641     -236.20382      21675.624      21880.559      5472.6301      16407.929      2992.2377      5311.0228     -1559.4655      154.83614     -263.96559      27989.689     -18216.426     -422.45734      59491.154      39.037692      39.037692      39.037692      1.1183783     -67.271254      374.43422     -1015.7744    
   1981000   1981000        298.10496      850.51535      22434.548      21697.969      5348.4488      16349.52       2965.1394      5360.201      -1585.6321      151.08396     -313.08093      27987.965     -18216.157     -423.22712      59382.949      39.01401       39.01401       39.01401       1.1204162      1395.2492      1350.6241     -194.32734    
   1982000   1982000        301.08302      54.895542      21929.248      21881.568      5401.8796      16479.688      3060.54        5346.3474     -1560.2559      154.35869     -292.25624      27986.937     -18215.983     -421.99524      59556.298      39.051936      39.051936      39.051936      1.117155       852.94051     -1070.3942      382.14036    
   1983000   1983000        303.25548     -115.56362      21647.134      21747.396      5440.8568      16306.539      2966.701       5308.5681     -1546.7302      163.3297      -355.21856      27984.866     -18214.977     -422.46813      59489.634      39.037359      39.037359      39.037359      1.1184069     -792.23336      2456.6183     -2011.0758    
   1984000   1984000        303.04288      1155.9332      22914.607      21913.296      5437.0425      16476.254      3016.0986      5279.9718     -1510.4973      187.09752     -268.34135      27987         -18215.075     -423.13113      59396.42       39.01696       39.01696       39.01696       1.1201621      807.71522      836.14921      1823.9351    
   1985000   1985000        296.10342     -908.26802      20954.892      21741.152      5312.5382      16428.614      3037.0699      5322.7266     -1566.0204      163.81773     -305.74742      27990.386     -18213.619     -423.40815      59357.559      39.008449      39.008449      39.008449      1.1208954     -2081.4306     -710.25555      66.88205     
   1986000   1986000        298.69967      420.80917      22036.82       21674.286      5359.1189      16315.167      3027.1866      5225.5922     -1531.994       159.54311     -335.68004      27985.868     -18215.349     -425.4493       59072.783      38.945966      38.945966      38.945966      1.126299       1753.8229     -540.03562      48.640262    
   1987000   1987000        308.8947      -64.970818      21830.539      21886.43       5542.033       16344.397      2997.3261      5294.3704     -1539.716       156.96187     -336.88754      27988.043     -18215.7       -426.06968      58986.77       38.927054      38.927054      38.927054      1.1279413     -424.16547      817.88672     -588.63371    
   1988000   1988000        299.2736       435.46564      22127.462      21750.73       5369.4159      16381.314      3058.695       5259.9635     -1585.8621      158.66217     -284.57874      27989.827     -18215.393     -423.67493      59320.182      39.000259      39.000259      39.000259      1.1216017      1066.7541      1419.4195     -1179.7766    
   1989000   1989000        299.01508     -101.31758      21662.859      21750.523      5364.7778      16385.745      3042.2717      5201.0823     -1534.8325      160.2855      -263.95342      27996.207     -18215.316     -423.6203       59327.832      39.001935      39.001935      39.001935      1.1214571      555.58003     -804.25115     -55.2816      
   1990000   1990000        307.00243      1914.2381      23526.092      21872.168      5508.0829      16364.085      2947.5136      5236.1739     -1519.9104      150.47528     -234.68755      28001.608     -18217.088     -424.22049      59243.895      38.983533      38.983533      38.983533      1.1230459      1208.2983      1605.3558      2929.0601    
   1991000   1991000        294.62459      775.6733       22358.341      21686.888      5286.0057      16400.882      2963.6426      5349.2824     -1560.1443      170.04795     -317.13919      28008.342     -18213.149     -423.42302      59355.474      39.007992      39.007992      39.007992      1.1209348      1393.7168      2312.3935     -1379.0905    
   1992000   1992000        300.54391      757.85696      22473.76       21819.315      5392.2073      16427.107      2994.5517      5367.9729     -1600.5832      157.74113     -277.9597       28002.475     -18217.091     -424.44861      59212.055      38.976549      38.976549      38.976549      1.1236498     -380.41509      2608.3232      45.662716    
   1993000   1993000        297.71394      837.84432      22432.611      21709.099      5341.4333      16367.666      3034.835       5238.6204     -1549.1366      154.91308     -290.14888      27992.101     -18213.518     -424.45228      59211.542      38.976436      38.976436      38.976436      1.1236596      1173.4947      483.4708       856.56744    
   1994000   1994000        307.54569      60.853976      21896.089      21843.382      5517.8296      16325.553      3016.2099      5284.0116     -1593.1782      172.52821     -335.4094       27997.73      -18216.339     -423.18932      59388.253      39.015171      39.015171      39.015171      1.1203161     -763.79069      398.37837      547.97425    
   1995000   1995000        298.43209     -1154.4196      20862.774      21861.809      5354.3181      16507.491      3092.1658      5306.9111     -1558.9514      169.73357     -265.86263      27976.275     -18212.781     -423.53988      59339.097      39.004404      39.004404      39.004404      1.1212442      67.289292     -1646.5245     -1884.0236    
   1996000   1996000        299.84668     -994.64479      20859.881      21726.94       5379.698       16347.242      3018.7406      5280.8194     -1589.4911      153.0437      -297.28441      28000.818     -18219.404     -420.46567      59772.952      39.099233      39.099233      39.099233      1.1131057      1361.8237     -1593.3058     -2752.4524    
   1997000   1997000        301.20657     -293.63681      21473.555      21726.776      5404.0964      16322.68       3008.7499      5353.7888     -1601.3445      144.6866      -327.31959      27961.722     -18217.603     -425.03196      59130.787      38.958709      38.958709      38.958709      1.1251942     -3263.0445      1920.1831      461.95104    
   1998000   1998000        302.20364     -78.64804       21805.584      21873.331      5421.9852      16451.346      3022.2698      5381.3008     -1602.1597      162.62931     -278.8134       27978.488     -18212.368     -425.50308      59065.317      38.944325      38.944325      38.944325      1.1264414      854.37243      968.48387     -2058.8004    
   1999000   1999000        296.01684      881.74142      22489.36       21728.531      5310.9849      16417.546      3043.3133      5303.7065     -1593.0972      162.05261     -294.92105      28008.178     -18211.687     -424.78105      59165.715      38.966378      38.966378      38.966378      1.1245299      519.3643       227.20669      1898.6533    
   2000000   2000000        304.88841     -2273.8559      19962.578      21940.015      5470.1541      16469.861      3132.4892      5297.8712     -1564.6887      164.55157     -320.81774      27975.929     -18215.474     -421.47468      59629.855      39.068007      39.068007      39.068007      1.1157769     -1460.2067     -1661.5048     -3699.8562    
Loop time of 13376.9 on 8 procs for 2000000 steps with 6020 atoms

Performance: 12.918 ns/day, 1.858 hours/ns, 149.512 timesteps/s, 900.062 katom-step/s
97.4% CPU use with 8 MPI tasks x 1 OpenMP threads

MPI task timing breakdown:
Section |  min time  |  avg time  |  max time  |%varavg| %total
---------------------------------------------------------------
Pair    | 4673.1     | 4790.9     | 4935.7     | 137.6 | 35.81
Bond    | 2759.7     | 3172.1     | 3544.2     | 437.9 | 23.71
Kspace  | 1543.7     | 1927.7     | 2336.9     | 572.8 | 14.41
Neigh   | 1406.3     | 1496.4     | 1585.6     | 175.3 | 11.19
Comm    | 547.85     | 549.33     | 552.27     |   6.0 |  4.11
Output  | 6.7262     | 7.1887     | 7.6128     |  10.9 |  0.05
Modify  | 1164.9     | 1331.8     | 1535.9     | 327.5 |  9.96
Other   |            | 101.5      |            |       |  0.76

Nlocal:          752.5 ave         779 max         725 min
Histogram: 2 0 0 1 1 0 1 2 0 1
Nghost:        7018.25 ave        7093 max        6950 min
Histogram: 1 0 1 2 0 1 2 0 0 1
Neighs:              0 ave           0 max           0 min
Histogram: 8 0 0 0 0 0 0 0 0 0
FullNghs:       483706 ave      502938 max      458801 min
Histogram: 1 1 0 0 1 1 1 1 0 2

Total # of neighbors = 3869644
Ave neighs/atom = 642.79801
Ave special neighs/atom = 5.717608
Neighbor list builds = 70114
Dangerous builds = 0

# --- Cleanup ---
unfix npt_fix

undump dump_npt

# --- Write Output ---
write_dump all custom npt_prod300_last.dump id type mol x y z xu yu zu vx vy vz modify sort id
write_data /home/arz2/PolyJarvis/data/PMMA1/lammps/npt_prod300/npt_prod300_out.data
System init for write_data ...
PPPM initialization ...
  using 12-bit tables for long-range coulomb
  G vector (1/distance) = 0.24508949
  grid = 15 15 15
  stencil order = 5
  estimated absolute RMS force accuracy = 0.028318287
  estimated relative force accuracy = 8.5279679e-05
  using double precision KISS FFT
  3d grid and FFT values/proc = 2197 512
Generated 15 of 15 mixed pair_coeff terms from sixthpower/sixthpower mixing rule

print "STAGE COMPLETE: NPT T=300.0->300.0K P=1.0->1.0atm steps=2000000"
STAGE COMPLETE: NPT T=300.0->300.0K P=1.0->1.0atm steps=2000000
quit
