LAMMPS data file via write_data, version 22 Jul 2025, timestep = 500000, units = real

3620 atoms
4 atom types
3610 bonds
6 bond types
7200 angles
11 angle types
10710 dihedrals
13 dihedral types
4800 impropers
11 improper types

5.5539947647752825 42.83150026522311 xlo xhi
5.5539947647752825 42.83150026522311 ylo yhi
5.5539947647752825 42.83150026522311 zlo zhi

Masses

1 12.01115
2 12.01115
3 35.453
4 1.00797

Pair Coeffs # lj/class2/coul/long/kk

1 0.054 4.01
2 0.054 4.01
3 0.2247 3.92
4 0.02 2.995

Bond Coeffs # class2/kk

1 1.53 299.67 -501.77 679.81
2 1.53 299.67 -501.77 679.81
3 1.79 194.319 0 0
4 1.101 345 -691.89 844.6
5 1.79 194.319 0 0
6 1.101 345 -691.89 844.6

Angle Coeffs # class2/kk

1 112.67 39.516 -7.443 -9.5583
2 107 61.1745 0 0
3 110.77 41.453 -10.604 5.129
4 112.67 39.516 -7.443 -9.5583
5 107 61.1745 0 0
6 110.77 41.453 -10.604 5.129
7 112.67 39.516 -7.443 -9.5583
8 110.77 41.453 -10.604 5.129
9 107.997 51.0987 0 0
10 107.997 51.0987 0 0
11 107.66 39.641 -12.921 -2.4318

BondBond Coeffs

1 0 1.53 1.53
2 0 1.53 1.79
3 3.3872 1.53 1.101
4 0 1.53 1.53
5 0 1.53 1.79
6 3.3872 1.53 1.101
7 0 1.53 1.53
8 3.3872 1.53 1.101
9 0 1.79 1.101
10 0 1.79 1.101
11 5.3316 1.101 1.101

BondAngle Coeffs

1 8.016 8.016 1.53 1.53
2 0 0 1.53 1.79
3 20.754 11.421 1.53 1.101
4 8.016 8.016 1.53 1.53
5 0 0 1.53 1.79
6 20.754 11.421 1.53 1.101
7 8.016 8.016 1.53 1.53
8 20.754 11.421 1.53 1.101
9 0 0 1.79 1.101
10 0 0 1.79 1.101
11 18.103 18.103 1.101 1.101

Dihedral Coeffs # class2/kk

1 0 0 0.0514 0 -0.143 0
2 0 0 0 0 0.15 0
3 0 0 0.0316 0 -0.1681 0
4 0 0 0.0514 0 -0.143 0
5 0 0 0.0316 0 -0.1681 0
6 0 0 0 0 0.15 0
7 0 0 0.0316 0 -0.1681 0
8 0 0 0 0 0.15 0
9 0 0 0.0316 0 -0.1681 0
10 0 0 0 0 -0.1 0
11 0 0 0 0 -0.1 0
12 -0.1432 0 0.0617 0 -0.1083 0
13 -0.1432 0 0.0617 0 -0.1083 0

AngleAngleTorsion Coeffs

1 -22.045 112.67 112.67
2 0 112.67 107
3 -16.164 112.67 110.77
4 -22.045 112.67 112.67
5 -16.164 112.67 110.77
6 0 112.67 107
7 -16.164 112.67 110.77
8 0 112.67 107
9 -16.164 112.67 110.77
10 0 107 110.77
11 0 107 110.77
12 -12.564 110.77 110.77
13 -12.564 110.77 110.77

EndBondTorsion Coeffs

1 -0.0732 0 0 -0.0732 0 0 1.53 1.53
2 0 0 0 0 0 0 1.53 1.79
3 0.2486 0.2422 -0.0925 0.0814 0.0591 0.2219 1.53 1.101
4 -0.0732 0 0 -0.0732 0 0 1.53 1.53
5 0.2486 0.2422 -0.0925 0.0814 0.0591 0.2219 1.53 1.101
6 0 0 0 0 0 0 1.53 1.79
7 0.2486 0.2422 -0.0925 0.0814 0.0591 0.2219 1.53 1.101
8 0 0 0 0 0 0 1.53 1.79
9 0.2486 0.2422 -0.0925 0.0814 0.0591 0.2219 1.53 1.101
10 0 0 0 0 0 0 1.79 1.101
11 0 0 0 0 0 0 1.79 1.101
12 0.213 0.312 0.0777 0.213 0.312 0.0777 1.101 1.101
13 0.213 0.312 0.0777 0.213 0.312 0.0777 1.101 1.101

MiddleBondTorsion Coeffs

1 -17.787 -7.1877 0 1.53
2 0 0 0 1.53
3 -14.879 -3.6581 -0.3138 1.53
4 -17.787 -7.1877 0 1.53
5 -14.879 -3.6581 -0.3138 1.53
6 0 0 0 1.53
7 -14.879 -3.6581 -0.3138 1.53
8 0 0 0 1.53
9 -14.879 -3.6581 -0.3138 1.53
10 0 0 0 1.53
11 0 0 0 1.53
12 -14.261 -0.5322 -0.4864 1.53
13 -14.261 -0.5322 -0.4864 1.53

BondBond13 Coeffs

1 0 1.53 1.53
2 0 1.53 1.79
3 0 1.53 1.101
4 0 1.53 1.53
5 0 1.53 1.101
6 0 1.53 1.79
7 0 1.53 1.101
8 0 1.53 1.79
9 0 1.53 1.101
10 0 1.79 1.101
11 0 1.79 1.101
12 0 1.101 1.101
13 0 1.101 1.101

AngleTorsion Coeffs

1 0.3886 -0.3139 0.1389 0.3886 -0.3139 0.1389 112.67 112.67
2 0 0 0 0 0 0 112.67 107
3 -0.2454 0 -0.1136 0.3113 0.4516 -0.1988 112.67 110.77
4 0.3886 -0.3139 0.1389 0.3886 -0.3139 0.1389 112.67 112.67
5 -0.2454 0 -0.1136 0.3113 0.4516 -0.1988 112.67 110.77
6 0 0 0 0 0 0 112.67 107
7 -0.2454 0 -0.1136 0.3113 0.4516 -0.1988 112.67 110.77
8 0 0 0 0 0 0 112.67 107
9 -0.2454 0 -0.1136 0.3113 0.4516 -0.1988 112.67 110.77
10 0 0 0 0 0 0 107 110.77
11 0 0 0 0 0 0 107 110.77
12 -0.8085 0.5569 -0.2466 -0.8085 0.5569 -0.2466 110.77 110.77
13 -0.8085 0.5569 -0.2466 -0.8085 0.5569 -0.2466 110.77 110.77

Improper Coeffs # class2/kk

1 0 0
2 0 0
3 0 0
4 0 0
5 0 0
6 0 0
7 0 0
8 0 0
9 0 0
10 0 0
11 0 0

AngleAngle Coeffs

1 0 0 0 107 110.77 107.997
2 0.1184 -1.3199 -1.3199 110.77 112.67 110.77
3 0 0 0 110.77 107 107.997
4 0.2738 -0.4825 0.2738 110.77 110.77 107.66
5 -1.3199 -1.3199 0.1184 112.67 110.77 110.77
6 0.2738 -0.4825 0.2738 110.77 110.77 107.66
7 0 0 0 107.997 107.997 107.66
8 -0.3157 -0.3157 -0.3157 107.66 107.66 107.66
9 0 0 0 112.67 107 107
10 -1.3199 -1.3199 0.1184 112.67 110.77 110.77
11 0 0 0 107 110.77 107.997

Atoms # full/kk

3611 10 4 0.053 9.212886958161322 5.936910563185789 9.209739439306635 0 1 1
3604 10 2 0.131 9.68151414577899 42.21556346448327 6.459518468953988 0 0 1
250 1 2 0.131 5.6940432969504755 11.444253372815854 42.42115386796878 0 1 -1
3612 10 3 -0.184 7.448468383679233 42.04526094628344 9.934822948827847 0 0 1
3605 10 4 0.053 9.003745053020252 42.595202777145865 5.664993512239393 0 0 1
3615 10 4 0.053 7.850794678748085 7.39025231549763 7.3273098264169345 0 1 1
3610 10 2 0.131 8.345481841941773 5.605754471846069 8.670254177612778 0 1 1
3609 10 4 0.053 9.682199272212237 41.272380146490256 8.31968856651266 0 0 1
3614 10 4 0.053 6.624828516373282 6.097483610908491 7.40586900689133 0 1 1
3613 10 1 -0.106 7.381462626780439 6.60324496229968 8.082892109921204 0 1 1
3607 10 1 -0.106 8.88269493299545 41.82935611128806 7.746603606927455 0 0 1
257 1 4 0.053 6.238863302593513 11.265996660947764 7.869079454384352 0 1 0
258 1 3 -0.184 8.591718582846914 10.916221648229532 7.782300885318473 0 1 0
3606 10 3 -0.184 10.525731250960117 6.431620905435715 6.718000651322233 0 1 1
1894 6 3 -0.184 10.289277255486656 9.276579848899722 11.455996144971042 0 1 0
3617 10 4 0.053 7.3851861639125715 8.139524335840704 9.538521147456988 0 1 1
315 1 4 0.053 15.055706857376908 41.440382314132684 6.330071202246738 0 0 0
296 1 4 0.053 13.331539679936228 9.191280380815602 6.255202822311526 0 1 0
1893 6 4 0.053 12.644169459211568 9.042655464487886 11.501219695258246 0 1 0
1896 6 4 0.053 12.183518208783171 11.570075291623688 11.375385010224123 0 1 0
310 1 2 0.131 16.833072321300286 42.527230826053234 6.167984053653008 0 0 0
295 1 1 -0.106 13.813593410932995 10.038620931589502 6.795961608167194 0 1 0
305 1 4 0.053 14.480636379887985 6.95431502231267 6.3390138968662475 0 1 0
298 1 2 0.131 15.286775047374888 9.483637556278614 7.112684295802569 0 1 0
297 1 4 0.053 13.427914674162693 10.322824603574222 7.890221023439111 0 1 0
304 1 2 0.131 15.065957965437821 6.9229552971124075 7.3230078609924245 0 1 0
301 1 1 -0.106 15.029761169003095 8.295549324832884 8.005969071445936 0 1 0
302 1 4 0.053 14.067535013995338 8.408529190175166 8.462908591663316 0 1 0
307 1 1 -0.106 16.544141040501273 6.362255712256697 7.255895768459352 0 1 0
303 1 4 0.053 15.726696554314774 8.234422856469331 8.76680386998667 0 1 0
308 1 4 0.053 16.775729061282206 5.994033847095189 8.325082280687807 0 1 0
306 1 3 -0.184 14.215873804655729 5.824115440926888 8.442221209509562 0 1 0
1903 6 4 0.053 13.02980363413467 13.570141729726528 12.249858009222633 0 1 0
131 1 4 0.053 20.886908601667475 7.490213530155871 8.101793207759151 0 1 0
130 1 2 0.131 21.81685514603604 7.72115768846292 7.62930398450164 0 1 0
2186 7 4 0.053 22.20456387894393 10.75960693761049 10.716570983652927 0 1 0
3088 9 3 -0.184 19.304024929282804 7.023936955890726 10.371073709690714 0 1 1
134 1 4 0.053 20.586579690468923 8.557861480562227 6.154946602071902 0 1 0
136 1 2 0.131 22.606993659099615 8.967325015955495 42.63314869627076 0 1 -1
137 1 4 0.053 23.626977393162456 8.47302958873994 5.603378739431411 0 1 0
2184 7 3 -0.184 19.625285214898028 9.532375216531321 11.65034996081124 0 1 0
2185 7 1 -0.106 22.304569952779847 10.148099313698992 11.72339121186954 0 1 0
133 1 1 -0.106 21.63428144014605 8.844098617390978 6.607493629842068 0 1 0
2187 7 4 0.053 22.443153636279316 9.09417464761519 11.444079277820121 0 1 0
135 1 4 0.053 21.410922371920073 9.800123348773674 7.085461897603172 0 1 0
138 1 3 -0.184 23.027735635068318 10.780708083920578 42.438035802632974 0 1 -1
2188 7 2 0.131 23.578225884867905 10.60018711029635 12.493911706882109 0 1 0
132 1 3 -0.184 22.85030910050544 8.399176638027889 8.761404094790631 0 1 0
2208 7 3 -0.184 28.928450995956595 11.118185482540483 5.624076678885629 0 1 0
868 3 3 -0.184 26.326153553442513 5.883639468054601 6.160550135885567 0 0 0
863 3 1 -0.106 29.078811654845186 6.217771211195338 42.82049579159366 0 0 -1
2197 7 1 -0.106 25.797002203807057 11.560705577673994 9.507414691807082 0 1 0
2194 7 2 0.131 25.04322413453826 11.594379148042147 10.808097872649709 0 1 0
2192 7 4 0.053 25.60111611029741 10.293976078138979 12.427347519673244 0 1 0
866 3 2 0.131 27.653440597953836 6.8937537630833905 42.6768904017396 0 0 -1
867 3 4 0.053 27.31743665881098 7.8872359504433085 5.832375305877368 0 0 0
2191 7 1 -0.106 24.797399432803115 10.368650649111839 11.699687164416275 0 1 0
2198 7 4 0.053 24.901302784879856 11.563279112121343 8.866462254177486 0 1 0
2193 7 4 0.053 24.683614871178946 9.5240594085022 11.134008066850354 0 1 0
2203 7 1 -0.106 27.527764205412137 10.357940230623182 7.899676246700349 0 1 0
2200 7 2 0.131 26.882389970714513 10.447420422894826 9.366592947211284 0 1 0
2205 7 4 0.053 26.819043570208557 10.083490949472736 7.055159847304559 0 1 0
2201 7 4 0.053 26.4494873630831 9.51330911239592 9.635099988608644 0 1 0
2204 7 4 0.053 28.26134027638333 9.560227834130034 7.945691792229812 0 1 0
852 3 4 0.053 34.04150155877856 41.94403490557318 6.701862308404747 0 -1 0
1807 5 4 0.053 34.17344061349192 11.446061062405382 9.513102724539308 0 1 0
1792 5 4 0.053 30.71881393616488 42.818221385251015 11.42812841092614 0 0 0
861 3 4 0.053 30.055203051910972 7.609058042808325 7.0399370692649414 0 0 0
862 3 3 -0.184 29.590608639724046 5.786217590121521 8.22045992210826 0 0 0
860 3 2 0.131 30.000208525323664 6.55857058066586 6.737892626947239 0 0 0
857 3 1 -0.106 31.4973644376519 6.202865524051185 6.261935489085243 0 0 0
856 3 3 -0.184 32.704730790824044 5.56809326736704 8.742837221771019 0 0 0
1791 5 1 -0.106 30.12977079068235 6.359567421591047 11.935655921417593 0 1 0
1793 5 4 0.053 29.789485167969445 6.980372087200509 11.133513907561362 0 1 0
1799 5 4 0.053 32.606629036357134 7.075526086618258 11.77194003770674 0 1 0
849 3 4 0.053 35.5150935880023 6.68476050440838 8.244644730528972 0 0 0
1804 5 4 0.053 33.64704759612349 10.43834884390126 11.89995082798846 0 1 0
1800 5 2 0.131 31.884563724757474 9.178563485276651 11.250199416031489 0 1 0
1810 5 4 0.053 32.60759525243347 10.962116049555544 8.958249841274338 0 1 0
1802 5 3 -0.184 31.46101254396781 8.5491043344222 9.5748328354895 0 1 0
1801 5 4 0.053 30.861666368264654 9.732357518551687 11.501971270308648 0 1 0
854 3 2 0.131 32.741952253592984 6.363183445955054 7.197655795017845 0 0 0
855 3 4 0.053 33.0389465182804 7.421006915155692 7.332149361929288 0 0 0
851 3 1 -0.106 34.108279836084904 5.799366527003131 6.517434486703783 0 0 0
1803 5 1 -0.106 33.151993768069204 10.062057415606827 10.996822198486715 0 1 0
1805 5 4 0.053 33.989915021818575 9.422961379374318 10.702600145011523 0 1 0
1806 5 1 0.078 33.20890115875426 11.117780150127956 9.893085091023211 0 1 0
848 3 2 0.131 35.39812496762731 6.359862773336042 7.120616125536713 0 0 0
850 3 3 -0.184 35.75840109908515 8.012010192109493 6.305599712211461 0 0 0
838 3 3 -0.184 38.09015336575733 5.698367187697687 9.459329854182462 0 0 0
247 1 1 -0.106 41.56716819837382 11.87403591310678 5.8662783755828825 -1 1 0
240 1 3 -0.184 39.01364793987565 10.142892420190702 7.566033686692148 -1 1 0
248 1 4 0.053 41.34073231372891 11.084847920571512 6.583213499345363 -1 1 0
751 3 4 0.053 40.6939502799376 8.188427648562023 11.610307613277318 0 0 0
739 3 4 0.053 36.51611803215439 10.670325745593075 13.531140747196764 0 0 0
3616 10 1 0.078 6.5512504652705035 7.4556217028193075 9.159885924392034 0 1 1
738 3 4 0.053 35.58413629403836 11.234974815541026 12.341404848067155 0 0 0
3620 10 4 0.053 6.157653953128881 6.96106128419944 9.99724657359136 0 1 1
3618 10 3 -0.184 42.5618157186038 8.248947461183775 8.183749888154937 -1 1 1
846 3 4 0.053 37.638443821124284 6.2027495939423165 6.963020921021979 0 0 0
845 3 1 -0.106 36.70022765594723 42.827943638264415 6.739571735928017 0 -1 0
747 3 4 0.053 39.88308300751042 10.379915262793698 10.540837712409205 0 0 0
748 3 3 -0.184 40.980869722481394 11.990035250839469 11.660066532134412 0 0 0
2762 8 3 -0.184 6.714050319787117 16.733949348763506 6.063389575786537 0 0 0
254 1 4 0.053 7.826989843683108 11.405450881249333 42.68634303937515 0 1 -1
275 1 4 0.053 11.932407333540068 16.582322401862413 10.236701180106733 0 1 0
2755 8 4 0.053 10.039390834965506 17.330820156289718 5.5962044110886 0 0 0
255 1 4 0.053 7.158339991973398 13.010127488679412 5.642093832007948 0 1 0
272 1 4 0.053 11.08179767013409 14.220189159242457 9.51016228788352 0 1 0
278 1 4 0.053 11.81279107166419 15.920587600483385 7.23329582723477 0 1 0
260 1 4 0.053 6.462838930613086 13.954552770288325 8.175945925983326 0 1 0
267 1 4 0.053 7.196216445363753 15.185485441240594 10.316247281088488 0 1 0
265 1 1 -0.106 7.999361708872432 14.419957125618955 10.508573286765367 0 1 0
268 1 2 0.131 9.467662871024334 15.134767451184791 10.698263967861953 0 1 0
262 1 2 0.131 7.731058690880218 13.122141379919476 9.755593804410776 0 1 0
259 1 1 -0.106 7.377803800628989 13.27475512480337 8.250144480355111 0 1 0
261 1 4 0.053 8.129352207710635 13.91845815492239 7.696293895599422 0 1 0
2774 8 3 -0.184 7.080752734848884 17.671694462417733 9.35368148215413 0 0 0
264 1 3 -0.184 6.28046047366123 12.274871125761482 10.443020937212271 0 1 0
256 1 2 0.131 7.111154560732672 11.84323652376155 7.497213941117588 0 1 0
253 1 1 -0.106 7.050024508173141 11.99492864806166 5.920972606904298 0 1 0
273 1 4 0.053 9.76888957935871 15.097673404729274 8.578609462848503 0 1 0
271 1 1 -0.106 10.434493537619108 15.187784531809337 9.484801215921545 0 1 0
274 1 2 0.131 11.382193508425978 16.46338980829816 9.336000372646799 0 1 0
269 1 4 0.053 9.197496892862794 16.1717019247641 10.90543209944748 0 1 0
263 1 4 0.053 8.64262799893898 12.47283790537628 9.845041589339914 0 1 0
290 1 4 0.053 13.30740780675362 12.394369749494555 7.669375857578675 0 1 0
283 1 1 -0.106 14.487989361063239 15.042328136164645 7.187438641570696 0 1 0
282 1 3 -0.184 14.779561402169529 16.04433089789839 9.550841464245087 0 1 0
285 1 4 0.053 15.54434467704739 14.68279941274742 7.471082758733603 0 1 0
29 1 4 0.053 17.8011101810405 18.484892807475042 7.729408472433633 0 0 0
289 1 1 -0.106 14.105071418093134 12.558558839448759 6.843678203449117 0 1 0
299 1 4 0.053 15.907039242435737 10.202483241345645 7.667192856603235 0 1 0
277 1 1 -0.106 12.376054783697535 16.221497890557085 8.125166733929465 0 1 0
291 1 4 0.053 15.037466577990955 12.57794277112109 7.386884342844241 0 1 0
286 1 2 0.131 14.039063442826967 13.934565091750022 6.110890412086623 0 1 0
284 1 4 0.053 14.547432381794978 15.852802114418994 6.567884832342224 0 1 0
1912 6 3 -0.184 16.385657143446558 16.170364600619017 12.338803191607909 0 1 0
281 1 4 0.053 13.257869658960615 14.31369744039981 8.842019758964808 0 1 0
280 1 2 0.131 13.613287466586765 15.287782060366306 8.388452336865425 0 1 0
1964 6 2 0.131 22.607437637095465 14.877275525052426 7.55879830106982 0 1 0
1965 6 4 0.053 21.62634842582078 15.17083677411858 7.091596913692762 0 1 0
1958 6 2 0.131 22.5737974920864 16.35625942009837 9.560392719004659 0 1 0
1960 6 3 -0.184 22.679637191210993 18.142117560720262 9.506149324792867 0 1 0
1966 6 3 -0.184 22.358920881754443 13.50375377200615 8.717349054367974 0 1 0
1959 6 4 0.053 21.50815955644382 16.134917181487346 9.444242081365838 0 1 0
1955 6 1 -0.106 23.080070072974504 15.80220337140949 10.873462819597838 0 1 0
1961 6 1 -0.106 23.409897877253258 15.829408093403863 8.31033753580548 0 1 0
1962 6 4 0.053 24.265879581062997 15.253520246226534 8.669450808948785 0 1 0
1967 6 1 -0.106 23.361236655986232 14.163418920918271 6.439082589621187 0 1 0
1970 6 2 0.131 24.42332148146754 14.897821124468512 5.554117614863664 0 1 0
1957 6 4 0.053 22.87615500948768 14.668472218696445 11.034382945521472 0 1 0
1953 6 4 0.053 22.36943667993693 17.69639365572244 12.120285603034143 0 1 0
1968 6 4 0.053 23.9775435443213 13.278165849379588 6.804598975093755 0 1 0
1963 6 4 0.053 23.775842920522734 16.66397745602895 7.640659896473537 0 1 0
1971 6 4 0.053 25.271369789158086 15.27972899790745 6.217246581339133 0 1 0
28 1 2 0.131 18.54041984934343 18.91249935335842 7.104102942051713 0 0 0
2223 7 4 0.053 29.426471389864645 17.58521267915794 8.65998289741763 0 1 0
2225 7 4 0.053 27.02204033598101 17.20518600642677 8.93665355314118 0 1 0
2233 7 1 -0.106 29.52458162995728 16.66719016476793 12.628910775588764 0 1 0
1956 6 4 0.053 24.173584958765492 15.779627212703495 10.950177206165932 0 1 0
2195 7 4 0.053 23.95953535696229 12.023474124616873 10.578342811149934 0 1 0
2219 7 4 0.053 27.877734927549923 15.160327684359672 7.851602779708772 0 1 0
2218 7 2 0.131 28.694054020378537 15.832006848075828 7.7315006727642706 0 1 0
2224 7 2 0.131 27.670366002858696 16.92034523812821 9.764180202281059 0 1 0
2221 7 1 -0.106 29.041948348309813 16.603355963272193 9.084722535132164 0 1 0
2222 7 4 0.053 29.833960178379275 16.131216691975524 9.713812491950724 0 1 0
2226 7 3 -0.184 26.890450116595737 15.313322946275058 10.369898204902118 0 1 0
2207 7 4 0.053 27.290565590869925 12.279904156420404 6.742476055622622 0 1 0
2196 7 3 -0.184 25.934661663983814 12.712556554391018 11.935532127545057 0 1 0
2199 7 4 0.053 26.264139609679575 12.566914140535228 9.300384579328261 0 1 0
2206 7 2 0.131 28.205528327951168 11.610241056893562 7.22253253050539 0 1 0
2211 7 4 0.053 28.640597690072553 12.80145645325956 8.977554768765746 0 1 0
2215 7 1 -0.106 29.73197733977293 14.984426836689098 7.008761788514943 0 1 0
2209 7 1 -0.106 29.208611177733765 12.385409407590096 8.070682560513871 0 1 0
2235 7 4 0.053 29.903037120035588 16.061607345452025 11.819303668085286 0 1 0
2202 7 3 -0.184 28.319723004307917 10.790629001686677 10.370331044525997 0 1 0
2214 7 3 -0.184 31.416541387018082 12.91894301982354 6.641012583347887 0 1 0
592 2 4 0.053 35.27737578733583 17.22508161286358 7.599929892664302 -1 0 0
590 2 3 -0.184 32.3987158650294 17.884943166996266 8.143806629982254 -1 0 0
2234 7 4 0.053 30.36054008074527 17.030350043682226 13.261016890354433 0 1 0
230 1 4 0.053 34.571563117758295 13.979694490464691 42.61665298412219 -1 1 -1
2212 7 2 0.131 30.02736870138828 13.67338273805697 7.681987607686143 0 1 0
231 1 4 0.053 34.52574505589564 12.451149366370757 6.26297825624153 -1 1 0
229 1 1 -0.106 35.06869843120893 13.003203830131227 42.70145879046129 -1 1 -1
2210 7 4 0.053 29.865037763555623 11.668420059673602 8.531856326591623 0 1 0
2213 7 4 0.053 30.393809889731536 13.920837779686323 8.757030668513206 0 1 0
726 3 4 0.053 36.798911519426454 17.052268334880026 11.828135683882778 0 0 0
1808 5 3 -0.184 32.56341415033671 12.629513330935481 10.61484968489695 0 1 0
725 3 1 -0.159 36.13334156837358 16.389257699612767 12.478168959933614 0 0 0
1085 3 4 0.053 35.146123572779345 16.359124622956674 11.940402062662814 0 0 0
727 3 4 0.053 35.98573171968056 16.8159549647347 13.488033252486085 0 0 0
246 1 3 -0.184 40.1883935778366 13.687218386167435 41.58094296779676 -1 1 -1
241 1 1 -0.106 39.092556623945185 11.548091456309448 42.343091162972875 -1 1 -1
729 3 4 0.053 36.663666455546135 14.342699495197703 11.826883787672369 0 0 0
234 1 3 -0.184 36.75062490613989 14.351668841236473 7.074246811511679 -1 1 0
730 3 3 -0.184 38.514270537754086 15.341782221021784 13.117408361438322 0 0 0
232 1 2 0.131 36.52470120579011 13.119311776579915 5.790573321641279 -1 1 0
237 1 4 0.053 36.655645224562214 11.015777002676806 6.214518540421584 -1 1 0
235 1 1 -0.106 37.106593448062185 11.884772214028182 6.594358002966217 -1 1 0
236 1 4 0.053 36.74899870216177 12.002410669480092 7.682733791131857 -1 1 0
239 1 4 0.053 39.14707489003802 12.535770915764994 7.10675160191197 -1 1 0
238 1 2 0.131 38.602378531378356 11.716923950460146 6.573632864217947 -1 1 0
249 1 4 0.053 41.63152491989141 12.875322867606554 6.262337046506423 -1 1 0
728 3 2 0.131 36.78882400727406 14.950060839290193 12.711632065997144 0 0 0
2779 8 4 0.053 42.38577818022997 17.660639903080288 10.974510237353883 -1 0 0
2768 8 3 -0.184 6.416547098407304 21.17586851521944 5.973681198281878 0 0 0
2772 8 2 0.131 6.719039490121324 19.349537535446046 9.652505571801854 0 0 0
2764 8 4 0.053 8.402888680657751 18.341639667952577 6.933917479441917 0 0 0
2766 8 2 0.131 6.772795873376004 19.719558002535443 6.946644417987751 0 0 0
2773 8 4 0.053 7.0633465845394845 19.565054075567055 10.700666324742398 0 0 0
2763 8 1 -0.106 7.916235856337875 19.032706035435996 6.16619043763574 0 0 0
404 2 3 -0.184 8.674369620947324 25.08005679737548 7.848737438067749 0 0 1
402 2 2 0.131 10.37155671711313 24.311790861963505 7.65092953900662 0 0 1
399 2 1 -0.106 10.588102688429899 23.11851353777492 8.54093332211854 0 0 1
2770 8 4 0.053 6.939662126627855 21.32879600458113 8.660805739358695 0 0 0
2769 8 1 -0.106 7.196334210650938 20.20542622491412 8.417266128800794 0 0 0
2771 8 4 0.053 8.344028491152594 20.08678597002822 8.206517229243891 0 0 0
407 2 4 0.053 10.707182718607466 25.363884829560508 5.787524437428981 0 0 1
405 2 1 -0.106 10.590663998882487 24.254802099845648 6.080207820680059 0 0 1
406 2 4 0.053 11.506332841328955 23.629422788008544 5.800142157958481 0 0 1
396 2 2 0.131 11.928031594161766 22.66844796295997 9.145450133140352 0 0 1
397 2 4 0.053 12.735401847531136 22.317670394858897 8.318848623998013 0 0 1
400 2 4 0.053 10.034602996554197 22.323442429848583 7.9770370297840305 0 0 1
394 2 4 0.053 10.960311468660802 20.75349992834891 9.73792773254487 0 0 1
393 2 1 -0.106 11.526289310060719 21.56518623261966 10.230672257255101 0 0 1
395 2 4 0.053 10.651082654736618 22.0960184136468 10.875511595435025 0 0 1
276 1 3 -0.184 10.13582098783515 17.70292112130665 8.895572795976753 0 1 0
279 1 4 0.053 12.861361658123805 17.153858365389816 7.737946884877299 0 1 0
398 2 3 -0.184 12.70319615764954 24.047555274379857 9.849907613096233 0 0 1
48 1 3 -0.184 17.706398139054564 22.59368300796237 10.177691765703132 0 0 0
390 2 2 0.131 12.466069874150763 20.68044558233737 11.17447351889749 0 0 1
34 1 2 0.131 16.725301902293737 20.79676842492033 7.106628226503487 0 0 0
36 1 3 -0.184 15.39832644050858 19.716220938258786 7.34728780549641 0 0 0
35 1 4 0.053 17.02563946662829 20.879933609978114 8.148741319354608 0 0 0
39 1 4 0.053 15.112417097864702 22.174181260693103 7.091183932766634 0 0 0
37 1 1 -0.106 16.131578208763226 22.032519983329628 6.4293239626610275 0 0 0
43 1 1 -0.106 17.372471533019503 24.023268776702928 7.953355321881521 0 0 0
40 1 2 0.131 16.942950343281115 23.38874929214281 6.576518056621309 0 0 0
392 2 3 -0.184 12.443381800358704 19.034258439988953 10.421075929164836 0 0 1
391 2 4 0.053 13.399592034361518 21.048844917693764 11.427164692858918 0 0 1
44 1 4 0.053 16.45105001874628 24.12911409419397 8.558689439244535 0 0 0
30 1 3 -0.184 19.829350570138523 19.859928682612228 8.154641774627702 0 0 0
59 1 4 0.053 22.105408818592093 23.525424836886085 10.52400440270693 0 0 0
1930 6 3 -0.184 20.682388736745104 21.24307530054451 11.636098023750295 0 1 0
1942 6 3 -0.184 25.25896554010305 19.481031684837923 13.465530517684792 0 1 0
49 1 1 -0.106 19.807394539364147 24.018993654403353 9.210714633771202 0 0 0
51 1 4 0.053 20.198963673388583 23.564104354279102 10.171475810344754 0 0 0
47 1 4 0.053 18.852078763583336 22.49844245976205 8.043521533681792 0 0 0
41 1 4 0.053 17.920877075420684 23.332241541612156 6.052759469341723 0 0 0
46 1 2 0.131 18.503076246305557 23.206748250279933 8.768676134815172 0 0 0
53 1 4 0.053 21.175914789496197 22.97212205288713 7.752480552385915 0 0 0
545 2 4 0.053 23.806718367701375 22.77329338852137 6.046330362287459 -1 0 0
45 1 4 0.053 17.81787752487506 25.031997806251873 7.707925692895382 0 0 0
60 1 3 -0.184 23.712060078637993 22.146453749279548 9.35646360541472 0 0 0
543 2 1 -0.106 24.156844053651607 22.19354319529778 42.451023302303454 -1 0 -1
548 2 3 -0.184 23.41737142206358 20.231178937715207 6.72694622467129 -1 0 0
538 2 4 0.053 25.72672001385493 22.5480424421381 7.331182470847067 -1 0 0
540 2 2 0.131 25.641372839203967 22.040749023324548 42.542172080282064 -1 0 -1
2228 7 4 0.053 26.609095308432472 17.641764940125178 11.811370193562714 0 1 0
537 2 1 -0.106 26.202508464470416 21.783634289373158 6.673486199726496 -1 0 0
534 2 2 0.131 27.75405893449682 21.704748806702998 6.879752071797172 -1 0 0
2229 7 4 0.053 27.555983937106983 18.88545960811736 10.832755854579853 0 1 0
539 2 4 0.053 25.71690095417244 20.90338701743007 7.204754513436736 -1 0 0
532 2 4 0.053 27.7118956352505 21.13298338234056 8.914422273673587 -1 0 0
531 2 1 -0.106 28.321451130486274 21.746471932547234 8.331079890409624 -1 0 0
536 2 3 -0.184 28.37166975539469 20.401970664321443 5.884448078358015 -1 0 0
533 2 4 0.053 29.306529072188688 21.353256016858055 8.323196322821435 -1 0 0
530 2 3 -0.184 29.05675302509941 22.747346346419604 10.532973195170163 -1 0 0
2227 7 1 -0.106 27.56111173228684 17.81803532341754 11.111628984046359 0 1 0
2231 7 4 0.053 28.292336639884525 18.198726929968828 13.13858394064405 0 1 0
2230 7 2 0.131 28.73732124631992 17.886719475705725 12.191118800982037 0 1 0
535 2 4 0.053 28.002528477215247 22.58286192562641 6.255536499508753 -1 0 0
529 2 4 0.053 27.292294410421718 23.332540655069813 9.27271276782136 -1 0 0
528 2 2 0.131 28.33873389473012 23.112414189408547 9.012316366609477 -1 0 0
2232 7 3 -0.184 30.009784219301373 19.09660865588684 11.764313844373703 0 1 0
589 2 4 0.053 33.267969538373094 18.91144167926668 6.28212571496752 -1 0 0
593 2 4 0.053 34.88920014577046 18.178207764761453 8.858866289210948 -1 0 0
596 2 3 -0.184 35.290849774718815 20.862950240599904 7.783064520143106 -1 0 0
591 2 1 -0.106 34.91308468202375 18.19379499477689 7.70208321086503 -1 0 0
588 2 2 0.131 33.59868491564769 18.089522824623828 6.971500160937501 -1 0 0
594 2 2 0.131 35.98258859974365 19.254036400057025 7.245363702980784 -1 0 0
598 2 4 0.053 37.56311140563149 19.087821489319715 8.772129877942337 -1 0 0
595 2 4 0.053 35.98626425817146 19.382002240929275 6.161130776850197 -1 0 0
2165 6 1 -0.106 33.089674727773925 20.50716335192503 12.59022962120167 0 1 -1
2167 6 4 0.053 33.95844699255956 20.3235394923906 11.95408142908313 0 1 -1
2169 6 4 0.053 32.2616586930215 22.46262984082558 13.15324130729971 0 1 -1
2168 6 1 0.078 32.74192435214823 21.993076932754523 12.276540558642898 0 1 -1
2172 6 4 0.053 32.01005142522991 22.106575490795553 11.435619850864002 0 1 -1
2166 6 4 0.053 32.423738164567524 19.836927258699525 12.165286630388527 0 1 -1
608 2 3 -0.184 40.89921154714112 22.97224318463791 8.210145683041961 -1 0 0
599 2 4 0.053 37.6266583510429 17.961683380559325 7.372894700332299 -1 0 0
609 2 1 -0.106 39.620900242188824 22.94199241562367 5.744561240537265 -1 0 0
610 2 4 0.053 39.1867445825546 23.84621842654214 6.297544640689604 -1 0 0
613 2 4 0.053 41.60157592155326 23.85268306102909 42.2594763961026 -1 0 -1
597 2 1 -0.106 37.3989172617584 18.978118081395046 7.698782503258211 -1 0 0
604 2 4 0.053 38.110698281476736 21.474716613818707 8.059090470220196 -1 0 0
603 2 1 -0.106 39.11413943633951 20.99206660647923 7.671012927021328 -1 0 0
607 2 4 0.053 41.03362901942551 21.27067556819845 6.495716804276367 -1 0 0
606 2 2 0.131 40.2014974152895 21.97199340818077 6.925065266856934 -1 0 0
605 2 4 0.053 39.763237485251565 20.642354641386987 8.490045332165638 -1 0 0
602 2 3 -0.184 40.125536611115535 18.65179824807575 6.845893351420939 -1 0 0
600 2 2 0.131 38.68117718068341 19.804312169837907 6.927564595895841 -1 0 0
2776 8 4 0.053 41.993716889512385 19.529850384096154 8.97515432211925 -1 0 0
2778 8 2 0.131 42.00205613692766 18.722728500892906 11.078349791262104 -1 0 0
2777 8 4 0.053 42.32731923933155 20.635275707128223 10.201663254812567 -1 0 0
601 2 4 0.053 38.40864220579805 20.03539227253339 5.839796251894985 -1 0 0
2767 8 4 0.053 5.794588079925757 19.01996789787716 6.89177158344975 0 0 0
2775 8 1 -0.106 42.58641787261715 19.654104149691374 9.943248140997465 -1 0 0
500 2 3 -0.184 37.30286525967853 22.7586832208339 10.585212290944211 -1 0 0
611 2 4 0.053 38.75858555755151 22.477159801608046 42.502726904903035 -1 0 -1
2646 8 2 0.131 42.253408604790536 27.22637843607775 11.150445930327802 -1 0 0
2640 8 2 0.131 42.58860890131804 28.07334002539186 8.723957185869452 -1 0 0
2638 8 4 0.053 7.1145641324092255 28.795406761536658 7.571682079494551 0 0 0
2634 8 2 0.131 42.816896588182644 28.606622138089865 6.114014577109469 -1 0 0
2637 8 1 -0.106 6.303892431099221 28.1117637581292 7.436009779662792 0 0 0
2643 8 1 -0.106 5.809059092976485 27.16494479427724 9.849431825303974 0 0 0
2645 8 4 0.053 6.826178363688613 27.49663953388589 10.041351357769273 0 0 0
403 2 4 0.053 10.982031930790221 25.19980400749227 7.897480789543235 0 0 1
2644 8 4 0.053 5.8681034495158 26.06137952743031 9.56024006021765 0 0 0
2639 8 4 0.053 6.714742922339836 27.118339244397312 7.181909058803312 0 0 0
2690 8 3 -0.184 10.756596959488288 28.467285741846542 8.15735541868696 0 0 0
401 2 4 0.053 9.891335763604658 23.157898744413007 9.39391098465831 0 0 1
2630 8 3 -0.184 9.145259268450639 28.907610779472684 5.678311282181931 0 0 0
2689 8 4 0.053 12.704441605513384 29.878760370892394 8.069503217366096 0 0 0
2688 8 2 0.131 12.565572526815744 28.720523994938592 7.948603859256856 0 0 0
2694 8 2 0.131 14.304986606915195 28.579371381918495 5.9097768100995145 0 0 0
1489 5 4 0.053 18.029013503062284 30.591949664734663 8.681773687637056 0 0 0
1483 5 4 0.053 18.423268574125256 30.0846255943629 6.040945737532979 0 0 0
2685 8 1 -0.106 13.34525930542446 27.83240121335729 9.00218857358988 0 0 0
2687 8 4 0.053 14.16435245430166 27.482717897652694 8.449409745742006 0 0 0
2686 8 4 0.053 12.71017091552731 26.94418696691452 9.197378803480085 0 0 0
2682 8 2 0.131 13.76265233393303 28.578033135409285 10.311128374214798 0 0 0
2679 8 1 -0.106 14.466176432850018 27.62120284408113 11.270081906281526 0 0 0
2683 8 4 0.053 12.78575883907747 28.857425557957647 10.824051143134414 0 0 0
2684 8 3 -0.184 14.776907258949997 30.0381253525132 10.101780011258674 0 0 0