units real
atom_style full
boundary p p p

# --- Force Field Styles ---
pair_style lj/class2/coul/long 9.5 9.5
kspace_style pppm 1e-6
dielectric 1.000000
bond_style class2
angle_style class2
dihedral_style class2
improper_style class2
special_bonds lj/coul 0 0 1
pair_modify mix sixthpower tail yes
neighbor 2.0 bin
neigh_modify delay 0 every 1 check yes
neigh_modify one 4000
# KOKKOS: package loaded via -pk kokkos on the command line

read_data /home/arz2/PolyJarvis/data/PLA3/lammps/equil/npt_cool/npt_cool_out.data
Reading data file ...
  orthogonal box = (3.8467697 3.8467697 3.8467697) to (41.786354 41.786354 41.786354)
  1 by 1 by 1 MPI processor grid
  reading atoms ...
  4520 atoms
  reading velocities ...
  4520 velocities
  scanning bonds ...
  4 = max bonds/atom
  scanning angles ...
  12 = max angles/atom
  scanning dihedrals ...
  21 = max dihedrals/atom
  scanning impropers ...
  8 = max impropers/atom
  orthogonal box = (3.8467697 3.8467697 3.8467697) to (41.786354 41.786354 41.786354)
  1 by 1 by 1 MPI processor grid
  reading bonds ...
  4510 bonds
  reading angles ...
  8000 angles
  reading dihedrals ...
  9970 dihedrals
  reading impropers ...
  4500 impropers
Finding 1-2 1-3 1-4 neighbors ...
  special bond factors lj:    0        0        1       
  special bond factors coul:  0        0        1       
     4 = max # of 1-2 neighbors
     6 = max # of 1-3 neighbors
    10 = max # of special neighbors
  special bonds CPU = 0.003 seconds
  read_data CPU = 0.290 seconds
include /home/arz2/PolyJarvis/data/PLA3/lammps/equil/emc_build.params
# LAMMPS parameters created by EMC v9.4.4, build Jul 31 2025 20:33:44

# Variables

variable	seed		index	472913
variable	ntotal		index	4520
variable	fshape		index	1
variable	output		index	emc_build
variable	field		index	pcff/pcff
variable	location1	index	/home/arz2/emc/field/
variable	nav		index	0.6022141179
variable	temperature	index	300
variable	radius		index	5
variable	nrelax		index	100
variable	weight_nonbond	index	0.0001
variable	weight_bond	index	0.0001
variable	weight_focus	index	1
variable	cutoff		index	9.5
variable	charge_cutoff	index	9.5
variable	kappa		index	4
variable	density1	index	0.63
variable	lprevious	index	0
variable	lphase		index	45.6331234262
variable	f_poly		index	10
variable	chem_repeat	index	*C(C)C(=O)O*
variable	chem_cap	index	*[H]
variable	lg_repeat	index	9
variable	lg_cap		index	1
variable	norm_poly	index	100
variable	l_poly		index	452
variable	mg_repeat	index	44.05358
variable	mg_cap		index	0
variable	m_poly		index	2202.679
variable	n_poly		index	10
variable	mtotal		index	36052.2247
variable	nphase1		index	4520
variable	mphase1		index	36052.2247
variable	vphase1		index	95025.5927105
variable	lbox		index	45.6331234262
variable	lphase1		index	45.6331234262
variable	lxx		index	45.6331234262
variable	lyy		index	45.6331234262
variable	lzz		index	45.6331234262
variable	lzy		index	0
variable	lzx		index	0
variable	lyx		index	0
variable	vtotal		index	95025.5927105
variable	nl_poly		index	10

# Types

variable	type_c		index	1
variable	type_c1		index	2
variable	type_c_1	index	3
variable	type_hc		index	4
variable	type_ho2	index	5
variable	type_o_1	index	6
variable	type_o_2	index	7

variable	type_bond_c_c	index	1
variable	type_bond_c_c1	index	2
variable	type_bond_c_c_1	index	3
variable	type_bond_c_hc	index	4
variable	type_bond_c1_c_1 index	5
variable	type_bond_c1_hc	index	6
variable	type_bond_c1_o_2 index	7
variable	type_bond_c_1_o_1 index	8
variable	type_bond_c_1_o_2 index	9
variable	type_bond_ho2_o_2 index	10

variable	type_angle_c_c_c_1 index	1
variable	type_angle_c_c_hc index	2
variable	type_angle_c_c1_c_1 index	3
variable	type_angle_c_c1_hc index	4
variable	type_angle_c_c1_o_2 index	5
variable	type_angle_c_c_1_o_1 index	6
variable	type_angle_c_c_1_o_2 index	7
variable	type_angle_c1_c_hc index	8
variable	type_angle_c1_c_1_o_1 index	9
variable	type_angle_c1_c_1_o_2 index	10
variable	type_angle_c1_o_2_c_1 index	11
variable	type_angle_c_1_c_hc index	12
variable	type_angle_c_1_c1_hc index	13
variable	type_angle_c_1_c1_o_2 index	14
variable	type_angle_c_1_o_2_ho2 index	15
variable	type_angle_hc_c_hc index	16
variable	type_angle_hc_c1_o_2 index	17
variable	type_angle_o_1_c_1_o_2 index	18

# Clusters

variable	n0_poly		index	1
variable	n1_poly		index	10
variable	nl_poly		index	10

# Flags

variable	flag_charged	index	1

# Masses

mass		1    12.01115  # c
mass		2    12.01115  # c1
mass		3    12.01115  # c_1
mass		4     1.00797  # hc
mass		5     1.00800  # ho2
mass		6    15.99940  # o_1
mass		7    15.99940  # o_2

# Potentials

pair_modify	mix sixthpower tail yes
special_bonds	lj/coul 0 0 1

# Pair Coeffs

pair_coeff	 1  1    0.05400    4.01000  # c,c
pair_coeff	 2  2    0.05400    4.01000  # c1,c1
pair_coeff	 3  3    0.12000    3.81000  # c_1,c_1
pair_coeff	 4  4    0.02000    2.99500  # hc,hc
pair_coeff	 5  5    0.01300    1.11000  # ho2,ho2
pair_coeff	 6  6    0.26700    3.30000  # o_1,o_1
pair_coeff	 7  7    0.24000    3.42000  # o_2,o_2

# Bond Coeffs

bond_coeff	 1    1.53000  299.67000 -501.77000  679.81000  # c,c
bond_coeff	 2    1.53000  299.67000 -501.77000  679.81000  # c,c1
bond_coeff	 3    1.52020  253.70670 -423.03700  396.90000  # c,c_1
bond_coeff	 4    1.10100  345.00000 -691.89000  844.60000  # c,hc
bond_coeff	 5    1.52020  253.70670 -423.03700  396.90000  # c1,c_1
bond_coeff	 6    1.10100  345.00000 -691.89000  844.60000  # c1,hc
bond_coeff	 7    1.43000  326.72730 -608.53060  689.03330  # c1,o_2
bond_coeff	 8    1.20200  851.14030 -1918.48820 2160.76590  # c_1,o_1
bond_coeff	 9    1.36830  367.14810 -794.79080 1055.23190  # c_1,o_2
bond_coeff	10    0.95200  534.29940 -1287.19370 1889.13960  # ho2,o_2

# Angle Coeffs

angle_coeff	 1  108.52950   51.97470   -9.48510  -10.99850  # c,c,c_1
angle_coeff	 2  110.77000   41.45300  -10.60400    5.12900  # c,c,hc
angle_coeff	 3  108.52950   51.97470   -9.48510  -10.99850  # c,c1,c_1
angle_coeff	 4  110.77000   41.45300  -10.60400    5.12900  # c,c1,hc
angle_coeff	 5  107.41000   63.39070  -13.45130    1.66500  # c,c1,o_2
angle_coeff	 6  123.14510   55.54310  -17.21230    0.13480  # c,c_1,o_1
angle_coeff	 7  100.31820   38.86310   -3.83230   -7.98020  # c,c_1,o_2
angle_coeff	 8  110.77000   41.45300  -10.60400    5.12900  # c1,c,hc
angle_coeff	 9  123.14510   55.54310  -17.21230    0.13480  # c1,c_1,o_1
angle_coeff	10  100.31820   38.86310   -3.83230   -7.98020  # c1,c_1,o_2
angle_coeff	11  113.28800   61.28680  -28.97860    7.99290  # c1,o_2,c_1
angle_coeff	12  107.73360   40.60990  -28.81210    0.00000  # c_1,c,hc
angle_coeff	13  107.73360   40.60990  -28.81210    0.00000  # c_1,c1,hc
angle_coeff	14  109.50000   60.00000    0.00000    0.00000  # c_1,c1,o_2
angle_coeff	15  112.87400   53.25120  -14.99790    2.46400  # c_1,o_2,ho2
angle_coeff	16  107.66000   39.64100  -12.92100   -2.43180  # hc,c,hc
angle_coeff	17  107.68800   65.48010  -10.34980    5.88660  # hc,c1,o_2
angle_coeff	18  120.79700   95.34460  -32.28690    6.37780  # o_1,c_1,o_2

# BondBond Coeffs

angle_coeff	 1 bb    5.41990    1.53000    1.52020  # c,c,c_1
angle_coeff	 2 bb    3.38720    1.53000    1.10100  # c,c,hc
angle_coeff	 3 bb    5.41990    1.53000    1.52020  # c,c1,c_1
angle_coeff	 4 bb    3.38720    1.53000    1.10100  # c,c1,hc
angle_coeff	 5 bb   23.26470    1.53000    1.43000  # c,c1,o_2
angle_coeff	 6 bb   46.06850    1.52020    1.20200  # c,c_1,o_1
angle_coeff	 7 bb   19.10690    1.52020    1.36830  # c,c_1,o_2
angle_coeff	 8 bb    3.38720    1.53000    1.10100  # c1,c,hc
angle_coeff	 9 bb   46.06850    1.52020    1.20200  # c1,c_1,o_1
angle_coeff	10 bb   19.10690    1.52020    1.36830  # c1,c_1,o_2
angle_coeff	11 bb   45.45030    1.43000    1.36830  # c1,o_2,c_1
angle_coeff	12 bb    0.71150    1.52020    1.10100  # c_1,c,hc
angle_coeff	13 bb    0.71150    1.52020    1.10100  # c_1,c1,hc
angle_coeff	14 bb    0.00000    1.52020    1.43000  # c_1,c1,o_2
angle_coeff	15 bb    9.56710    1.36830    0.95200  # c_1,o_2,ho2
angle_coeff	16 bb    5.33160    1.10100    1.10100  # hc,c,hc
angle_coeff	17 bb    5.64540    1.10100    1.43000  # hc,c1,o_2
angle_coeff	18 bb  121.48800    1.20200    1.36830  # o_1,c_1,o_2

# BondAngle Coeffs

angle_coeff	 1 ba   18.16780   15.87580    1.53000    1.52020  # c,c,c_1
angle_coeff	 2 ba   20.75400   11.42100    1.53000    1.10100  # c,c,hc
angle_coeff	 3 ba   18.16780   15.87580    1.53000    1.52020  # c,c1,c_1
angle_coeff	 4 ba   20.75400   11.42100    1.53000    1.10100  # c,c1,hc
angle_coeff	 5 ba   23.39200   47.94870    1.53000    1.43000  # c,c1,o_2
angle_coeff	 6 ba   34.99820   37.12980    1.52020    1.20200  # c,c_1,o_1
angle_coeff	 7 ba    1.34350    4.69780    1.52020    1.36830  # c,c_1,o_2
angle_coeff	 8 ba   20.75400   11.42100    1.53000    1.10100  # c1,c,hc
angle_coeff	 9 ba   34.99820   37.12980    1.52020    1.20200  # c1,c_1,o_1
angle_coeff	10 ba    1.34350    4.69780    1.52020    1.36830  # c1,c_1,o_2
angle_coeff	11 ba   41.91160   46.46080    1.43000    1.36830  # c1,o_2,c_1
angle_coeff	12 ba   12.46320    9.17650    1.52020    1.10100  # c_1,c,hc
angle_coeff	13 ba   12.46320    9.17650    1.52020    1.10100  # c_1,c1,hc
angle_coeff	14 ba    0.00000    0.00000    1.52020    1.43000  # c_1,c1,o_2
angle_coeff	15 ba   37.91630   21.43640    1.36830    0.95200  # c_1,o_2,ho2
angle_coeff	16 ba   18.10300   18.10300    1.10100    1.10100  # hc,c,hc
angle_coeff	17 ba    8.68640   57.49750    1.10100    1.43000  # hc,c1,o_2
angle_coeff	18 ba   76.26140   71.87610    1.20200    1.36830  # o_1,c_1,o_2

# Dihedral Coeffs

dihedral_coeff	 1    0.04420    0.00000    0.02920    0.00000    0.05620    0.00000  # c,c,c_1,o_1
dihedral_coeff	 2    1.83410    0.00000    2.06030    0.00000   -0.01950    0.00000  # c,c,c_1,o_2
dihedral_coeff	 3    0.04420    0.00000    0.02920    0.00000    0.05620    0.00000  # c,c1,c_1,o_1
dihedral_coeff	 4    1.83410    0.00000    2.06030    0.00000   -0.01950    0.00000  # c,c1,c_1,o_2
dihedral_coeff	 5    0.00000    0.00000    0.00000    0.00000   -0.19320    0.00000  # c,c1,o_2,c_1
dihedral_coeff	 6   -2.55940    0.00000    2.20130    0.00000    0.03250    0.00000  # c,c_1,o_2,c1
dihedral_coeff	 7   -2.55940    0.00000    2.20130    0.00000    0.03250    0.00000  # c1,c_1,o_2,c1
dihedral_coeff	 8   -2.91260    0.00000    1.01990    0.00000   -0.20770    0.00000  # c1,c_1,o_2,ho2
dihedral_coeff	 9    0.00000    0.00000    2.20890    0.00000    0.00000    0.00000  # c1,o_2,c_1,o_1
dihedral_coeff	10   -0.02280    0.00000    0.02800    0.00000   -0.18630    0.00000  # c_1,c,c,hc
dihedral_coeff	11   -0.02280    0.00000    0.02800    0.00000   -0.18630    0.00000  # c_1,c1,c,hc
dihedral_coeff	12    0.00000    0.00000    0.00000    0.00000   -0.19320    0.00000  # c_1,c1,o_2,c_1
dihedral_coeff	13    0.00000    0.00000    0.00000    0.00000   -0.19320    0.00000  # c_1,o_2,c1,hc
dihedral_coeff	14   -0.14320    0.00000    0.06170    0.00000   -0.10830    0.00000  # hc,c,c,hc
dihedral_coeff	15   -0.14320    0.00000    0.06170    0.00000   -0.10830    0.00000  # hc,c,c1,hc
dihedral_coeff	16    0.00000    0.00000    0.00000    0.00000   -0.25000    0.00000  # hc,c,c1,o_2
dihedral_coeff	17   -0.18040    0.00000    0.00120    0.00000    0.03710    0.00000  # hc,c,c_1,o_1
dihedral_coeff	18   -0.63590    0.00000    1.48070    0.00000   -0.04380    0.00000  # hc,c,c_1,o_2
dihedral_coeff	19   -0.18040    0.00000    0.00120    0.00000    0.03710    0.00000  # hc,c1,c_1,o_1
dihedral_coeff	20   -0.63590    0.00000    1.48070    0.00000   -0.04380    0.00000  # hc,c1,c_1,o_2
dihedral_coeff	21    0.00000    0.00000    2.20890    0.00000    0.00000    0.00000  # ho2,o_2,c_1,o_1
dihedral_coeff	22    0.00000  180.00000    0.00000    0.00000    0.00000    0.00000  # o_1,c_1,c1,o_2
dihedral_coeff	23    0.00000  180.00000    0.00000    0.00000    0.00000    0.00000  # o_2,c1,c_1,o_2

# MiddleBondTorsion Coeffs

dihedral_coeff	 1 mbt    0.33880   -0.10960    0.12190    1.52020  # c,c,c_1,o_1
dihedral_coeff	 2 mbt  -17.32800   -5.79000   -3.21140    1.52020  # c,c,c_1,o_2
dihedral_coeff	 3 mbt    0.33880   -0.10960    0.12190    1.52020  # c,c1,c_1,o_1
dihedral_coeff	 4 mbt  -17.32800   -5.79000   -3.21140    1.52020  # c,c1,c_1,o_2
dihedral_coeff	 5 mbt   -5.43500    0.00000    0.00000    1.43000  # c,c1,o_2,c_1
dihedral_coeff	 6 mbt    1.34450    3.55150   -4.92020    1.36830  # c,c_1,o_2,c1
dihedral_coeff	 7 mbt    1.34450    3.55150   -4.92020    1.36830  # c1,c_1,o_2,c1
dihedral_coeff	 8 mbt    2.14520    0.54820   -2.36930    1.36830  # c1,c_1,o_2,ho2
dihedral_coeff	 9 mbt    4.26000    0.00000    0.00000    1.36830  # c1,o_2,c_1,o_1
dihedral_coeff	10 mbt   -3.50390    1.24580   -0.76100    1.53000  # c_1,c,c,hc
dihedral_coeff	11 mbt   -3.50390    1.24580   -0.76100    1.53000  # c_1,c1,c,hc
dihedral_coeff	12 mbt    0.00000    0.00000    0.00000    1.43000  # c_1,c1,o_2,c_1
dihedral_coeff	13 mbt    0.00000    0.00000    0.00000    1.43000  # c_1,o_2,c1,hc
dihedral_coeff	14 mbt  -14.26100   -0.53220   -0.48640    1.53000  # hc,c,c,hc
dihedral_coeff	15 mbt  -14.26100   -0.53220   -0.48640    1.53000  # hc,c,c1,hc
dihedral_coeff	16 mbt    0.00000    0.00000    0.00000    1.53000  # hc,c,c1,o_2
dihedral_coeff	17 mbt    0.23590    0.91390    0.95940    1.52020  # hc,c,c_1,o_1
dihedral_coeff	18 mbt  -13.76860   -2.59590    1.19340    1.52020  # hc,c,c_1,o_2
dihedral_coeff	19 mbt    0.23590    0.91390    0.95940    1.52020  # hc,c1,c_1,o_1
dihedral_coeff	20 mbt  -13.76860   -2.59590    1.19340    1.52020  # hc,c1,c_1,o_2
dihedral_coeff	21 mbt    4.26000    0.00000    0.00000    1.36830  # ho2,o_2,c_1,o_1
dihedral_coeff	22 mbt    0.00000    0.00000    0.00000    1.52020  # o_1,c_1,c1,o_2
dihedral_coeff	23 mbt    0.00000    0.00000    0.00000    1.52020  # o_2,c1,c_1,o_2

# EndBondTorsion Coeffs

dihedral_coeff	 1 ebt    0.26540    0.05030    0.10460   -0.28100    0.08160   -0.15220    1.53000    1.20200  # c,c,c_1,o_1
dihedral_coeff	 2 ebt    0.00000    0.00000    0.00000    0.00000    0.00000    0.00000    1.53000    1.36830  # c,c,c_1,o_2
dihedral_coeff	 3 ebt    0.26540    0.05030    0.10460   -0.28100    0.08160   -0.15220    1.53000    1.20200  # c,c1,c_1,o_1
dihedral_coeff	 4 ebt    0.00000    0.00000    0.00000    0.00000    0.00000    0.00000    1.53000    1.36830  # c,c1,c_1,o_2
dihedral_coeff	 5 ebt    0.00000    0.00000    0.00000    0.00000    0.00000    0.00000    1.53000    1.36830  # c,c1,o_2,c_1
dihedral_coeff	 6 ebt    0.00000    0.00000    0.00000    0.00000    0.00000    0.00000    1.52020    1.43000  # c,c_1,o_2,c1
dihedral_coeff	 7 ebt    0.00000    0.00000    0.00000    0.00000    0.00000    0.00000    1.52020    1.43000  # c1,c_1,o_2,c1
dihedral_coeff	 8 ebt    0.00000    0.00000    0.00000    0.00000    0.00000    0.00000    1.52020    0.95200  # c1,c_1,o_2,ho2
dihedral_coeff	 9 ebt    0.00000    0.00000    0.00000    0.00000    0.00000    0.00000    1.43000    1.20200  # c1,o_2,c_1,o_1
dihedral_coeff	10 ebt   -0.02040    0.36280   -0.44260   -0.00970   -0.03150   -0.07550    1.52020    1.10100  # c_1,c,c,hc
dihedral_coeff	11 ebt   -0.02040    0.36280   -0.44260   -0.00970   -0.03150   -0.07550    1.52020    1.10100  # c_1,c1,c,hc
dihedral_coeff	12 ebt    0.00000    0.00000    0.00000    0.00000    0.00000    0.00000    1.52020    1.36830  # c_1,c1,o_2,c_1
dihedral_coeff	13 ebt    0.00000    0.00000    0.00000    0.00000    0.00000    0.00000    1.36830    1.10100  # c_1,o_2,c1,hc
dihedral_coeff	14 ebt    0.21300    0.31200    0.07770    0.21300    0.31200    0.07770    1.10100    1.10100  # hc,c,c,hc
dihedral_coeff	15 ebt    0.21300    0.31200    0.07770    0.21300    0.31200    0.07770    1.10100    1.10100  # hc,c,c1,hc
dihedral_coeff	16 ebt    0.00000    0.00000    0.00000    0.00000    0.00000    0.00000    1.10100    1.43000  # hc,c,c1,o_2
dihedral_coeff	17 ebt    1.21430    0.28310    0.39160   -0.22980    0.03540    0.38530    1.10100    1.20200  # hc,c,c_1,o_1
dihedral_coeff	18 ebt    0.00000    0.00000    0.00000    0.00000    0.00000    0.00000    1.10100    1.36830  # hc,c,c_1,o_2
dihedral_coeff	19 ebt    1.21430    0.28310    0.39160   -0.22980    0.03540    0.38530    1.10100    1.20200  # hc,c1,c_1,o_1
dihedral_coeff	20 ebt    0.00000    0.00000    0.00000    0.00000    0.00000    0.00000    1.10100    1.36830  # hc,c1,c_1,o_2
dihedral_coeff	21 ebt    0.00000    0.00000    0.00000    0.00000    0.00000    0.00000    0.95200    1.20200  # ho2,o_2,c_1,o_1
dihedral_coeff	22 ebt    0.00000    0.00000    0.00000    0.00000    0.00000    0.00000    1.20200    1.43000  # o_1,c_1,c1,o_2
dihedral_coeff	23 ebt    0.00000    0.00000    0.00000    0.00000    0.00000    0.00000    1.43000    1.36830  # o_2,c1,c_1,o_2

# AngleTorsion Coeffs

dihedral_coeff	 1 at    0.08850   -1.37030   -0.54520    0.67500    0.59650    0.67250  108.52950  123.14510  # c,c,c_1,o_1
dihedral_coeff	 2 at    0.00000    0.00000    0.00000    0.00000    0.00000    0.00000  108.52950  100.31820  # c,c,c_1,o_2
dihedral_coeff	 3 at    0.08850   -1.37030   -0.54520    0.67500    0.59650    0.67250  108.52950  123.14510  # c,c1,c_1,o_1
dihedral_coeff	 4 at    0.00000    0.00000    0.00000    0.00000    0.00000    0.00000  108.52950  100.31820  # c,c1,c_1,o_2
dihedral_coeff	 5 at    0.00000    0.00000    0.00000    0.00000    0.00000    0.00000  107.41000  113.28800  # c,c1,o_2,c_1
dihedral_coeff	 6 at    0.00000    0.00000    0.00000    0.00000    0.00000    0.00000  100.31820  113.28800  # c,c_1,o_2,c1
dihedral_coeff	 7 at    0.00000    0.00000    0.00000    0.00000    0.00000    0.00000  100.31820  113.28800  # c1,c_1,o_2,c1
dihedral_coeff	 8 at    0.00000    0.00000    0.00000    0.00000    0.00000    0.00000  100.31820  112.87400  # c1,c_1,o_2,ho2
dihedral_coeff	 9 at    0.00000    0.00000    0.00000    0.00000    0.00000    0.00000  113.28800  120.79700  # c1,o_2,c_1,o_1
dihedral_coeff	10 at   -0.74660   -0.94480   -0.63210    0.01620    1.42110   -1.40920  108.52950  110.77000  # c_1,c,c,hc
dihedral_coeff	11 at   -0.74660   -0.94480   -0.63210    0.01620    1.42110   -1.40920  108.52950  110.77000  # c_1,c1,c,hc
dihedral_coeff	12 at    0.00000    0.00000    0.00000    0.00000    0.00000    0.00000  109.50000  113.28800  # c_1,c1,o_2,c_1
dihedral_coeff	13 at    0.00000    0.00000    0.00000    0.00000    0.00000    0.00000  113.28800  107.68800  # c_1,o_2,c1,hc
dihedral_coeff	14 at   -0.80850    0.55690   -0.24660   -0.80850    0.55690   -0.24660  110.77000  110.77000  # hc,c,c,hc
dihedral_coeff	15 at   -0.80850    0.55690   -0.24660   -0.80850    0.55690   -0.24660  110.77000  110.77000  # hc,c,c1,hc
dihedral_coeff	16 at    0.00000    0.00000    0.00000    0.00000    0.00000    0.00000  110.77000  107.41000  # hc,c,c1,o_2
dihedral_coeff	17 at    9.12990   -0.48470    0.35820   -1.49460    0.73080   -0.20830  107.73360  123.14510  # hc,c,c_1,o_1
dihedral_coeff	18 at    0.00000    0.00000    0.00000    0.00000    0.00000    0.00000  107.73360  100.31820  # hc,c,c_1,o_2
dihedral_coeff	19 at    9.12990   -0.48470    0.35820   -1.49460    0.73080   -0.20830  107.73360  123.14510  # hc,c1,c_1,o_1
dihedral_coeff	20 at    0.00000    0.00000    0.00000    0.00000    0.00000    0.00000  107.73360  100.31820  # hc,c1,c_1,o_2
dihedral_coeff	21 at    0.00000    0.00000    0.00000    0.00000    0.00000    0.00000  112.87400  120.79700  # ho2,o_2,c_1,o_1
dihedral_coeff	22 at    0.00000    0.00000    0.00000    0.00000    0.00000    0.00000  123.14510  109.50000  # o_1,c_1,c1,o_2
dihedral_coeff	23 at    0.00000    0.00000    0.00000    0.00000    0.00000    0.00000  109.50000  100.31820  # o_2,c1,c_1,o_2

# AngleAngleTorsion Coeffs

dihedral_coeff	 1 aat   -8.01900  108.52950  123.14510  # c,c,c_1,o_1
dihedral_coeff	 2 aat    0.00000  108.52950  100.31820  # c,c,c_1,o_2
dihedral_coeff	 3 aat   -8.01900  108.52950  123.14510  # c,c1,c_1,o_1
dihedral_coeff	 4 aat    0.00000  108.52950  100.31820  # c,c1,c_1,o_2
dihedral_coeff	 5 aat    0.00000  107.41000  113.28800  # c,c1,o_2,c_1
dihedral_coeff	 6 aat    0.00000  100.31820  113.28800  # c,c_1,o_2,c1
dihedral_coeff	 7 aat    0.00000  100.31820  113.28800  # c1,c_1,o_2,c1
dihedral_coeff	 8 aat    0.00000  100.31820  112.87400  # c1,c_1,o_2,ho2
dihedral_coeff	 9 aat    0.00000  113.28800  120.79700  # c1,o_2,c_1,o_1
dihedral_coeff	10 aat   -5.36240  108.52950  110.77000  # c_1,c,c,hc
dihedral_coeff	11 aat   -5.36240  108.52950  110.77000  # c_1,c1,c,hc
dihedral_coeff	12 aat    0.00000  109.50000  113.28800  # c_1,c1,o_2,c_1
dihedral_coeff	13 aat    0.00000  113.28800  107.68800  # c_1,o_2,c1,hc
dihedral_coeff	14 aat  -12.56400  110.77000  110.77000  # hc,c,c,hc
dihedral_coeff	15 aat  -12.56400  110.77000  110.77000  # hc,c,c1,hc
dihedral_coeff	16 aat    0.00000  110.77000  107.41000  # hc,c,c1,o_2
dihedral_coeff	17 aat  -15.34960  107.73360  123.14510  # hc,c,c_1,o_1
dihedral_coeff	18 aat    0.00000  107.73360  100.31820  # hc,c,c_1,o_2
dihedral_coeff	19 aat  -15.34960  107.73360  123.14510  # hc,c1,c_1,o_1
dihedral_coeff	20 aat    0.00000  107.73360  100.31820  # hc,c1,c_1,o_2
dihedral_coeff	21 aat    0.00000  112.87400  120.79700  # ho2,o_2,c_1,o_1
dihedral_coeff	22 aat    0.00000  123.14510  109.50000  # o_1,c_1,c1,o_2
dihedral_coeff	23 aat    0.00000  109.50000  100.31820  # o_2,c1,c_1,o_2

# BondBond13 Coeffs

dihedral_coeff	 1 bb13    0.00000    1.53000    1.20200  # c,c,c_1,o_1
dihedral_coeff	 2 bb13    0.00000    1.53000    1.36830  # c,c,c_1,o_2
dihedral_coeff	 3 bb13    0.00000    1.53000    1.20200  # c,c1,c_1,o_1
dihedral_coeff	 4 bb13    0.00000    1.53000    1.36830  # c,c1,c_1,o_2
dihedral_coeff	 5 bb13    0.00000    1.53000    1.36830  # c,c1,o_2,c_1
dihedral_coeff	 6 bb13    0.00000    1.52020    1.43000  # c,c_1,o_2,c1
dihedral_coeff	 7 bb13    0.00000    1.52020    1.43000  # c1,c_1,o_2,c1
dihedral_coeff	 8 bb13    0.00000    1.52020    0.95200  # c1,c_1,o_2,ho2
dihedral_coeff	 9 bb13    0.00000    1.43000    1.20200  # c1,o_2,c_1,o_1
dihedral_coeff	10 bb13    0.00000    1.52020    1.10100  # c_1,c,c,hc
dihedral_coeff	11 bb13    0.00000    1.52020    1.10100  # c_1,c1,c,hc
dihedral_coeff	12 bb13    0.00000    1.52020    1.36830  # c_1,c1,o_2,c_1
dihedral_coeff	13 bb13    0.00000    1.36830    1.10100  # c_1,o_2,c1,hc
dihedral_coeff	14 bb13    0.00000    1.10100    1.10100  # hc,c,c,hc
dihedral_coeff	15 bb13    0.00000    1.10100    1.10100  # hc,c,c1,hc
dihedral_coeff	16 bb13    0.00000    1.10100    1.43000  # hc,c,c1,o_2
dihedral_coeff	17 bb13    0.00000    1.10100    1.20200  # hc,c,c_1,o_1
dihedral_coeff	18 bb13    0.00000    1.10100    1.36830  # hc,c,c_1,o_2
dihedral_coeff	19 bb13    0.00000    1.10100    1.20200  # hc,c1,c_1,o_1
dihedral_coeff	20 bb13    0.00000    1.10100    1.36830  # hc,c1,c_1,o_2
dihedral_coeff	21 bb13    0.00000    0.95200    1.20200  # ho2,o_2,c_1,o_1
dihedral_coeff	22 bb13    0.00000    1.20200    1.43000  # o_1,c_1,c1,o_2
dihedral_coeff	23 bb13    0.00000    1.43000    1.36830  # o_2,c1,c_1,o_2

# Improper Coeffs

improper_coeff	 1    0.00000    0.00000  # c,c,hc,c_1
improper_coeff	 2    0.00000    0.00000  # c,c,hc,hc
improper_coeff	 3    0.00000    0.00000  # c,c1,hc,hc
improper_coeff	 4    0.00000    0.00000  # c,c_1,hc,hc
improper_coeff	 5    0.00000    0.00000  # c,hc,hc,hc
improper_coeff	 6    0.00000    0.00000  # c1,c,hc,c_1
improper_coeff	 7    0.00000    0.00000  # c1,c,hc,o_2
improper_coeff	 8    0.00000    0.00000  # c1,c,o_2,c_1
improper_coeff	 9    0.00000    0.00000  # c1,c_1,hc,o_2
improper_coeff	10   46.92640    0.00000  # c_1,c,o_2,o_1
improper_coeff	11   46.92640    0.00000  # c_1,c1,o_2,o_1

# AngleAngle Coeffs

improper_coeff	 1 aa    1.08270   -1.82020    2.04030  110.77000  108.52950  107.73360  # c,c,hc,c_1
improper_coeff	 2 aa    0.27380   -0.48250    0.27380  110.77000  110.77000  107.66000  # c,c,hc,hc
improper_coeff	 3 aa    0.27380   -0.48250    0.27380  110.77000  110.77000  107.66000  # c,c1,hc,hc
improper_coeff	 4 aa   -3.38670   -3.49760   -3.38670  107.73360  107.73360  107.66000  # c,c_1,hc,hc
improper_coeff	 5 aa   -0.31570   -0.31570   -0.31570  107.66000  107.66000  107.66000  # c,hc,hc,hc
improper_coeff	 6 aa    1.08270   -1.82020    2.04030  110.77000  108.52950  107.73360  # c1,c,hc,c_1
improper_coeff	 7 aa    0.00000    0.00000    0.00000  110.77000  107.41000  107.68800  # c1,c,hc,o_2
improper_coeff	 8 aa    0.00000    0.00000    0.00000  107.41000  108.52950  109.50000  # c1,c,o_2,c_1
improper_coeff	 9 aa    0.00000    0.00000    0.00000  107.73360  109.50000  107.68800  # c1,c_1,hc,o_2
improper_coeff	10 aa    0.00000    0.00000    0.00000  100.31820  123.14510  120.79700  # c_1,c,o_2,o_1
improper_coeff	11 aa    0.00000    0.00000    0.00000  100.31820  123.14510  120.79700  # c_1,c1,o_2,o_1


# --- Thermo Output ---
thermo_style custom step time temp press enthalpy etotal ke pe ebond eangle edihed eimp evdwl ecoul elong etail vol lx ly lz density pxx pyy pzz
thermo_modify flush yes
thermo 1000

# --- Trajectory ---
dump dump_nvt all custom 1000 nvt_production.dump id type mol x y z ix iy iz vx vy vz

# --- Restart Checkpointing ---
# No restart checkpointing

# --- Initial Velocities (optional) ---
# Velocities read from data file

# --- SHAKE Constraints ---
# Constrains H-X bonds to allow 2fs timestep
# SHAKE disabled

# --- NVT Thermostat (Nose-Hoover) ---
# T_damp = 100.0 fs  (coupling timescale for heat exchange)
# Ramp: 620.0 K -> 620.0 K over 1000000 steps
timestep 1.0
fix nvt_fix all nvt temp 620.0 620.0 100.0

run 1000000
PPPM Kokkos initialization ...
  using 12-bit tables for long-range coulomb
  G vector (1/distance) = 0.34043304
  grid = 45 45 45
  stencil order = 5
  estimated absolute RMS force accuracy = 0.0002789978
  estimated relative force accuracy = 8.401936e-07
  using double precision cuFFT
  3d grid and FFT values/proc = 140608 91125
Generated 21 of 21 mixed pair_coeff terms from sixthpower/sixthpower mixing rule
Neighbor list info ...
  update: every = 1 steps, delay = 0 steps, check = yes
  max neighbors/atom: 4000, page size: 100000
  master list distance cutoff = 11.5
  ghost atom cutoff = 11.5
  binsize = 11.5, bins = 4 4 4
  1 neighbor lists, perpetual/occasional/extra = 1 0 0
  (1) pair lj/class2/coul/long/kk, perpetual
      attributes: full, newton off, kokkos_device
      pair build: full/bin/kk/device
      stencil: full/bin/3d
      bin: kk/device
Per MPI rank memory allocation (min/avg/max) = 36 | 36 | 36 Mbytes
   Step          Time           Temp          Press         Enthalpy        TotEng         KinEng         PotEng         E_bond        E_angle        E_dihed        E_impro         E_vdwl         E_coul         E_long         E_tail         Volume           Lx             Ly             Lz          Density          Pxx            Pyy            Pzz      
         0   0              626.36436      571.76623      26346.597      25891.219      8437.3037      17453.915      3725.6991      5673.0028     -3563.2823      290.67199     -1727.9642      44753.342     -31697.554     -346.31209      54610.694      37.939584      37.939584      37.939584      1.0962344      800.62905      297.76447      616.90517    
      1000   1000           626.13416     -667.89826      25133.831      25665.773      8434.2028      17231.57       3904.7477      5409.4679     -3568.5239      310.38601     -1846.9504      44731.251     -31708.808     -346.31209      54610.694      37.939584      37.939584      37.939584      1.0962344     -63.205476     -344.0673      -1596.422     
      2000   2000           618.86647      470.23153      26108.541      25734.029      8336.305       17397.724      3839.4814      5443.069      -3551.3807      320.22971     -1717.8248      44763.932     -31699.782     -346.31209      54610.694      37.939584      37.939584      37.939584      1.0962344     -510.5088      -70.747841      1991.9512    
      3000   3000           615.41214     -1198.5338      24633.176      25587.737      8289.7743      17297.963      3791.8735      5419.4449     -3499.308       294.81878     -1755.8814      44742.96      -31695.944     -346.31209      54610.694      37.939584      37.939584      37.939584      1.0962344     -3949.9036      378.10536     -23.803221    
      4000   4000           617.88105     -1395.5066      24796.644      25908.082      8323.0312      17585.051      3903.3322      5589.5308     -3499.145       293.18089     -1746.2935      44755.142     -31710.697     -346.31209      54610.694      37.939584      37.939584      37.939584      1.0962344      428.30916     -2134.9331     -2479.8959    
      5000   5000           608.8946      -1136.1529      24875.883      25780.761      8201.9811      17578.78       3892.7147      5514.885      -3477.1073      330.41228     -1701.6544      44731.825     -31712.295     -346.31209      54610.694      37.939584      37.939584      37.939584      1.0962344      80.193689     -1438.4648     -2050.1876    
      6000   6000           607.38091     -616.9325       25177.618      25668.968      8181.5913      17487.377      3758.9103      5617.5671     -3466.472       310.29991     -1753.8542      44728.42      -31707.494     -346.31209      54610.694      37.939584      37.939584      37.939584      1.0962344     -352.4462      -1301.6052     -196.74615    
      7000   7000           618.21004     -936.24672      24924.826      25670.491      8327.4628      17343.028      3722.005       5550.223      -3522.4374      304.04861     -1752.3898      44727.014     -31685.435     -346.31209      54610.694      37.939584      37.939584      37.939584      1.0962344     -2880.4221      1764.3656     -1692.6837    
      8000   8000           624.38691      394.18386      26132.226      25818.282      8410.6669      17407.615      3775.254       5518.2757     -3500.3271      310.47616     -1766.6985      44774.691     -31704.056     -346.31209      54610.694      37.939584      37.939584      37.939584      1.0962344     -507.76758      2163.8814     -473.56228    
      9000   9000           625.7475      -2234.1045      23972.243      25751.575      8428.9945      17322.581      3935.6801      5471.285      -3612.0987      311.42753     -1795.3625      44708.316     -31696.666     -346.31209      54610.694      37.939584      37.939584      37.939584      1.0962344     -1318.241      -1465.0829     -3918.9898    
     10000   10000          625.39899      628.67235      26464.617      25963.917      8424.2999      17539.617      3852.8301      5570.8228     -3506.2055      276.90129     -1687.4688      44740.735     -31707.997     -346.31209      54610.694      37.939584      37.939584      37.939584      1.0962344      2441.5205      395.55622     -951.05968    
     11000   11000          630.01667      808.65722      26514.835      25870.788      8486.5014      17384.286      3805.658       5520.6866     -3590.0908      291.12838     -1787.4356      44851.904     -31707.564     -346.31209      54610.694      37.939584      37.939584      37.939584      1.0962344      210.38288      2482.6267     -267.03794    
     12000   12000          620.6092       767.72567      26391.013      25779.565      8359.7801      17419.785      3822.1004      5545.6644     -3582.8832      330.57307     -1678.0095      44688.682     -31706.342     -346.31209      54610.694      37.939584      37.939584      37.939584      1.0962344      926.08135      755.6543       621.44135    
     13000   13000          619.01124     -949.14377      25007.523      25763.46       8338.2551      17425.205      3914.8421      5592.7926     -3603.509       266.00621     -1718.515       44691.244     -31717.656     -346.31209      54610.694      37.939584      37.939584      37.939584      1.0962344     -689.77606     -1966.257      -191.39827    
     14000   14000          622.37817     -1533.2545      24638.317      25859.464      8383.6086      17475.855      3973.5693      5587.1938     -3665.2149      341.16104     -1755.058       44705.872     -31711.667     -346.31209      54610.694      37.939584      37.939584      37.939584      1.0962344     -832.94551     -1165.2559     -2601.5621    
     15000   15000          619.77086     -503.78324      25438.484      25839.718      8348.4874      17491.231      3842.4695      5618.1859     -3625.0922      287.88808     -1703.3472      44770.75      -31699.624     -346.31209      54610.694      37.939584      37.939584      37.939584      1.0962344     -705.16581     -893.90604      87.722123    
     16000   16000          609.84713     -2508.3908      23510.288      25508.073      8214.8119      17293.261      3732.2808      5565.5393     -3571.2495      302.63523     -1759.941       44728.61      -31704.614     -346.31209      54610.694      37.939584      37.939584      37.939584      1.0962344     -2152.5539     -3334.8101     -2037.8083    
     17000   17000          619.80083     -437.4153       25322.089      25670.464      8348.8911      17321.573      3738.451       5571.7884     -3609.1309      329.98885     -1800.9681      44789.128     -31697.684     -346.31209      54610.694      37.939584      37.939584      37.939584      1.0962344      581.32481     -2276.3261      382.75542    
     18000   18000          611.25746     -166.69446      25518.532      25651.294      8233.8095      17417.485      3869.5808      5433.5519     -3538.6314      272.51236     -1659.3372      44754.116     -31714.307     -346.31209      54610.694      37.939584      37.939584      37.939584      1.0962344     -1589.2053     -801.02906      1890.151     
     19000   19000          617.49539      850.41633      26473.516      25796.209      8317.8362      17478.373      4009.2608      5463.1045     -3599.1636      292.22376     -1676.6772      44709.311     -31719.686     -346.31209      54610.694      37.939584      37.939584      37.939584      1.0962344     -244.54883      2586.9546      208.84325    
     20000   20000          606.97316     -81.014431      25393.291      25457.814      8176.0988      17281.716      3852.3284      5504.3887     -3611.8883      290.57407     -1786.9073      44740.539     -31707.319     -346.31209      54610.694      37.939584      37.939584      37.939584      1.0962344     -2436.1685      2798.6276     -605.50239    
     21000   21000          625.45984      359.35141      26199.013      25912.81       8425.1195      17487.691      3848.2371      5565.7481     -3542.303       312.31094     -1775.0776      44785.252     -31706.476     -346.31209      54610.694      37.939584      37.939584      37.939584      1.0962344      1795.838       225.55137     -943.33512    
     22000   22000          614.09998      1036.6864      26383.271      25557.611      8272.0991      17285.512      3822.4396      5479.4917     -3654.6788      303.66844     -1709.6633      44754.485     -31710.23      -346.31209      54610.694      37.939584      37.939584      37.939584      1.0962344     -509.78437      1420.5328      2199.3107    
     23000   23000          620.6889       1061.9918      26584.936      25739.122      8360.8536      17378.268      3840.3448      5503.6357     -3566.2949      372.29951     -1807.8784      44750.534     -31714.373     -346.31209      54610.694      37.939584      37.939584      37.939584      1.0962344      1243.7133     -540.36829      2482.6303    
     24000   24000          612.08443     -512.85844      25291.948      25700.409      8244.949       17455.46       3928.0865      5683.9762     -3651.6033      286.67523     -1803.0839      44719.506     -31708.096     -346.31209      54610.694      37.939584      37.939584      37.939584      1.0962344     -1478.2144     -883.71939      823.35846    
     25000   25000          625.43817     -291.06377      25635.722      25867.537      8424.8277      17442.71       3922.9337      5495.496      -3548.2449      321.65897     -1762.7181      44717.859     -31704.275     -346.31209      54610.694      37.939584      37.939584      37.939584      1.0962344     -57.768184     -1034.0407      218.61755    
     26000   26000          612.16535     -476.8146       25290.984      25670.738      8246.039       17424.699      3882.4327      5530.4061     -3600.7151      301.65273     -1717.8377      44741.819     -31713.058     -346.31209      54610.694      37.939584      37.939584      37.939584      1.0962344      1297.0197     -854.29297     -1873.1705    
     27000   27000          624.49678      1931.9035      27367.061      25828.414      8412.1469      17416.267      3733.3593      5454.8179     -3543.0819      329.91004     -1642.8246      44784.879     -31700.793     -346.31209      54610.694      37.939584      37.939584      37.939584      1.0962344      422.75144      1493.7677      3879.1913    
     28000   28000          606.13062     -70.028657      25633.501      25689.274      8164.7495      17524.525      3918.2844      5495.1575     -3530.2454      300.29029     -1701.1525      44752.236     -31710.045     -346.31209      54610.694      37.939584      37.939584      37.939584      1.0962344     -746.32288      1124.9446     -588.70771    
     29000   29000          622.34036     -1259.5222      24938.986      25942.121      8383.0994      17559.022      3855.0804      5655.7906     -3584.8957      321.98699     -1730.9747      44741.081     -31699.047     -346.31209      54610.694      37.939584      37.939584      37.939584      1.0962344     -382.8321      -1042.8068     -2352.9276    
     30000   30000          625.86667      1441.6137      26889.02       25740.86       8430.5997      17310.26       3706.0064      5567.574      -3650.715       297.94496     -1656.7569      44742         -31695.793     -346.31209      54610.694      37.939584      37.939584      37.939584      1.0962344      3355.3858      239.52783      729.92741    
     31000   31000          627.00018      821.26489      26582.201      25928.112      8445.8684      17482.244      3864.1998      5556.767      -3548.6513      320.22992     -1760.7804      44756.208     -31705.729     -346.31209      54610.694      37.939584      37.939584      37.939584      1.0962344     -640.59057      2396.4469      707.93833    
     32000   32000          621.10522     -2265.2947      24022.018      25826.191      8366.4617      17459.729      4002.8025      5526.6924     -3608.6315      321.77801     -1789.7536      44711.283     -31704.442     -346.31209      54610.694      37.939584      37.939584      37.939584      1.0962344     -2406.1025     -1103.0435     -3286.7382    
     33000   33000          614.3415      -1596.6693      24495.854      25767.507      8275.3524      17492.155      3816.3486      5550.3301     -3480.5019      304.68736     -1749.2447      44747.393     -31696.858     -346.31209      54610.694      37.939584      37.939584      37.939584      1.0962344     -202.36536     -4581.2716     -6.3707659    
     34000   34000          623.763       -1343.0587      24883.246      25952.913      8402.2627      17550.651      3898.7728      5599.0686     -3620.334       325.70855     -1732.2219      44780.049     -31700.392     -346.31209      54610.694      37.939584      37.939584      37.939584      1.0962344     -1951.7325     -1829.5595     -247.88402    
     35000   35000          619.71726      565.82611      26105.925      25655.278      8347.7654      17307.513      3819.5269      5559.8665     -3578.9665      288.99865     -1770.4356      44700.444     -31711.921     -346.31209      54610.694      37.939584      37.939584      37.939584      1.0962344      3980.2981     -821.9033      -1460.9165    
     36000   36000          626.1799       1909.0481      27459.811      25939.367      8434.8189      17504.548      3822.615       5568.9071     -3597.6059      324.94424     -1654.4955      44752.628     -31712.445     -346.31209      54610.694      37.939584      37.939584      37.939584      1.0962344      2600.7794      627.30044      2499.0645    
     37000   37000          613.24071      208.91985      25909.648      25743.255      8260.5245      17482.731      3795.1464      5628.3878     -3547.803       291.11951     -1747.6377      44770.519     -31707.001     -346.31209      54610.694      37.939584      37.939584      37.939584      1.0962344     -1304.86        1156.4125      775.20708    
     38000   38000          615.62221     -1518.4861      24492.396      25701.781      8292.6039      17409.177      3909.0658      5599.9467     -3639.2002      304.44519     -1775.5367      44719.108     -31708.652     -346.31209      54610.694      37.939584      37.939584      37.939584      1.0962344     -1006.725      -1696.3542     -1852.3792    
     39000   39000          623.22192     -2081.3157      24115.784      25773.429      8394.9742      17378.455      3825.4609      5496.0574     -3554.2146      318.98861     -1736.9631      44742.24      -31713.114     -346.31209      54610.694      37.939584      37.939584      37.939584      1.0962344     -2185.7689     -1620.0087     -2438.1696    
     40000   40000          622.20941     -767.84646      25369.638      25981.182      8381.3353      17599.847      3938.7045      5597.7292     -3586.2         302.44753     -1697.499       44737.489     -31692.824     -346.31209      54610.694      37.939584      37.939584      37.939584      1.0962344     -755.66417     -941.44368     -606.43153    
     41000   41000          626.16673     -126.19735      25665.55       25766.059      8434.6416      17331.417      3851.3986      5508.5689     -3590.5688      294.4597      -1738.0631      44711.646     -31706.024     -346.31209      54610.694      37.939584      37.939584      37.939584      1.0962344      457.59091      712.10972     -1548.2927    
     42000   42000          615.26873     -1244.3409      24809.194      25800.238      8287.8424      17512.396      3950.0779      5627.6767     -3521.1418      277.52611     -1746.1961      44634.283     -31709.83      -346.31209      54610.694      37.939584      37.939584      37.939584      1.0962344     -1041.3336     -1034.6463     -1657.0426    
     43000   43000          627.51699     -1225.3731      24945.703      25921.64       8452.83        17468.81       3943.0385      5544.9364     -3570.7474      314.821       -1800.6122      44746.138     -31708.764     -346.31209      54610.694      37.939584      37.939584      37.939584      1.0962344     -2026.5555      625.35538     -2274.9192    
     44000   44000          608.69367     -264.61964      25442.607      25653.361      8199.2746      17454.087      3824.2107      5519.2448     -3572.2655      297.51264     -1654.9955      44747.754     -31707.375     -346.31209      54610.694      37.939584      37.939584      37.939584      1.0962344     -240.52511     -148.28549     -405.04833    
     45000   45000          624.10644      916.19927      26713.897      25984.199      8406.8889      17577.31       3816.1774      5701.2216     -3567.7868      290.61352     -1678.738       44720.164     -31704.342     -346.31209      54610.694      37.939584      37.939584      37.939584      1.0962344     -90.716641      2557.5036      281.81088    
     46000   46000          613.56148      973.14583      26455.182      25680.129      8264.8453      17415.284      3843.9596      5501.3917     -3557.068       340.40977     -1742.2267      44746.671     -31717.853     -346.31209      54610.694      37.939584      37.939584      37.939584      1.0962344     -403.64355      988.27669      2334.8044    
     47000   47000          601.86506      331.65337      25839.336      25575.194      8107.2913      17467.903      3765.4441      5565.817      -3509.2357      298.97037     -1715.1827      44764.167     -31702.077     -346.31209      54610.694      37.939584      37.939584      37.939584      1.0962344     -2468.4994      506.10813      2957.3514    
     48000   48000          627.6429       1095.7005      26791.584      25918.923      8454.526       17464.397      3821.4118      5509.9419     -3564.4007      339.04875     -1738.4523      44808.304     -31711.457     -346.31209      54610.694      37.939584      37.939584      37.939584      1.0962344     -869.27516      2615.6615      1540.7152    
     49000   49000          618.40556     -1249.667       24566.285      25561.571      8330.0964      17231.475      3841.2019      5636.9498     -3626.4568      260.82701     -1775.935       44609.335     -31714.447     -346.31209      54610.694      37.939584      37.939584      37.939584      1.0962344     -2197.0775     -779.16605     -772.75742    
     50000   50000          630.5026      -787.23373      25326.625      25953.61       8493.047       17460.563      3944.8212      5583.046      -3608.6982      287.73965     -1714.4334      44687.89      -31719.802     -346.31209      54610.694      37.939584      37.939584      37.939584      1.0962344      796.13057     -1773.2681     -1384.5637    
     51000   51000          609.2919      -1243.1616      24766.695      25756.8        8207.3329      17549.467      3826.6262      5747.9179     -3566.3364      278.89392     -1797.9319      44765.854     -31705.557     -346.31209      54610.694      37.939584      37.939584      37.939584      1.0962344     -1451.479      -2420.2224      142.21657    
     52000   52000          623.59569      579.11219      26227.976      25766.748      8400.009       17366.739      3782.6429      5451.4172     -3539.8759      352.55444     -1667.6972      44705.248     -31717.55      -346.31209      54610.694      37.939584      37.939584      37.939584      1.0962344      1164.0833      1708.8262     -1135.5729    
     53000   53000          620.79937      543.33391      26177.97       25745.237      8362.3417      17382.895      3900.5426      5565.4225     -3613.7405      282.55805     -1762.2382      44716.011     -31705.661     -346.31209      54610.694      37.939584      37.939584      37.939584      1.0962344      1283.2948      575.79552     -229.08863    
     54000   54000          615.1829       16.012444      25566.486      25553.733      8286.6863      17267.047      3830.3854      5399.6606     -3501.1588      291.11665     -1686.5104      44655.775     -31722.222     -346.31209      54610.694      37.939584      37.939584      37.939584      1.0962344      1907.8273     -661.51554     -1198.2745    
     55000   55000          623.03544     -789.80141      25235.859      25864.889      8392.4622      17472.427      3949.054       5622.2138     -3598.0573      318.15926     -1811.9679      44714.385     -31721.36      -346.31209      54610.694      37.939584      37.939584      37.939584      1.0962344     -749.59971     -357.45803     -1262.3465    
     56000   56000          617.50253      410.22137      25825.265      25498.548      8317.9324      17180.616      3740.3498      5453.6501     -3555.2249      294.00141     -1734.3899      44700.892     -31718.663     -346.31209      54610.694      37.939584      37.939584      37.939584      1.0962344      638.75118     -617.15038      1209.0633    
     57000   57000          612.25767     -1858.2289      24149.966      25629.936      8247.2826      17382.653      3788.8096      5607.1504     -3540.0399      307.25249     -1793.0162      44733.581     -31721.085     -346.31209      54610.694      37.939584      37.939584      37.939584      1.0962344     -2946.8647     -3553.6367      925.81453    
     58000   58000          619.55597      405.69542      26139.169      25816.057      8345.5928      17470.464      3827.0902      5571.1632     -3517.4797      300.27405     -1769.2405      44776.215     -31717.558     -346.31209      54610.694      37.939584      37.939584      37.939584      1.0962344     -1005.9189      2585.5415     -362.53631    
     59000   59000          620.89372      580.69547      26238.889      25776.399      8363.6126      17412.787      3775.5967      5652.4499     -3597.9145      301.35804     -1754.8921      44750.738     -31714.55      -346.31209      54610.694      37.939584      37.939584      37.939584      1.0962344      103.41586     -217.8258       1856.4964    
     60000   60000          618.3587      -1358.9039      24534.006      25616.292      8329.4652      17286.827      3733.2268      5539.4489     -3524.8745      310.66906     -1774.7732      44724.079     -31720.949     -346.31209      54610.694      37.939584      37.939584      37.939584      1.0962344     -3078.6298      200.98523     -1199.0671    
     61000   61000          625.31615     -748.2533       25203.823      25799.763      8423.184       17376.579      3841.203       5511.3126     -3562.7083      330.04487     -1730.4452      44708.064     -31720.892     -346.31209      54610.694      37.939584      37.939584      37.939584      1.0962344     -1081.6553      515.27553     -1678.3801    
     62000   62000          612.87425      64.021377      25728.451      25677.462      8255.5882      17421.874      3905.6951      5689.6435     -3684.9065      313.23228     -1795.2837      44717.036     -31723.543     -346.31209      54610.694      37.939584      37.939584      37.939584      1.0962344      117.08724      573.03492     -498.05803    
     63000   63000          628.00068     -1076.1461      25031.83       25888.917      8459.3454      17429.572      3843.4798      5600.5002     -3574.648       336.12466     -1751.7953      44697.236     -31721.325     -346.31209      54610.694      37.939584      37.939584      37.939584      1.0962344     -1684.246       954.37084     -2498.5633    
     64000   64000          627.54113      611.14864      26539.172      26052.428      8453.1551      17599.273      3995.444       5534.2569     -3589.0567      318.3701      -1630.9299      44684.178     -31712.989     -346.31209      54610.694      37.939584      37.939584      37.939584      1.0962344      1868.3747      143.5255      -178.45433    
     65000   65000          615.44723      99.469991      25698.549      25619.327      8290.247       17329.08       3785.7989      5594.9246     -3590.3447      289.15591     -1730.1474      44701.14      -31721.447     -346.31209      54610.694      37.939584      37.939584      37.939584      1.0962344      914.80363     -2492.2993      1875.9056    
     66000   66000          620.3138       3456.1307      28357.991      25605.387      8355.8009      17249.586      3696.4906      5473.426      -3587.5157      313.09399     -1695.3734      44762.53      -31713.065     -346.31209      54610.694      37.939584      37.939584      37.939584      1.0962344      4127.9378      4040.4855      2199.969     
     67000   67000          622.53503     -871.84511      25014.082      25708.455      8385.7216      17322.734      3760.4103      5637.6736     -3534.8088      280.0407      -1831.0439      44723.947     -31713.485     -346.31209      54610.694      37.939584      37.939584      37.939584      1.0962344     -400.38334      173.78641     -2388.9384    
     68000   68000          613.76963     -1165.0939      24823.878      25751.807      8267.6491      17484.158      4025.1143      5538.8384     -3639.5947      307.92335     -1717.6476      44692.564     -31723.04      -346.31209      54610.694      37.939584      37.939584      37.939584      1.0962344     -80.986152     -2384.3399     -1029.9556    
     69000   69000          622.87882      573.37713      26266.821      25810.16       8390.3525      17419.808      3839.5064      5532.2665     -3628.7691      331.61934     -1702.3033      44749.995     -31702.508     -346.31209      54610.694      37.939584      37.939584      37.939584      1.0962344      1936.2465     -852.4147       636.2996     
     70000   70000          615.27821      200.86093      25825.653      25665.679      8287.9701      17377.709      3822.7114      5707.3113     -3626.2528      298.74122     -1748.2194      44638.693     -31715.275     -346.31209      54610.694      37.939584      37.939584      37.939584      1.0962344      2289.6532     -117.52909     -1569.5413    
     71000   71000          624.59167     -229.76069      25783.575      25966.566      8413.4251      17553.141      3790.4642      5686.046      -3558.3109      345.78584     -1710.1466      44715.269     -31715.966     -346.31209      54610.694      37.939584      37.939584      37.939584      1.0962344     -1477.3619      2178.1696     -1390.0899    
     72000   72000          615.55707     -955.8989       25014.947      25776.264      8291.7264      17484.537      3707.9309      5763.8235     -3561.8803      276.83468     -1783.1109      44776.589     -31695.65      -346.31209      54610.694      37.939584      37.939584      37.939584      1.0962344     -743.4362      -1870.5038     -253.75674    
     73000   73000          617.89363     -913.79201      24896.817      25624.598      8323.2006      17301.398      3773.955       5563.8423     -3622.4525      285.51008     -1665.0209      44671.745     -31706.181     -346.31209      54610.694      37.939584      37.939584      37.939584      1.0962344      134.69814     -3513.8936      637.81943    
     74000   74000          624.58518      605.67922      26372.193      25889.805      8413.3376      17476.468      3793.6202      5707.178      -3636.4789      276.01624     -1700.2965      44740.623     -31704.194     -346.31209      54610.694      37.939584      37.939584      37.939584      1.0962344      556.08193      1313.1279     -52.172177    
     75000   75000          612.20485     -1138.5423      24695.83       25602.612      8246.5712      17356.041      3804.7091      5498.4908     -3592.7922      335.72894     -1752.7625      44778.425     -31715.758     -346.31209      54610.694      37.939584      37.939584      37.939584      1.0962344     -1390.8131     -48.611957     -1976.2018    
     76000   76000          619.64361     -819.21345      25084.473      25736.928      8346.7733      17390.155      3773.3667      5608.0235     -3516.3837      270.06343     -1794.9908      44766.128     -31716.052     -346.31209      54610.694      37.939584      37.939584      37.939584      1.0962344     -881.51907     -1148.0023     -428.119      
     77000   77000          635.14881     -851.4179       25382.669      26060.774      8555.6327      17505.141      3874.1569      5627.1917     -3563.7673      260.8448      -1697.0612      44719.152     -31715.376     -346.31209      54610.694      37.939584      37.939584      37.939584      1.0962344     -330.62441      14.767814     -2238.3971    
     78000   78000          611.82334      2278.633       27496.933      25682.136      8241.4321      17440.704      3824.042       5653.9304     -3575.8226      276.96767     -1726.8029      44711.281     -31722.892     -346.31209      54610.694      37.939584      37.939584      37.939584      1.0962344      1400.8781      3097.3769      2337.6441    
     79000   79000          627.43895      469.27798      26127.944      25754.192      8451.7788      17302.413      3755.6622      5637.3651     -3644.222       278.05953     -1735.147       44719.9       -31709.205     -346.31209      54610.694      37.939584      37.939584      37.939584      1.0962344      2311.8941     -272.10531     -631.95487    
     80000   80000          618.60264     -803.6423       25278.11       25918.164      8332.7512      17585.413      3864.3709      5655.8363     -3545.1347      350.37342     -1798.3889      44768.249     -31709.893     -346.31209      54610.694      37.939584      37.939584      37.939584      1.0962344     -1375.0488     -2452.3726      1416.4944    
     81000   81000          612.78874     -1473.3358      24539.508      25712.933      8254.4362      17458.496      3743.2397      5664.8859     -3575.8136      322.45667     -1713.5163      44731.58      -31714.336     -346.31209      54610.694      37.939584      37.939584      37.939584      1.0962344     -1646.4137     -408.49495     -2365.0988    
     82000   82000          610.7         -587.39025      25253.196      25721.017      8226.3004      17494.717      3905.702       5547.0262     -3546.1765      316.50762     -1681.5015      44668.277     -31715.117     -346.31209      54610.694      37.939584      37.939584      37.939584      1.0962344     -145.25705     -550.88991     -1066.0238    
     83000   83000          618.35281      269.90297      25953.707      25738.745      8329.3859      17409.359      3879.2261      5531.9448     -3568.3788      291.43339     -1692.4598      44684.09      -31716.496     -346.31209      54610.694      37.939584      37.939584      37.939584      1.0962344     -566.82165      1821.8182     -445.28768    
     84000   84000          614.1272      -1735.4587      24269.453      25651.643      8272.4658      17379.177      3868.6201      5557.8052     -3584.0358      322.92799     -1791.5848      44715.069     -31709.625     -346.31209      54610.694      37.939584      37.939584      37.939584      1.0962344     -3308.8885     -858.78522     -1038.7023    
     85000   85000          617.59837      296.4948       26043.839      25807.698      8319.2233      17488.475      3888.5576      5492.6557     -3547.5455      309.35438     -1698.5682      44751.748     -31707.727     -346.31209      54610.694      37.939584      37.939584      37.939584      1.0962344      2521.9228     -1419.8453     -212.59312    
     86000   86000          631.30942      1085.3994      26963.449      26098.992      8503.915       17595.077      3907.9744      5624.3123     -3542.8174      296.11938     -1706.0724      44728.948     -31713.387     -346.31209      54610.694      37.939584      37.939584      37.939584      1.0962344      2386.1541     -544.35586      1414.3999    
     87000   87000          623.51368     -2317.431       23890.529      25736.226      8398.9043      17337.322      3862.7162      5571.0984     -3620.7121      318.179       -1802.2516      44708.085     -31699.793     -346.31209      54610.694      37.939584      37.939584      37.939584      1.0962344     -1836.8267     -3285.7453     -1829.7209    
     88000   88000          629.54667     -1556.3456      24640.297      25879.835      8480.1703      17399.664      3726.8437      5656.252      -3626.9674      324.79903     -1712.1408      44733.65      -31702.772     -346.31209      54610.694      37.939584      37.939584      37.939584      1.0962344     -2718.157      -1510.8081     -440.07159    
     89000   89000          612.09393     -134.73848      25639.434      25746.745      8245.077       17501.668      3828.2976      5677.496      -3596.6496      343.78964     -1745.5929      44697.31      -31702.983     -346.31209      54610.694      37.939584      37.939584      37.939584      1.0962344     -1478.7717      1699.2724     -624.71605    
     90000   90000          622.43884      139.7652       26014.971      25903.656      8384.4259      17519.23       3941.723       5563.4466     -3595.6282      293.22975     -1703.3998      44726.777     -31706.918     -346.31209      54610.694      37.939584      37.939584      37.939584      1.0962344      1092.0185     -300.1538      -372.56907    
     91000   91000          613.1714      -1126.8018      24743.29       25640.721      8259.5908      17381.13       3886.7612      5573.4412     -3569.5349      279.81475     -1783.5152      44702.157     -31707.994     -346.31209      54610.694      37.939584      37.939584      37.939584      1.0962344     -483.91121     -1495.93       -1400.5642    
     92000   92000          632.17501      2917.4229      28248.883      25925.328      8515.5748      17409.753      3702.4768      5589.028      -3567.0302      330.30949     -1668.733       44736.263     -31712.561     -346.31209      54610.694      37.939584      37.939584      37.939584      1.0962344      1759.6306      3063.2537      3929.3844    
     93000   93000          618.35675     -3508.6384      23062.778      25857.201      8329.439       17527.762      3949.9337      5689.3362     -3619.7416      293.99977     -1752.3336      44668.579     -31702.011     -346.31209      54610.694      37.939584      37.939584      37.939584      1.0962344     -2684.1725     -3478.3829     -4363.3599    
     94000   94000          616.94708      1313.5954      26853.06       25806.859      8310.4502      17496.409      3764.3624      5643.1675     -3670.2449      322.05244     -1613.899       44745.928     -31694.957     -346.31209      54610.694      37.939584      37.939584      37.939584      1.0962344      3831.7418     -109.5138       218.5583     
     95000   95000          625.47067     -639.71843      25475.247      25984.745      8425.2655      17559.479      3883.48        5562.458      -3523.3953      282.20749     -1679.5769      44735.955     -31701.649     -346.31209      54610.694      37.939584      37.939584      37.939584      1.0962344     -680.1923      -1291.8039      52.84097     
     96000   96000          609.61474     -280.38361      25512.782      25736.091      8211.6816      17524.409      3907.1165      5598.2437     -3577.5352      322.10663     -1757.7176      44725.617     -31693.422     -346.31209      54610.694      37.939584      37.939584      37.939584      1.0962344      1348.7894     -1749.6425     -440.29775    
     97000   97000          629.01219     -709.45657      25367.959      25933          8472.9707      17460.029      3922.0142      5653.7146     -3601.3866      298.02202     -1778.1692      44659.618     -31693.784     -346.31209      54610.694      37.939584      37.939584      37.939584      1.0962344     -2755.5221     -936.24524      1563.3977    
     98000   98000          614.11638     -290.64219      25381.186      25612.665      8272.32        17340.345      3851.0493      5525.314      -3611.8712      293.25872     -1728.6815      44714.817     -31703.542     -346.31209      54610.694      37.939584      37.939584      37.939584      1.0962344      445.51466     -1314.595      -2.8461887    
     99000   99000          630.06832     -373.38505      25729.479      26026.858      8487.1971      17539.661      3939.0544      5723.0909     -3622.912       323.00417     -1811.1938      44696.05      -31707.433     -346.31209      54610.694      37.939584      37.939584      37.939584      1.0962344      825.76074     -1588.9073     -357.0086     
    100000   100000         621.15659     -349.49688      25457.597      25735.951      8367.1536      17368.797      3914.935       5590.9895     -3659.2446      274.16637     -1760.34        44705.315     -31697.024     -346.31209      54610.694      37.939584      37.939584      37.939584      1.0962344      719.03249      522.42124     -2289.9444    
    101000   101000         627.31068     -2176.1275      24069.92       25803.077      8450.0508      17353.026      3855.8723      5715.266      -3638.8158      286.88153     -1810.3495      44664.45      -31720.278     -346.31209      54610.694      37.939584      37.939584      37.939584      1.0962344     -2486.0927     -2070.5022     -1971.7878    
    102000   102000         626.51289     -1234.7542      25032.321      26015.73       8439.3044      17576.425      3910.3153      5582.2942     -3600.5644      339.50835     -1716.9414      44769.549     -31707.736     -346.31209      54610.694      37.939584      37.939584      37.939584      1.0962344     -418.07441     -1488.9422     -1797.246     
    103000   103000         620.85018      1331.8226      26832.375      25771.657      8363.0262      17408.631      3822.3767      5601.0904     -3592.371       302.69821     -1761.4776      44747.005     -31710.69      -346.31209      54610.694      37.939584      37.939584      37.939584      1.0962344      1337.2711      2305.1376      353.05913    
    104000   104000         627.11719     -378.69347      25719.902      26021.509      8447.4446      17574.065      3994.892       5642.5075     -3652.8521      278.39381     -1712.189       44727.713     -31704.401     -346.31209      54610.694      37.939584      37.939584      37.939584      1.0962344      573.29201     -525.8049      -1183.5675    
    105000   105000         618.89271     -1125.7686      24883.1        25779.708      8336.6585      17443.05       3899.6635      5569.382      -3622.3986      289.636       -1690.738       44699.079     -31701.575     -346.31209      54610.694      37.939584      37.939584      37.939584      1.0962344     -1777.2393     -887.43543     -712.63111    
    106000   106000         609.93195      152.69103      25749.195      25627.585      8215.9545      17411.631      3769.7439      5617.343      -3622.7987      303.70438     -1703.6132      44761.242     -31713.991     -346.31209      54610.694      37.939584      37.939584      37.939584      1.0962344      1495.1458     -1908.2525      871.17983    
    107000   107000         618.38955      3075.7152      28303.458      25853.833      8329.8808      17523.952      3842.9032      5523.8103     -3569.446       292.32024     -1613.1168      44758.357     -31710.876     -346.31209      54610.694      37.939584      37.939584      37.939584      1.0962344      2552.7669      3876.1354      2798.2433    
    108000   108000         615.75526      455.70567      26160.477      25797.534      8294.3962      17503.138      3837.1954      5673.049      -3563.1126      293.75385     -1768.4585      44747.435     -31716.724     -346.31209      54610.694      37.939584      37.939584      37.939584      1.0962344      1483.5895      108.21386     -224.68634    
    109000   109000         625.71579      242.51879      26005.193      25812.042      8428.5672      17383.474      3741.5521      5521.7944     -3570.7684      292.66522     -1644.0275      44747.499     -31705.24      -346.31209      54610.694      37.939584      37.939584      37.939584      1.0962344      237.5695      -52.385838      542.37271    
    110000   110000         615.54617      1337.2966      27070.331      26005.253      8291.5796      17713.673      3943.8395      5711.4459     -3625.4582      342.10364     -1649.9498      44705.041     -31713.349     -346.31209      54610.694      37.939584      37.939584      37.939584      1.0962344      1337.6437      1416.9333      1257.3127    
    111000   111000         630.15965      271.14518      26128.708      25912.757      8488.4274      17424.329      3780.0405      5702.2578     -3628.9121      299.52427     -1795.5342      44777.834     -31710.881     -346.31209      54610.694      37.939584      37.939584      37.939584      1.0962344      702.1505      -787.42016      898.7052     
    112000   112000         624.79503      675.40409      26301.993      25764.073      8416.1644      17347.909      3782.2441      5619.6353     -3613.7502      322.33867     -1749.4695      44701.686     -31714.776     -346.31209      54610.694      37.939584      37.939584      37.939584      1.0962344      2141.1313     -1556.4957      1441.5766    
    113000   113000         616.25123      232.88776      26124.66       25939.179      8301.077       17638.102      3804.7626      5783.5986     -3631.7663      328.06757     -1626.4031      44697.395     -31717.553     -346.31209      54610.694      37.939584      37.939584      37.939584      1.0962344      2808.0833     -2367.0784      257.65833    
    114000   114000         619.08551     -435.51709      25442.485      25789.349      8339.2556      17450.093      3971.0797      5507.1574     -3661.2804      281.97894     -1643.7269      44705.371     -31710.487     -346.31209      54610.694      37.939584      37.939584      37.939584      1.0962344     -1255.2634     -263.27543      211.9875     
    115000   115000         615.13781      76.454646      25669.812      25608.92       8286.079       17322.841      3845.7925      5585.7961     -3655.787       343.22576     -1722.0946      44637.715     -31711.806     -346.31209      54610.694      37.939584      37.939584      37.939584      1.0962344      646.37156      2606.2066     -3023.2142    
    116000   116000         626.47712     -104.08706      25709.186      25792.085      8438.8227      17353.263      3733.3352      5679.9253     -3622.2971      294.70217     -1667.7852      44653.276     -31717.894     -346.31209      54610.694      37.939584      37.939584      37.939584      1.0962344     -339.49538     -528.22413      555.45833    
    117000   117000         616.10501     -803.37547      25142.408      25782.249      8299.1073      17483.142      3814.4147      5693.1843     -3624.8308      304.67697     -1677.3232      44694.092     -31721.072     -346.31209      54610.694      37.939584      37.939584      37.939584      1.0962344      60.170513     -2483.5753      13.278341    
    118000   118000         613.31949     -1197.4926      24906.542      25860.274      8261.5856      17598.688      3947.8907      5708.0526     -3600.368       279.41157     -1722.8809      44693.851     -31707.268     -346.31209      54610.694      37.939584      37.939584      37.939584      1.0962344      1211.2439     -2532.7891     -2270.9325    
    119000   119000         623.81833     -525.16616      25387.576      25805.839      8403.0079      17402.831      3863.3652      5576.5859     -3643.8576      289.5419      -1717.8919      44748.433     -31713.345     -346.31209      54610.694      37.939584      37.939584      37.939584      1.0962344     -1757.4142     -520.76687      702.68261    
    120000   120000         613.67284      1195.3922      26758.6        25806.541      8266.3454      17540.195      3812.4064      5513.4874     -3541.8474      322.40394     -1631.8097      44779.205     -31713.65      -346.31209      54610.694      37.939584      37.939584      37.939584      1.0962344      2218.9218      1515.8409     -148.58607    
    121000   121000         628.24167      1261.4934      27004.499      25999.794      8462.5916      17537.202      3854.171       5657.838      -3576.8008      289.02817     -1711.5504      44739.29      -31714.773     -346.31209      54610.694      37.939584      37.939584      37.939584      1.0962344      1140.8927      2876.1712     -232.58379    
    122000   122000         616.57183     -817.19869      25058.988      25709.839      8305.3956      17404.443      3781.9905      5587.911      -3574.001       285.18746     -1668.2851      44709.73      -31718.09      -346.31209      54610.694      37.939584      37.939584      37.939584      1.0962344     -1313.112      -958.92355     -179.56056    
    123000   123000         629.23042     -1902.2998      24419.476      25934.546      8475.9104      17458.635      3926.8281      5510.3403     -3605.4211      269.59746     -1709.78        44768.623     -31701.552     -346.31209      54610.694      37.939584      37.939584      37.939584      1.0962344     -1587.7916     -1785.3156     -2333.7921    
    124000   124000         620.86811     -401.9641       25371.539      25691.679      8363.2677      17328.412      3823.4042      5563.926      -3615.7076      267.80454     -1701.7695      44704.416     -31713.662     -346.31209      54610.694      37.939584      37.939584      37.939584      1.0962344      1377.8923     -1650.4852     -933.29943    
    125000   125000         614.50046      1324.5322      26941.372      25886.46       8277.4936      17608.967      3861.1953      5691.2968     -3584.2104      275.2506      -1680.1445      44741.993     -31696.414     -346.31209      54610.694      37.939584      37.939584      37.939584      1.0962344      2769.7207      1319.4114     -115.53547    
    126000   126000         618.83676     -875.33964      25061.466      25758.622      8335.9048      17422.718      3953.2582      5613.6782     -3673.8827      344.7006      -1814.0118      44717.776     -31718.801     -346.31209      54610.694      37.939584      37.939584      37.939584      1.0962344      515.68337     -1145.2059     -1996.4964    
    127000   127000         626.80372      900.00706      26648.113      25931.31       8443.222       17488.088      3932.7149      5720.7346     -3744.1483      345.17141     -1710.4104      44667.442     -31723.415     -346.31209      54610.694      37.939584      37.939584      37.939584      1.0962344      1975.7832      1859.5504     -1135.3125    
    128000   128000         621.09646     -1186.4598      24863.468      25808.413      8366.3436      17442.07       3925.4446      5686.1178     -3649.33        300.81731     -1803.645       44706.466     -31723.801     -346.31209      54610.694      37.939584      37.939584      37.939584      1.0962344     -1848.3417     -473.06469     -1237.9729    
    129000   129000         628.91585      194.73098      26229.974      26074.882      8471.673       17603.209      3852.3861      5763.466      -3652.3219      313.49089     -1641.3795      44682.63      -31715.063     -346.31209      54610.694      37.939584      37.939584      37.939584      1.0962344      1338.6009     -2766.3286      2011.9207    
    130000   130000         617.01715     -341.28629      25313.426      25585.241      8311.3941      17273.846      3697.6814      5557.5629     -3627.4705      301.3123      -1706.7793      44755.156     -31703.616     -346.31209      54610.694      37.939584      37.939584      37.939584      1.0962344     -1281.3517      1226.0245     -968.53171    
    131000   131000         624.24089     -2111.7909      24181.301      25863.218      8408.7         17454.518      3931.8809      5701.1119     -3730.2406      316.75261     -1677.9764      44632.031     -31719.041     -346.31209      54610.694      37.939584      37.939584      37.939584      1.0962344     -797.43756     -2255.8823     -3282.0528    
    132000   132000         626.93264      978.04788      26661.379      25882.421      8444.9586      17437.463      3759.6838      5759.1824     -3659.8819      296.81767     -1695.4751      44693.934     -31716.798     -346.31209      54610.694      37.939584      37.939584      37.939584      1.0962344      1060.8094      2372.4285     -499.09417    
    133000   133000         622.87006     -954.70979      24935.008      25695.378      8390.2345      17305.143      3852.2597      5605.6825     -3618.3776      294.25429     -1814.9039      44701.768     -31715.54      -346.31209      54610.694      37.939584      37.939584      37.939584      1.0962344      285.43475     -1656.3549     -1493.2092    
    134000   134000         612.61629     -740.7533       25140.341      25730.308      8252.1133      17478.194      3811.1042      5680.5772     -3635.3594      336.88535     -1717.1316      44706.349     -31704.23      -346.31209      54610.694      37.939584      37.939584      37.939584      1.0962344     -1154.9487     -205.52749     -861.78367    
    135000   135000         617.2563       200.67737      26003.981      25844.154      8314.6156      17529.538      3803.4024      5594.0739     -3577.489       340.56079     -1713.7417      44790.524     -31707.792     -346.31209      54610.694      37.939584      37.939584      37.939584      1.0962344      2162.7346      96.269744     -1656.9722    
    136000   136000         639.83854     -1938.8681      24487.572      26031.766      8618.8046      17412.961      3890.5441      5499.2962     -3565.1754      311.23337     -1709.8148      44696.927     -31710.05      -346.31209      54610.694      37.939584      37.939584      37.939584      1.0962344      38.107826     -3000.4639     -2854.2482    
    137000   137000         611.8366      -1959.4486      24173.901      25734.486      8241.6107      17492.875      4003.9104      5637.06       -3632.8657      335.15387     -1817.7821      44687.516     -31720.117     -346.31209      54610.694      37.939584      37.939584      37.939584      1.0962344     -726.42252     -1469.1229     -3682.8003    
    138000   138000         628.52838     -508.47003      25611.819      26016.785      8466.4536      17550.332      3957.762       5624.3984     -3611.2025      308.77922     -1742.2563      44732.17      -31719.319     -346.31209      54610.694      37.939584      37.939584      37.939584      1.0962344     -223.85463     -790.44225     -511.11322    
    139000   139000         628.83636     -1111.061       24946.256      25831.15       8470.6022      17360.548      3904.1972      5603.6291     -3571.6653      294.63559     -1815.0644      44663.189     -31718.373     -346.31209      54610.694      37.939584      37.939584      37.939584      1.0962344     -2156.2419     -966.22426     -210.71688    
    140000   140000         619.1357       1847.916       27106.724      25634.968      8339.9316      17295.036      3813.8188      5551.1597     -3649.4219      300.29352     -1740.2827      44735.097     -31715.629     -346.31209      54610.694      37.939584      37.939584      37.939584      1.0962344      1858.6401      2635.8981      1049.2098    
    141000   141000         615.93805      1057.6299      26479.064      25636.724      8296.8584      17339.866      3783.6736      5550.7734     -3569.4788      335.94194     -1778.0675      44720.756     -31703.733     -346.31209      54610.694      37.939584      37.939584      37.939584      1.0962344      1846.6713      879.21033      447.00807    
    142000   142000         623.08358     -699.85866      25229.241      25786.637      8393.1107      17393.527      3811.3336      5646.9088     -3597.8479      277.91171     -1753.5749      44726.192     -31717.396     -346.31209      54610.694      37.939584      37.939584      37.939584      1.0962344     -1793.9428     -1509.0154      1203.3822    
    143000   143000         615.65483      3295.7754      28201.815      25576.925      8293.0433      17283.881      3787.8654      5528.2149     -3653.6163      307.42872     -1683.0752      44711.907     -31714.843     -346.31209      54610.694      37.939584      37.939584      37.939584      1.0962344      4195.351       1780.6281      3911.347     
    144000   144000         620.94997     -185.29477      25654.482      25802.058      8364.3703      17437.688      3850.5376      5611.6536     -3566.6318      310.2158      -1786.8003      44728.53      -31709.817     -346.31209      54610.694      37.939584      37.939584      37.939584      1.0962344      658.29492     -1681.445       467.26581    
    145000   145000         626.8278       1323.1463      26865.61       25811.802      8443.5463      17368.256      3813.2547      5580.9342     -3603.2697      286.37535     -1748.9901      44755.035     -31715.083     -346.31209      54610.694      37.939584      37.939584      37.939584      1.0962344      3173.7143     -35.421196      831.14578    
    146000   146000         623.472        89.331579      26110.486      26039.339      8398.3428      17640.996      3887.2146      5734.6078     -3551.2637      309.29357     -1771.7289      44750.732     -31717.859     -346.31209      54610.694      37.939584      37.939584      37.939584      1.0962344      1015.3375      842.00291     -1589.3456    
    147000   147000         617.04796     -689.90382      25171.451      25720.919      8311.8092      17409.11       3835.5193      5583.9545     -3550.2559      278.16098     -1745.2142      44720.335     -31713.39      -346.31209      54610.694      37.939584      37.939584      37.939584      1.0962344     -3343.8775      518.89636      755.2697     
    148000   148000         618.04501     -1968.3235      24074.739      25642.392      8325.2397      17317.153      3893.3523      5417.2481     -3497.1495      302.84444     -1836.5047      44742.995     -31705.634     -346.31209      54610.694      37.939584      37.939584      37.939584      1.0962344     -1457.6457     -1460.0857     -2987.2393    
[...]
    955000   955000         630.01926      169.73149      25864.645      25729.464      8486.5362      17242.928      3691.3742      5570.0182     -3634.5529      304.8094      -1622.069       44643.03      -31709.682     -346.31209      54610.694      37.939584      37.939584      37.939584      1.0962344      189.72557     -1384.8572      1704.3261    
    956000   956000         621.22602     -543.80202      25296.68       25729.786      8368.0888      17361.697      3893.8167      5597.52       -3641.22        294.99415     -1774.9559      44692.426     -31700.884     -346.31209      54610.694      37.939584      37.939584      37.939584      1.0962344     -1133.8852      122.48798     -620.00882    
    957000   957000         613.96154     -2671.3003      23601.456      25728.989      8270.2343      17458.755      3788.2194      5746.382      -3616.2578      306.48214     -1787.9814      44727.601     -31705.69      -346.31209      54610.694      37.939584      37.939584      37.939584      1.0962344     -584.20462     -2806.6117     -4623.0846    
    958000   958000         616.562        954.0756       26341.484      25581.619      8305.2631      17276.356      3812.3525      5539.5823     -3608.2699      278.94539     -1715.2904      44676.749     -31707.713     -346.31209      54610.694      37.939584      37.939584      37.939584      1.0962344     -20.786714      1547.8628      1335.1507    
    959000   959000         623.83194      621.30963      26229.305      25734.469      8403.1913      17331.277      3913.52        5619.5777     -3690.7566      303.58658     -1720.9547      44626.468     -31720.164     -346.31209      54610.694      37.939584      37.939584      37.939584      1.0962344      1639.455      -445.17007      669.64395    
    960000   960000         621.43808     -751.36666      25072.918      25671.337      8370.9453      17300.392      3831.4596      5616.0905     -3652.24        320.74776     -1762.1271      44659.666     -31713.205     -346.31209      54610.694      37.939584      37.939584      37.939584      1.0962344     -3294.5437      1137.5132     -97.069468    
    961000   961000         615.05162      1694.3291      27100.124      25750.691      8284.9179      17465.773      3871.7357      5602.5112     -3641.1028      322.84102     -1676.6105      44695.009     -31708.61      -346.31209      54610.694      37.939584      37.939584      37.939584      1.0962344     -411.08815      4316.5374      1177.5379    
    962000   962000         614.22885      62.351902      25855.372      25805.712      8273.8349      17531.877      3796.2492      5634.1658     -3514.1971      308.14543     -1703.668       44718.236     -31707.054     -346.31209      54610.694      37.939584      37.939584      37.939584      1.0962344      2513.532      -3221.9628      895.48652    
    963000   963000         612.84313     -1309.5893      24656.361      25699.372      8255.169       17444.203      3922.5296      5600.4085     -3646.206       284.66035     -1729.6721      44704.585     -31692.102     -346.31209      54610.694      37.939584      37.939584      37.939584      1.0962344      878.2992      -1681.4353     -3125.6318    
    964000   964000         616.04896      120.55463      25781.385      25685.37       8298.3524      17387.018      3878.956       5495.7775     -3646.9708      338.49921     -1646.2323      44684.908     -31717.92      -346.31209      54610.694      37.939584      37.939584      37.939584      1.0962344      2842.5626     -3871.0663      1390.1676    
    965000   965000         622.08029     -1780.2288      24587.193      26005.04       8379.5961      17625.444      3897.8287      5709.6654     -3560.1999      320.54616     -1778.4175      44743.948     -31707.927     -346.31209      54610.694      37.939584      37.939584      37.939584      1.0962344     -467.06735     -1600.6828     -3272.9362    
    966000   966000         627.83883      1611.8077      27128.936      25845.226      8457.1652      17388.061      3808.2524      5501.1683     -3566.0039      290.55764     -1654.6128      44720.961     -31712.262     -346.31209      54610.694      37.939584      37.939584      37.939584      1.0962344      909.34251      2992.6444      933.43638    
    967000   967000         614.47162      1151.0064      26536.866      25620.157      8277.1052      17343.052      3781.8834      5593.0536     -3616.6029      314.31846     -1701.3377      44684.228     -31712.492     -346.31209      54610.694      37.939584      37.939584      37.939584      1.0962344      1281.1054      699.93464      1471.9792    
    968000   968000         601.10504     -738.27732      24934.377      25522.371      8097.0536      17425.317      3942.9009      5587.3861     -3666.881       317.45357     -1776.2015      44728.335     -31707.676     -346.31209      54610.694      37.939584      37.939584      37.939584      1.0962344     -2618.0459      285.15125      118.06274    
    969000   969000         623.09054     -951.29808      24972.451      25730.104      8393.2044      17336.899      3846.6538      5552.4261     -3638.1079      292.62094     -1710.9033      44686.399     -31692.189     -346.31209      54610.694      37.939584      37.939584      37.939584      1.0962344     -847.85959     -1172.8745     -833.16016    
    970000   970000         618.53297      1341.2212      26891.051      25822.847      8331.8127      17491.035      3924.9405      5545.4467     -3524.223       313.75399     -1799.3063      44732.167     -31701.744     -346.31209      54610.694      37.939584      37.939584      37.939584      1.0962344      2625.6289      1261.8672      136.16759    
    971000   971000         620.61634     -560.11769      25461.749      25907.85       8359.8762      17547.973      3810.423       5762.757      -3602.2006      297.21931     -1731.1833      44715.857     -31704.899     -346.31209      54610.694      37.939584      37.939584      37.939584      1.0962344     -713.3162      -1086.5533      119.51645    
    972000   972000         624.91031      572.43138      26117.288      25661.38       8417.7172      17243.663      3696.7884      5543.1036     -3541.7203      316.50761     -1796.9368      44727.403     -31701.482     -346.31209      54610.694      37.939584      37.939584      37.939584      1.0962344      2361.7709     -785.90771      141.43093    
    973000   973000         619.77235      812.67684      26281.749      25634.5        8348.5075      17285.993      3859.8041      5486.9319     -3617.3113      313.54038     -1713.7367      44662.965     -31706.201     -346.31209      54610.694      37.939584      37.939584      37.939584      1.0962344     -73.996846      597.02355      1915.0038    
    974000   974000         617.25606      1141.3973      26753.577      25844.521      8314.6123      17529.909      3823.5551      5621.5144     -3559.9111      302.6833      -1663.6539      44710.246     -31704.525     -346.31209      54610.694      37.939584      37.939584      37.939584      1.0962344      2038.7401      919.1156       466.33612    
    975000   975000         617.38384      1160.5594      26721.776      25797.459      8316.3336      17481.125      3800.8232      5738.6685     -3603.285       342.33336     -1770.105       44663.757     -31691.066     -346.31209      54610.694      37.939584      37.939584      37.939584      1.0962344     -1011.9669      3447.8068      1045.8382    
    976000   976000         619.11493     -735.08276      25217.194      25802.644      8339.6519      17462.992      3727.6565      5699.8481     -3609.2376      326.52866     -1744.691       44760.66      -31697.773     -346.31209      54610.694      37.939584      37.939584      37.939584      1.0962344     -787.07626     -2059.0517      640.8797     
    977000   977000         627.72902     -880.07868      25273.462      25974.392      8455.6861      17518.706      3819.388       5718.4975     -3642.4436      296.49933     -1669.7379      44694.006     -31697.503     -346.31209      54610.694      37.939584      37.939584      37.939584      1.0962344     -966.70077     -1428.2977     -245.23755    
    978000   978000         620.04522     -887.33389      25069.642      25776.351      8352.1832      17424.168      3864.9846      5645.0322     -3623.0223      269.42729     -1698.6669      44674.754     -31708.342     -346.31209      54610.694      37.939584      37.939584      37.939584      1.0962344     -815.45186      406.87491     -2253.4247    
    979000   979000         606.42107     -849.07521      24888.535      25564.774      8168.662       17396.112      3831.9001      5616.5571     -3646.639       308.70661     -1714.1548      44720.749     -31721.008     -346.31209      54610.694      37.939584      37.939584      37.939584      1.0962344      1671.4843     -1586.5504     -2632.1596    
    980000   980000         620.23915     -67.427948      25828.225      25881.927      8354.7954      17527.132      3928.8519      5706.5042     -3652.5797      276.64769     -1686.0512      44656.312     -31702.554     -346.31209      54610.694      37.939584      37.939584      37.939584      1.0962344     -870.19285      306.26886      361.64014    
    981000   981000         618.55293      540.24914      26149.978      25719.702      8332.0816      17387.62       3952.7541      5510.504      -3641.9319      313.53676     -1684.8175      44645.424     -31707.849     -346.31209      54610.694      37.939584      37.939584      37.939584      1.0962344     -1650.323       2465.9654      805.10506    
    982000   982000         631.19726      1560.3393      27155.717      25912.999      8502.4041      17410.595      3867.7574      5493.9582     -3614.3206      334.03631     -1706.3523      44743.96      -31708.445     -346.31209      54610.694      37.939584      37.939584      37.939584      1.0962344      1336.5726      1744.4922      1599.9532    
    983000   983000         610.83455     -71.974439      25596.67       25653.994      8228.1129      17425.881      3865.36        5634.5195     -3616.0684      327.5588      -1798.9341      44725.237     -31711.792     -346.31209      54610.694      37.939584      37.939584      37.939584      1.0962344     -1059.3652      128.05813      715.38376    
    984000   984000         632.81805      692.68241      26580.864      26029.183      8524.2367      17504.947      3844.5885      5637.0015     -3598.5108      348.47273     -1751.6906      44732.158     -31707.072     -346.31209      54610.694      37.939584      37.939584      37.939584      1.0962344     -1305.2378      891.64456      2491.6405    
    985000   985000         619.8505      -819.93945      25082.519      25735.552      8349.5601      17385.992      3941.9809      5529.5429     -3593.2049      291.76434     -1709.7382      44650.193     -31724.546     -346.31209      54610.694      37.939584      37.939584      37.939584      1.0962344     -1830.4518     -643.37192      14.005355    
    986000   986000         622.19333     -50.627938      25927.875      25968.197      8381.1187      17587.078      3914.0173      5690.93       -3568.7819      317.04617     -1736.9694      44679.291     -31708.455     -346.31209      54610.694      37.939584      37.939584      37.939584      1.0962344      724.41032     -276.39785     -599.89628    
    987000   987000         617.47968     -1770.9119      24377.723      25788.149      8317.6245      17470.525      3883.7289      5659.9213     -3561.7892      308.78845     -1772.3171      44674.959     -31722.766     -346.31209      54610.694      37.939584      37.939584      37.939584      1.0962344     -2845.0019     -1049.77       -1417.9639    
    988000   988000         616.13683      673.35004      26060.793      25524.509      8299.536       17224.973      3815.9393      5573.2751     -3695.1345      290.10941     -1692.3321      44650.379     -31717.264     -346.31209      54610.694      37.939584      37.939584      37.939584      1.0962344      2583.1806     -232.89703     -330.23347    
    989000   989000         610.78183     -662.20665      25288.969      25816.377      8227.4027      17588.975      3892.3793      5620.298      -3523.9313      344.50502     -1632.2358      44615.567     -31727.607     -346.31209      54610.694      37.939584      37.939584      37.939584      1.0962344      481.36647     -590.43453     -1877.5519    
    990000   990000         619.92729     -1726.1537      24312.871      25687.65       8350.5946      17337.055      3879.7444      5545.8641     -3677.4919      328.66338     -1731.6522      44711.557     -31719.63      -346.31209      54610.694      37.939584      37.939584      37.939584      1.0962344     -3328.3266     -1066.0568     -784.07784    
    991000   991000         619.02228      1502.5861      26904.721      25708          8338.4038      17369.596      3812.1867      5608.2957     -3686.6017      315.72792     -1656.9538      44699.309     -31722.368     -346.31209      54610.694      37.939584      37.939584      37.939584      1.0962344      1609.3558     -454.86477      3353.2674    
    992000   992000         625.3221      -33.486303      25903.08       25929.75       8423.2641      17506.486      3941.845       5581.3303     -3626.1355      308.26081     -1674.2679      44690.684     -31715.232     -346.31209      54610.694      37.939584      37.939584      37.939584      1.0962344      2934.7242     -465.30928     -2569.8738    
    993000   993000         610.04659      630.03779      25902.631      25400.843      8217.4987      17183.344      3722.2576      5518.8341     -3551.7581      295.37146     -1777.1967      44694.894     -31719.058     -346.31209      54610.694      37.939584      37.939584      37.939584      1.0962344     -742.96871      846.93453      1786.1475    
    994000   994000         618.72805     -687.92896      25149.821      25697.716      8334.4404      17363.275      3914.1495      5611.1758     -3699.1112      306.34976     -1734.2155      44680.698     -31715.771     -346.31209      54610.694      37.939584      37.939584      37.939584      1.0962344      512.21776      495.11877     -3071.1234    
    995000   995000         624.12804      1787.4469      27310.512      25886.916      8407.1798      17479.736      3956.3828      5638.4657     -3615.5607      271.32287     -1674.8273      44637.842     -31733.889     -346.31209      54610.694      37.939584      37.939584      37.939584      1.0962344      3190.0091      1947.4008      224.93086    
    996000   996000         621.03766      288.16039      25882.39       25652.887      8365.5515      17287.336      3752.8853      5543.0648     -3611.0202      303.48854     -1662.6154      44691.324     -31729.791     -346.31209      54610.694      37.939584      37.939584      37.939584      1.0962344      1882.0752      1408.7451     -2426.3392    
    997000   997000         632.36881      699.88903      26434.361      25876.94       8518.1853      17358.755      3927.6184      5552.4096     -3688.9658      305.74797     -1668.2167      44652.132     -31721.97      -346.31209      54610.694      37.939584      37.939584      37.939584      1.0962344      997.04223      1494.5938     -391.96894    
    998000   998000         615.35589      2063.129       27364.479      25721.319      8289.0165      17432.302      3950.3993      5594.294      -3606.4256      301.66324     -1779.6957      44700.26      -31728.193     -346.31209      54610.694      37.939584      37.939584      37.939584      1.0962344      475.79294     -1624.6105      7338.2046    
    999000   999000         607.65535     -123.96632      25487.382      25586.114      8185.288       17400.825      3927.6652      5619.3235     -3620.635       303.74985     -1774.4017      44668.833     -31723.71      -346.31209      54610.694      37.939584      37.939584      37.939584      1.0962344     -2195.2343     -841.58943      2664.9248    
   1000000   1000000        622.73523      107.04314      25696.621      25611.367      8388.4183      17222.949      3882.8088      5413.8329     -3640.5053      339.06419     -1691.5468      44640.93      -31721.634     -346.31209      54610.694      37.939584      37.939584      37.939584      1.0962344      741.09734      521.8568      -941.82472    
Loop time of 2820.43 on 1 procs for 1000000 steps with 4520 atoms

Performance: 30.634 ns/day, 0.783 hours/ns, 354.556 timesteps/s, 1.603 Matom-step/s
100.0% CPU use with 1 MPI tasks x 1 OpenMP threads

MPI task timing breakdown:
Section |  min time  |  avg time  |  max time  |%varavg| %total
---------------------------------------------------------------
Pair    | 19.46      | 19.46      | 19.46      |   0.0 |  0.69
Bond    | 1011       | 1011       | 1011       |   0.0 | 35.85
Kspace  | 1240       | 1240       | 1240       |   0.0 | 43.96
Neigh   | 326.52     | 326.52     | 326.52     |   0.0 | 11.58
Comm    | 48.829     | 48.829     | 48.829     |   0.0 |  1.73
Output  | 8.8964     | 8.8964     | 8.8964     |   0.0 |  0.32
Modify  | 133.69     | 133.69     | 133.69     |   0.0 |  4.74
Other   |            | 32.02      |            |       |  1.14

Nlocal:           4520 ave        4520 max        4520 min
Histogram: 1 0 0 0 0 0 0 0 0 0
Nghost:          14238 ave       14238 max       14238 min
Histogram: 1 0 0 0 0 0 0 0 0 0
Neighs:              0 ave           0 max           0 min
Histogram: 1 0 0 0 0 0 0 0 0 0
FullNghs:  2.38177e+06 ave 2.38177e+06 max 2.38177e+06 min
Histogram: 1 0 0 0 0 0 0 0 0 0

Total # of neighbors = 2381768
Ave neighs/atom = 526.93982
Ave special neighs/atom = 5.5353982
Neighbor list builds = 56527
Dangerous builds = 0

# --- Cleanup ---
unfix nvt_fix

undump dump_nvt

# --- Write Output ---
write_dump all custom nvt_production_last.dump id type mol x y z xu yu zu vx vy vz modify sort id
write_data /home/arz2/PolyJarvis/data/PLA3/lammps/equil/nvt_production/nvt_production_out.data
System init for write_data ...
PPPM Kokkos initialization ...
  using 12-bit tables for long-range coulomb
  G vector (1/distance) = 0.34043304
  grid = 45 45 45
  stencil order = 5
  estimated absolute RMS force accuracy = 0.0002789978
  estimated relative force accuracy = 8.401936e-07
  using double precision cuFFT
  3d grid and FFT values/proc = 140608 91125
Generated 21 of 21 mixed pair_coeff terms from sixthpower/sixthpower mixing rule

print "STAGE COMPLETE: NVT T=620.0->620.0K steps=1000000"
STAGE COMPLETE: NVT T=620.0->620.0K steps=1000000
quit
2      |            |       |  1.14

Nlocal:           4520 ave        4520 max        4520 min
Histogram: 1 0 0 0 0 0 0 0 0 0
Nghost:          14238 ave       14238 max       14238 min
Histogram: 1 0 0 0 0 0 0 0 0 0
Neighs:              0 ave           0 max           0 min
Histogram: 1 0 0 0 0 0 0 0 0 0
FullNghs:  2.38177e+06 ave 2.38177e+06 max 2.38177e+06 min
Histogram: 1 0 0 0 0 0 0 0 0 0

Total # of neighbors = 2381768
Ave neighs/atom = 526.93982
Ave special neighs/atom = 5.5353982
Neighbor list builds = 56527
Dangerous builds = 0
System init for write_data ...
PPPM Kokkos initialization ...
  using 12-bit tables for long-range coulomb
  G vector (1/distance) = 0.34043304
  grid = 45 45 45
  stencil order = 5
  estimated absolute RMS force accuracy = 0.0002789978
  estimated relative force accuracy = 8.401936e-07
  using double precision cuFFT
  3d grid and FFT values/proc = 140608 91125
Generated 21 of 21 mixed pair_coeff terms from sixthpower/sixthpower mixing rule
STAGE COMPLETE: NVT T=620.0->620.0K steps=1000000
