units real
atom_style full
boundary p p p

# --- Force Field Styles ---
pair_style lj/cut 14.0
dielectric 1.000000
bond_style harmonic
angle_style harmonic
dihedral_style multi/harmonic
improper_style none
special_bonds lj 0 0 0
pair_modify mix arithmetic tail yes
neighbor 2.0 bin
neigh_modify delay 0 every 1 check yes
neigh_modify one 4000
package gpu 1 neigh yes

read_data /home/arz2/PolyJarvis/data/PE2/lammps/equil/npt_production/npt_production_out.data
Reading data file ...
  orthogonal box = (2.5061911 2.5061911 2.5061911) to (53.272181 53.272181 53.272181)
  1 by 1 by 1 MPI processor grid
  reading atoms ...
  4840 atoms
  reading velocities ...
  4840 velocities
  scanning bonds ...
  2 = max bonds/atom
  scanning angles ...
  1 = max angles/atom
  scanning dihedrals ...
  2 = max dihedrals/atom
  orthogonal box = (2.5061911 2.5061911 2.5061911) to (53.272181 53.272181 53.272181)
  1 by 1 by 1 MPI processor grid
  reading bonds ...
  4820 bonds
  reading angles ...
  4800 angles
  reading dihedrals ...
  4780 dihedrals
Finding 1-2 1-3 1-4 neighbors ...
  special bond factors lj:    0        0        0       
  special bond factors coul:  0        0        0       
     2 = max # of 1-2 neighbors
     2 = max # of 1-3 neighbors
     4 = max # of 1-4 neighbors
     6 = max # of special neighbors
  special bonds CPU = 0.001 seconds
  read_data CPU = 0.060 seconds


# --- Thermo Output ---
thermo_style custom step time temp press enthalpy etotal ke pe ebond eangle edihed eimp evdwl ecoul elong etail vol lx ly lz density pxx pyy pzz
thermo_modify flush yes
thermo 500

# --- Velocity initialization at T_START (once only — Rule A) ---
velocity all create 450.0 22230 mom yes rot yes dist gaussian

# --- Temperature staircase (inherits momenta across steps — Rule A) ---
variable temps index 450 430 410 390 370 350 330 310 290 270 250 230 210 190 170 150 130 110 100
label TEMP_LOOP
  timestep 2.0
  fix npt_tg all npt temp ${temps} ${temps} 100.0 iso 1.0 1.0 1000.0
  fix npt_tg all npt temp 450 ${temps} 100.0 iso 1.0 1.0 1000.0
  fix npt_tg all npt temp 450 450 100.0 iso 1.0 1.0 1000.0
  run 250000

CITE-CITE-CITE-CITE-CITE-CITE-CITE-CITE-CITE-CITE-CITE-CITE-CITE

Your simulation uses code contributions which should be cited:

- GPU package (short-range, long-range and three-body potentials): doi:10.1016/j.cpc.2010.12.021, doi:10.1016/j.cpc.2011.10.012, doi:10.1016/j.cpc.2013.08.002, doi:10.1016/j.commatsci.2014.10.068, doi:10.1016/j.cpc.2016.10.020, doi:10.3233/APC200086

@Article{Brown11,
 author = {W. M. Brown and P. Wang and S. J. Plimpton and A. N. Tharrington},
 title = {Implementing Molecular Dynamics on Hybrid High Performance Computers---Short Range Forces},
 journal = {Comput.\ Phys.\ Commun.},
 year =    2011,
 volume =  182,
 pages =   {898--911},
 doi =     {10.1016/j.cpc.2010.12.021}
}

@Article{Brown12,
 author = {W. M. Brown and A. Kohlmeyer and S. J. Plimpton and A. N. Tharrington},
 title = {Implementing Molecular Dynamics on Hybrid High Performance Computers - Particle-Particle Particle-Mesh},
 journal = {Comput.\ Phys.\ Commun.},
 year =    2012,
 volume =  183,
 doi =     {10.1016/j.cpc.2011.10.012},
 pages =   {449--459}
}

@Article{Brown13,
 author = {W. M. Brown and Y. Masako},
 title = {Implementing Molecular Dynamics on Hybrid High Performance Computers---Three-Body Potentials},
 journal = {Comput.\ Phys.\ Commun.},
 year =    2013,
 volume =  184,
 pages =   {2785--2793},
 doi =     {10.1016/j.cpc.2013.08.002},
}

@Article{Trung15,
 author = {T. D. Nguyen and S. J. Plimpton},
 title = {Accelerating Dissipative Particle Dynamics Simulations for Soft Matter Systems},
 journal = {Comput.\ Mater.\ Sci.},
 year =    2015,
 doi =     {10.1016/j.commatsci.2014.10.068},
 volume =  100,
 pages =   {173--180}
}

@Article{Trung17,
 author = {T. D. Nguyen},
 title = {{GPU}-Accelerated {T}ersoff Potentials for Massively Parallel
    Molecular Dynamics Simulations},
 journal = {Comput.\ Phys.\ Commun.},
 year =    2017,
 doi =     {10.1016/j.cpc.2016.10.020},
 volume =  212,
 pages =   {113--122}
}

@inproceedings{Nikolskiy19,
 author = {V. Nikolskiy and V. Stegailov},
 title = {{GPU} Acceleration of Four-Site Water Models in {LAMMPS}},
 booktitle = {Proceedings of the International Conference on Parallel
    Computing (ParCo 2019), Prague, Czech Republic},
 doi =     {10.3233/APC200086},
 year =    2019
}

CITE-CITE-CITE-CITE-CITE-CITE-CITE-CITE-CITE-CITE-CITE-CITE-CITE

Generated 1 of 1 mixed pair_coeff terms from arithmetic mixing rule
Neighbor list info ...
  update: every = 1 steps, delay = 0 steps, check = yes
  max neighbors/atom: 4000, page size: 100000
  master list distance cutoff = 16
  ghost atom cutoff = 16
  binsize = 8, bins = 7 7 7
  1 neighbor lists, perpetual/occasional/extra = 1 0 0
  (1) pair lj/cut, perpetual
      attributes: half, newton on
      pair build: half/bin/newton
      stencil: half/bin/3d
      bin: standard
Per MPI rank memory allocation (min/avg/max) = 21.06 | 21.06 | 21.06 Mbytes
   Step          Time           Temp          Press         Enthalpy        TotEng         KinEng         PotEng         E_bond        E_angle        E_dihed        E_impro         E_vdwl         E_coul         E_long         E_tail         Volume           Lx             Ly             Lz          Density          Pxx            Pyy            Pzz      
         0   0              450            768.71469      7786.6584      6319.8964      6490.8629     -170.96648      1459.5162      1408.3707      2711.3368      0             -5750.1901      0              0             -190.5519       130833.38      50.76599       50.76599       50.76599       0.86216875     836.1641       848.51415      621.46581    
       500   1000           443.30566      276.0603       9460.3873      8908.4415      6394.3029      2514.1386      2285.1335      2163.2291      3405.5228      0             -5339.7468      0              0             -181.85082      137093.42      51.563082      51.563082      51.563082      0.82279994     283.94675      442.58163      101.65253    
      1000   2000           456.17343     -123.39898      8938.0194      9187.5154      6579.9093      2607.606       2318.9897      2036.5055      3470.5777      0             -5218.4668      0              0             -179.8274       138635.99      51.755756      51.755756      51.755756      0.81364484    -220.92395     -617.63766      468.36467    
      1500   3000           445.76704     -913.75176      7311.5496      9168.1415      6429.8062      2738.3354      2328.0323      2163.6517      3493.3619      0             -5246.7105      0              0             -178.94497      139319.64      51.840691      51.840691      51.840691      0.80965221    -835.94163     -380.12147     -1525.1922    
      2000   4000           456.36002      703.16928      10821.919      9386.1218      6582.6008      2803.5211      2337.149       2073.9918      3521.5673      0             -5129.1871      0              0             -178.0634       140009.39      51.926102      51.926102      51.926102      0.80566348     1485.8793     -58.685978      682.31449    
      2500   5000           464.85597      507.39447      10617.444      9577.1264      6705.1475      2871.9789      2329.5422      2130.943       3561.333       0             -5149.8394      0              0             -177.33211      140586.77      51.997383      51.997383      51.997383      0.80235468     538.27438      384.35233      599.55669    
      3000   6000           455.62522      575.2848       10624.653      9446.411       6572.0019      2874.4091      2258.0352      2105.6258      3638.2758      0             -5127.5277      0              0             -177.52361      140435.12      51.97868       51.97868       51.97868       0.80322113     56.822291      712.61845      956.41367    
      3500   7000           449.55879      336.78816      10120.763      9424.518       6484.4988      2940.0192      2362.2298      2068.8111      3563.2776      0             -5054.2993      0              0             -175.87438      141752.02      52.140648      52.140648      52.140648      0.79575906     973.96463      437.78731     -401.38748    
      4000   8000           456.12207      446.1977       10541.253      9616.7772      6579.1686      3037.6087      2325.6467      2092.3581      3666.4104      0             -5046.8065      0              0             -175.48484      142066.69      52.1792        52.1792        52.1792        0.79399651    -305.41812      745.36397      898.64726    
      4500   9000           450.70246     -190.55859      9039.5125      9430.9127      6500.9952      2929.9174      2237.1327      2102.2696      3678.3368      0             -5087.8217      0              0             -177.0171       140836.95      52.028209      52.028209      52.028209      0.80092939    -542.52918     -68.02104       38.874454    
      5000   10000          452.05236     -271.96461      8881.7026      9438.4121      6520.4664      2917.9457      2279.867       2084.0769      3675.5248      0             -5121.5229      0              0             -177.61983      140359.04      51.969292      51.969292      51.969292      0.80365648    -214.34229     -973.8325       372.28097    
      5500   11000          437.13895      153.17696      9625.4096      9309.0382      6305.3534      3003.6848      2252.5531      2181.7957      3654.8328      0             -5085.4968      0              0             -176.03696      141621.11      52.124592      52.124592      52.124592      0.79649463     346.92754     -213.07834      325.68169    
      6000   12000          454.19998     -192.56277      9278.8495      9675.2946      6551.444       3123.8506      2354.1824      2125.1554      3718.7489      0             -5074.2362      0              0             -176.60256      141167.54      52.068886      52.068886      52.068886      0.79905376    -390.04382     -106.81701     -80.827469    
      6500   13000          458.35462      452.48481      10628.312      9688.7013      6611.3712      3077.3301      2299.9961      2113.6882      3686.2721      0             -5022.6263      0              0             -175.09099      142386.25      52.218294      52.218294      52.218294      0.79221454     173.51465      119.15714      1064.7826    
      7000   14000          451.40595     -2.6205007      9633.6041      9639.0559      6511.1425      3127.9133      2314.9687      2123.443       3714.24        0             -5024.7383      0              0             -174.76458      142652.19      52.250784      52.250784      52.250784      0.79073764    -291.89946     -484.57269      768.61065    
      7500   15000          446.34832      130.0843       9796.6517      9527.5026      6438.1906      3089.312       2243.4032      2175.3999      3673.2782      0             -5002.7693      0              0             -175.72749      141870.51      52.155172      52.155172      52.155172      0.79509443     372.9553      -11.527391      28.825001    
      8000   16000          447.55767      251.66365      10219.794      9692.3519      6455.6344      3236.7175      2240.9608      2193.5424      3755.6343      0             -4953.4199      0              0             -173.48161      143707.16      52.379273      52.379273      52.379273      0.78493274     565.18122     -455.66964      645.47937    
      8500   17000          450.51456      364.7019       10499.787      9737.7035      6498.285       3239.4185      2247.7106      2137.3875      3833.5381      0             -4979.2176      0              0             -173.99754      143281.05      52.327451      52.327451      52.327451      0.7872671     -82.525763      379.64281      796.98865    
      9000   18000          444.2199      -387.57153      8814.336       9629.7326      6407.4899      3222.2427      2292.3149      2129.3002      3768.0454      0             -4967.4178      0              0             -172.81868      144258.41      52.446163      52.446163      52.446163      0.78193328     68.253369     -613.23743     -617.73053    
      9500   19000          449.69099      1004.9215      11829.982      9723.5806      6486.4058      3237.1749      2245.0925      2103.4509      3846.0722      0             -4957.4407      0              0             -173.4598       143725.23      52.381468      52.381468      52.381468      0.78483407     688.2217       1265.1661      1061.3767    
     10000   20000          448.70088     -612.12834      8342.7898      9625.4502      6472.1242      3153.326       2185.5437      2207.3591      3739.5443      0             -4979.1212      0              0             -173.5156       143679.01      52.375853      52.375853      52.375853      0.78508653    -1052.8733     -256.34871     -527.16299    
     10500   21000          451.55318     -4.8870832      9782.2694      9792.4921      6513.2661      3279.2259      2248.9374      2202.1647      3825.0637      0             -4996.9398      0              0             -173.81788      143429.14      52.345474      52.345474      52.345474      0.78645422     77.400791      412.18209     -504.24413    
     11000   22000          446.82427     -55.037232      9525.1642      9639.916       6445.0558      3194.8602      2239.3054      2139.1269      3794.2119      0             -4977.784       0              0             -174.38334      142964.05      52.288833      52.288833      52.288833      0.78901272    -144.72206      297.24755     -317.63719    
     11500   23000          450.95358      440.55574      10857.965      9933.0756      6504.6175      3428.458       2274.1114      2120.4151      3972.4628      0             -4938.5313      0              0             -173.18834      143950.51      52.408822      52.408822      52.408822      0.78360582     395.60093      72.456762      853.60952    
     12000   24000          450.89441     -104.13215      9656.0379      9877.3672      6503.764       3373.6031      2316.5769      2114.1752      3825.6253      0             -4882.7743      0              0             -171.06203      145739.82      52.625077      52.625077      52.625077      0.77398515    -211.54276      188.61286     -289.46654    
     12500   25000          450.36656     -103.89693      9443.2523      9660.1112      6496.1502      3163.961       2219.3451      2154.3931      3760.4386      0             -4970.2158      0              0             -174.19393      143119.51      52.307779      52.307779      52.307779      0.7881557      122.98737     -306.44078     -128.23738    
     13000   26000          442.58999     -790.65096      8054.7293      9714.0894      6383.9799      3330.1095      2243.9782      2181.4156      3866.0076      0             -4961.2919      0              0             -173.24149      143906.34      52.403462      52.403462      52.403462      0.7838463     -694.24244     -850.24698     -827.46346    
     13500   27000          453.80868      688.96612      11298.511      9850.6063      6545.7999      3304.8065      2189.0565      2240.377       3831.5145      0             -4956.1416      0              0             -173.00775      144100.77      52.427051      52.427051      52.427051      0.78278871     879.54778      538.31882      649.03175    
     14000   28000          441.15817     -426.69354      8850.8062      9752.0362      6363.3272      3388.709       2181.2342      2223.0895      3904.4086      0             -4920.0233      0              0             -172.14253      144825.04      52.514741      52.514741      52.514741      0.77887395    -645.93237     -382.27875     -251.86949    
     14500   29000          440.68498     -4.1574243      9671.4076      9680.1843      6356.5018      3323.6825      2156.2895      2172.5829      3899.6142      0             -4904.8041      0              0             -172.22564      144755.15      52.506291      52.506291      52.506291      0.77925002     216.563       -25.579385     -203.45589    
     15000   30000          449.61868      424.92545      10526.373      9643.9731      6485.3627      3158.6104      2237.2648      2081.9791      3837.5039      0             -4998.1374      0              0             -175.08747      142389.11      52.218644      52.218644      52.218644      0.79219862     538.57923     -15.211335      751.40847    
     15500   31000          456.33777      317.97197      10563.906      9901.5593      6582.2798      3319.2795      2224.8586      2158.2853      3884.0476      0             -4947.9121      0              0             -174.54658      142830.36      52.272528      52.272528      52.272528      0.78975127    -509.23548      376.01607      1087.1353    
     16000   32000          455.55963      358.44042      10762.442      10004.882      6571.0558      3433.8264      2208.8847      2219.5911      3885.4632      0             -4880.1127      0              0             -172.0314       144918.6       52.526046      52.526046      52.526046      0.77837114    -177.47008      1402.1132     -149.32185    
     16500   33000          446.19781      696.31876      11122.08       9650.0664      6436.0195      3214.0469      2208.6973      2066.4419      3848.6952      0             -4909.7875      0              0             -171.99028      144953.25      52.530232      52.530232      52.530232      0.7781851      1095.7845     -163.60258      1156.7743    
     17000   34000          448.95786     -663.9118       8385.5574      9788.4387      6475.8309      3312.6078      2214.6556      2107.0887      3885.9496      0             -4895.0861      0              0             -172.06685      144888.74      52.522438      52.522438      52.522438      0.77853154    -361.73065     -799.36671     -830.63804    
     17500   35000          450.62594      430.20826      10804.717      9893.3963      6499.8915      3393.5047      2256.0784      2098.4364      3921.3051      0             -4882.3152      0              0             -171.63871      145250.15      52.566073      52.566073      52.566073      0.77659439     357.46304      229.30021      703.86153    
     18000   36000          460.3947       231.81865      10442.133      9960.6243      6640.7976      3319.8268      2205.9676      2207.6952      3857.5065      0             -4951.3425      0              0             -175.0458       142423.01      52.222788      52.222788      52.222788      0.79201006     151.20703     -136.10892      680.35783    
     18500   37000          450.77752     -500.9594       8804.7472      9859.9988      6502.078       3357.9208      2181.1164      2231.8411      3832.3309      0             -4887.3677      0              0             -172.60535      144436.72      52.467761      52.467761      52.467761      0.78096802    -1118.1001     -459.71866      74.94051     
     19000   38000          447.50697      568.63634      10873.041      9681.8008      6454.9031      3226.8976      2179.1222      2082.3059      3917.8467      0             -4952.3771      0              0             -173.55734      143644.45      52.371654      52.371654      52.371654      0.7852754      653.2068       1182.3909     -129.68873    
     19500   39000          458.00364      46.423331      9834.6796      9737.2083      6606.3085      3130.8998      2103.403       2081.1031      3861.7041      0             -4915.3103      0              0             -173.16786      143967.53      52.410888      52.410888      52.410888      0.78351317     104.89097     -207.90289      242.28191    
     20000   40000          452.83111     -347.39505      9232.1951      9963.9239      6531.6992      3432.2248      2231.6411      2161.5291      3953.8396      0             -4914.7851      0              0             -172.61605      144427.76      52.466677      52.466677      52.466677      0.78101643    -518.29783     -96.27596      -427.61135    
     20500   41000          460.78184     -269.49945      9436.8382      10007.709      6646.3817      3361.3276      2235.7065      2142.6299      3878.5757      0             -4895.5844      0              0             -171.64357      145246.04      52.565577      52.565577      52.565577      0.77661638    -512.45516     -127.26725     -168.77595    
     21000   42000          455.51974     -1.2857213      9798.6375      9801.3456      6570.4805      3230.8651      2165.2205      2175.0798      3803.6717      0             -4913.1069      0              0             -172.61975      144424.67      52.466302      52.466302      52.466302      0.78103317     138.90989      125.82609     -268.59314    
     21500   43000          450.29999      544.82454      10755.793      9610.105       6495.19        3114.915       2149.167       2135.4067      3764.5996      0             -4934.2582      0              0             -172.90128      144189.5       52.43781       52.43781       52.43781       0.782307       741.26157      206.85788      686.35418    
     22000   44000          443.20754     -42.549351      9697.9321      9788.7183      6392.8876      3395.8308      2159.0366      2159.4046      3913.8795      0             -4836.49        0              0             -170.40426      146302.38      52.692702      52.692702      52.692702      0.77100902    -611.36968     -308.77329      792.49492    
     22500   45000          455.54627     -234.08113      9469.3779      9962.0962      6570.8631      3391.2331      2204.1059      2172.8607      3903.3861      0             -4889.1196      0              0             -172.73307      144329.92      52.454827      52.454827      52.454827      0.78154589    -96.082936     -883.24395      277.08351    
     23000   46000          446.28623     -217.53509      9505.3621      9972.2755      6437.295       3534.9805      2244.1704      2161.1466      3923.4394      0             -4793.776       0              0             -169.39506      147174         52.797136      52.797136      52.797136      0.7664428     -392.76655      125.45884     -385.29756    
     23500   47000          442.90447      389.53741      10659.623      9830.4566      6388.516       3441.9406      2181.2859      2130.7633      3979.466       0             -4849.5746      0              0             -170.81079      145954.18      52.650865      52.650865      52.650865      0.77284841     849.86988     -165.84453      484.58686    
     24000   48000          449.69229      314.83646      10622.018      9954.8932      6486.4244      3468.4688      2212.5804      2180.1651      3903.191       0             -4827.4678      0              0             -171.5876       145293.42      52.571292      52.571292      52.571292      0.77636315     4.3230515      627.01335      313.17299    
     24500   49000          446.20007     -153.89719      9222.4469      9547.6736      6436.0521      3111.6215      2127.0092      2087.5809      3797.7903      0             -4900.7589      0              0             -172.04899      144903.78      52.524256      52.524256      52.524256      0.77845074    -330.37831      334.88552     -466.19878    
     25000   50000          447.49178      429.92504      10826.172      9918.0443      6454.684       3463.3604      2199.1857      2164.7849      3961.0968      0             -4861.7071      0              0             -172.12874      144836.64      52.516142      52.516142      52.516142      0.77881158    -265.21022      750.52916      804.45617    
     25500   51000          449.72825      53.156295      10001.297      9888.5302      6486.9431      3401.5871      2198.0948      2174.1597      3906.4243      0             -4877.0917      0              0             -171.38831      145462.37      52.591661      52.591661      52.591661      0.77546143    -83.233299      691.10222     -448.40004    
     26000   52000          450.54161      69.756681      9996.6615      9849.6296      6498.6752      3350.9544      2187.2394      2131.9995      3918.6114      0             -4886.8959      0              0             -172.4972       144527.27      52.478724      52.478724      52.478724      0.78047868     0.55467667    -46.264101      254.97947    
     26500   53000          463.95045     -36.45414       9943.5957      10020.716      6692.0861      3328.6299      2168.7394      2176.1629      3827.5481      0             -4843.8204      0              0             -171.86425      145059.54      52.543069      52.543069      52.543069      0.77761486    -344.7601       332.04455     -96.646864    
     27000   54000          448.97249      96.114807      10016.753      9812.9456      6476.042       3336.9036      2106.5504      2129.2829      3993.9199      0             -4892.8496      0              0             -171.46589      145396.56      52.583728      52.583728      52.583728      0.77581242    -245.87147     -386.52035      920.73624    
     27500   55000          448.53456     -771.0776       8190.4941      9831.0458      6469.7252      3361.3206      2174.2403      2148.6257      3937.5699      0             -4899.1153      0              0             -170.8897       145886.79      52.64276       52.64276       52.64276       0.77320543    -305.77058     -494.10214     -1513.3601    
     28000   56000          455.84379     -154.96488      9747.677       10075.753      6575.1545      3500.5982      2183.8941      2229.8888      3956.2263      0             -4869.411       0              0             -171.7382       145166.01      52.55592       52.55592       52.55592       0.77704455    -297.8905      -428.5818       261.57767    
     28500   57000          440.07097     -62.613315      9542.8164      9676.5829      6347.6452      3328.9377      2102.7008      2224.7492      3851.7786      0             -4850.2909      0              0             -170.18727      146488.92      52.715086      52.715086      52.715086      0.77002723    -114.50427     -94.774152      21.438474    
     29000   58000          452.58501     -205.27571      9567.4037      10002.553      6528.1495      3474.4036      2147.9742      2223.9818      3931.1568      0             -4828.7092      0              0             -171.51691      145353.31      52.578514      52.578514      52.578514      0.77604327    -76.490056     -371.75708     -167.58001    
     29500   59000          445.402       -12.707413      9697.7506      9724.6473      6424.5408      3300.1065      2190.4362      2181.7897      3784.3919      0             -4856.5113      0              0             -171.77738      145132.9       52.551924      52.551924      52.551924      0.77722183     186.89362      406.14587     -631.16173    
     30000   60000          451.08143     -207.14116      9514.5233      9947.4366      6506.4617      3440.9749      2159.2732      2239.2054      3981.2579      0             -4938.7617      0              0             -173.96957      143304.08      52.330255      52.330255      52.330255      0.78714057    -457.78419     -42.205014     -121.43429    
     30500   61000          452.68059      1144.6853      12196.066      9791.9282      6529.5282      3262.4001      2135.6493      2166.8651      3905.9646      0             -4946.0789      0              0             -173.11495      144011.53      52.416227      52.416227      52.416227      0.78327376     939.12425      1386.1507      1108.781     
     31000   62000          444.83345      132.02194      9990.0364      9710.2875      6416.3398      3293.9477      2147.364       2162.8925      3879.868       0             -4896.1768      0              0             -171.58745      145293.55      52.571308      52.571308      52.571308      0.77636243     504.29245     -164.84141      56.614784    
     31500   63000          454.50865      66.263542      10017.665      9875.3746      6555.8964      3319.4782      2101.8865      2214.033       3857.3308      0             -4853.772       0              0             -169.3189       147240.2       52.805051      52.805051      52.805051      0.7660982      43.347755     -84.247414      239.69028    
     32000   64000          448.4164       209.42351      10275.3        9831.4115      6468.0209      3363.3906      2189.2766      2135.9125      3916.1002      0             -4877.8986      0              0             -171.5376       145335.77      52.576399      52.576399      52.576399      0.77613689     81.823987      671.41361     -124.96708    
     32500   65000          454.57849     -33.054157      9827.4394      9897.0329      6556.9037      3340.1292      2173.7563      2123.9928      3939.9962      0             -4897.6162      0              0             -172.68924      144366.54      52.459263      52.459263      52.459263      0.78134762     480.31629     -287.75528     -291.72349    
     33000   66000          444.7765      -313.40549      9046.6029      9705.9994      6415.5184      3290.481       2209.2947      2162.7693      3855.31        0             -4936.893       0              0             -172.80954      144266.04      52.447087      52.447087      52.447087      0.78189192    -159.74116     -526.33993     -254.13537    
     33500   67000          452.77557      7.8952076      9904.4372      9887.8049      6530.8981      3356.9068      2220.3102      2188.5263      3866.2143      0             -4918.144       0              0             -172.59186      144448.01      52.469128      52.469128      52.469128      0.78090698    -251.34897      119.6782       155.35639    
     34000   68000          449.50128      11.788828      9878.427       9853.7452      6483.6693      3370.0759      2179.8349      2170.5444      3954.9841      0             -4935.2875      0              0             -173.66044      143559.18      52.361288      52.361288      52.361288      0.78574186     302.76048     -613.05624      345.66225    
     34500   69000          444.27642     -683.35118      8453.6765      9897.9961      6408.3052      3489.6909      2281.3031      2190.5883      3874.6345      0             -4856.8349      0              0             -172.02375      144925.04      52.526825      52.526825      52.526825      0.77833652    -850.62628     -692.242       -507.18527    
     35000   70000          443.93172     -120.38312      9249.7852      9504.3401      6403.3332      3101.007       2120.3772      2080.0957      3790.9145      0             -4890.3804      0              0             -171.94587      144990.69      52.534754      52.534754      52.534754      0.77798415    -12.745252     -441.88961      93.485498    
     35500   71000          452.39122     -599.7868       8578.4846      9838.1817      6525.3543      3312.8274      2213.4743      2160.1045      3852.6469      0             -4913.3984      0              0             -173.11653      144010.22      52.416068      52.416068      52.416068      0.7832809     -176.95463     -891.56805     -730.83773    
     36000   72000          453.58618      70.905453      10137.98       9988.8562      6542.5905      3446.2657      2218.1891      2159.8876      3978.7699      0             -4910.581       0              0             -172.87796      144208.96      52.440168      52.440168      52.440168      0.78220146    -397.11921      436.10694      173.72863    
     36500   73000          453.33919     -602.63808      8519.7401      9797.1264      6539.0279      3258.0985      2201.294       2136.8347      3798.6283      0             -4878.6585      0              0             -171.53078      145341.55      52.577096      52.577096      52.577096      0.77610604     329.63799     -1152.5514     -985.00082    
     37000   74000          454.24832      309.69964      10673.038      10011.751      6552.1413      3459.6099      2250.4517      2152.7191      3907.958       0             -4851.519       0              0             -170.27801      146410.86      52.705721      52.705721      52.705721      0.77043778     202.02646      521.3054       205.76707    
     37500   75000          452.58757      504.5718       10895.648      9813.1944      6528.1863      3285.008       2190.588       2066.716       3837.1883      0             -4809.4843      0              0             -169.48116      147099.24      52.788195      52.788195      52.788195      0.76683234     799.49475      203.13589      511.08477    
     38000   76000          450.09904     -486.93698      8942.2428      9978.8553      6492.2915      3486.5638      2240.7048      2159.5023      3932.4852      0             -4846.1284      0              0             -170.79063      145971.41      52.652937      52.652937      52.652937      0.77275718    -89.607333     -384.32698     -986.87662    
     38500   77000          449.53379     -444.07711      8864.8096      9815.2379      6484.1383      3331.0997      2242.064       2122.1827      3819.827       0             -4852.974       0              0             -169.88175      146752.37      52.746669      52.746669      52.746669      0.76864487    -1191.6786     -245.56015      105.00743    
     39000   78000          453.5454      -688.18255      8490.4721      9965.4624      6542.0023      3423.4601      2200.764       2128.8423      3922.7185      0             -4828.8647      0              0             -169.63764      146963.55      52.771958      52.771958      52.771958      0.76754037    -923.69994     -920.1954      -220.6523     
     39500   79000          441.96792     -63.631266      9694.8025      9831.6393      6375.0071      3456.6322      2282.2119      2060.0812      3903.0517      0             -4788.7126      0              0             -169.07351      147453.91      52.830586      52.830586      52.830586      0.7649879     -51.835341     -42.860553     -96.197905    
     40000   80000          450.51999     -21.56771       9944.7124      9990.4321      6498.3633      3492.0688      2263.2639      2155.5074      3942.9621      0             -4869.6647      0              0             -171.51756      145352.76      52.578447      52.578447      52.578447      0.77604621     600.26913     -409.40216     -255.5701     
     40500   81000          458.7097      -70.014278      10046.096      10194.905      6616.4929      3578.4119      2205.4833      2239.7438      3962.2998      0             -4829.115       0              0             -171.06629      145736.19      52.62464       52.62464       52.62464       0.7740044      165.1142      -1008.2746      633.11755    
     41000   82000          450.1192       183.91803      10217.576      9829.7504      6492.5822      3337.1682      2231.271       2106.1672      3897.3104      0             -4897.5804      0              0             -172.4232       144589.3       52.486231      52.486231      52.486231      0.78014387     584.57692      403.17874     -436.00157    
     41500   83000          451.39553      62.821919      9883.3726      9751.4258      6510.9923      3240.4335      2187.6005      2124.4063      3824.7495      0             -4896.3227      0              0             -173.10926      144016.27      52.416801      52.416801      52.416801      0.78324803     69.229202     -128.11246      247.34902    
     42000   84000          450.88183      246.48731      10441.497      9921.0017      6503.5826      3417.4191      2283.3808      2153.6491      3854.0667      0             -4873.6775      0              0             -172.18104      144792.66      52.510825      52.510825      52.510825      0.77904819     508.91995     -326.84129      557.38327    
     42500   85000          455.26204      93.340305      10136.658      9939.4532      6566.7633      3372.6899      2236.1567      2167.1874      3853.09        0             -4883.7442      0              0             -172.09153      144867.96      52.519927      52.519927      52.519927      0.77864321     758.43137     -717.5562       239.14574    
     43000   86000          447.8763       45.669603      9901.0241      9804.794       6460.2304      3344.5636      2211.8324      2191.6089      3846.4418      0             -4905.3195      0              0             -172.55358      144480.05      52.473008      52.473008      52.473008      0.78073379     158.58438     -153.18131      131.60573    
     43500   87000          448.90911      191.13224      10461.765      10058.736      6475.1277      3583.6085      2283.6935      2138.1926      4026.4046      0             -4864.6822      0              0             -172.42699      144586.12      52.485846      52.485846      52.485846      0.78016101     194.37792      35.322108      343.69669    
     44000   88000          455.99209      331.4928       10647.907      9948.6167      6577.2937      3371.323       2218.5441      2188.0787      3861.6501      0             -4896.9499      0              0             -172.3552       144646.34      52.493132      52.493132      52.493132      0.7798362      14.142764      706.59596      273.73967    
     44500   89000          447.19105      293.04875      10412.652      9792.5014      6450.3463      3342.1551      2187.6406      2170.1441      3861.3673      0             -4876.997       0              0             -171.81075      145104.71      52.548522      52.548522      52.548522      0.77737279    -263.74988     -50.994862      1193.891     
     45000   90000          447.90456      116.98557      10109.081      9860.5461      6460.638       3399.9081      2221.0589      2110.7317      3937.2945      0             -4869.1769      0              0             -171.14024      145673.21      52.617059      52.617059      52.617059      0.77433903     115.93322      652.25313     -417.22963    
     45500   91000          452.43484      311.06887      10600.012      9939.9534      6525.9834      3413.97        2191.9964      2179.4118      3878.3808      0             -4835.819       0              0             -171.34902      145495.72      52.59568       52.59568       52.59568       0.77528364     25.689556      387.80749      519.70957    
     46000   92000          451.4132       358.81993      10636.138      9871.3997      6511.2471      3360.1527      2205.5697      2163.0245      3832.9023      0             -4841.3438      0              0             -170.5971       146137.01      52.67284       52.67284       52.67284       0.77188152     40.377218      743.50387      292.57871    
     46500   93000          456.16742      373.50557      10669.483      9878.3735      6579.8226      3298.5509      2195.6586      2138.8344      3817.3984      0             -4853.3404      0              0             -171.65963      145232.46      52.563938      52.563938      52.563938      0.77668902     787.43861     -146.88995      479.96805    
     47000   94000          446.21058     -466.15116      8787.0148      9765.8079      6436.2038      3329.6041      2192.7878      2213.0188      3850.5698      0             -4926.7723      0              0             -173.15841      143975.39      52.411842      52.411842      52.411842      0.7834704     -711.0278      -131.28004     -556.14564    
     47500   95000          453.84508     -352.50348      9206.688       9951.3003      6546.3249      3404.9754      2200.2779      2148.6023      3928.1393      0             -4872.0441      0              0             -172.1238       144840.81      52.516646      52.516646      52.516646      0.77878919    -802.7229      -37.76535      -217.02219    
     48000   96000          450.82988     -178.07659      9407.3196      9788.3769      6502.8333      3285.5436      2195.5499      2136.8424      3812.7758      0             -4859.6244      0              0             -169.9121       146726.16      52.743529      52.743529      52.743529      0.76878216    -354.14595     -622.85411      442.77029    
     48500   97000          446.92904     -178.13597      9295.0327      9673.0049      6446.567       3226.4379      2165.4882      2107.7754      3823.53        0             -4870.3557      0              0             -171.3561       145489.71      52.594956      52.594956      52.594956      0.77531567     71.371277     -1150.8511      545.07194    
     49000   98000          455.27215      27.87241       9921.836       9863.1214      6566.9092      3296.2122      2142.5984      2148.6392      3926.0632      0             -4921.0886      0              0             -172.59801      144442.86      52.468505      52.468505      52.468505      0.78093481    -116.21941     -263.21552      463.05216    
     49500   99000          447.71684      97.521378      10104.375      9899.731       6457.9304      3441.8006      2185.8002      2146.7767      4007.4022      0             -4898.1785      0              0             -173.26385      143887.78      52.401208      52.401208      52.401208      0.78394745    -496.49139      238.51625      550.53928    
     50000   100000         450.94632      23.751172      9825.2503      9775.1684      6504.5127      3270.6556      2199.2548      2081.2515      3880.2016      0             -4890.0523      0              0             -172.42963      144583.91      52.485578      52.485578      52.485578      0.78017295     87.565359     -346.94353      330.63169    
     50500   101000         448.72253      342.56601      10743.719      10019.675      6472.4366      3547.2386      2211.6705      2109.4944      4056.1227      0             -4830.049       0              0             -172.02313      144925.57      52.526888      52.526888      52.526888      0.77833372     59.515057      852.81046      115.37252    
     51000   102000         448.52256      120.29908      10124.152      9870.1521      6469.5521      3400.6         2173.5776      2164.4347      3964.361       0             -4901.7732      0              0             -172.2016       144775.37      52.508735      52.508735      52.508735      0.77914122    -147.82542      885.64234     -376.91968    
     51500   103000         458.47723      588.96876      11309.86       10057.441      6613.1396      3444.3015      2215.7606      2147.5295      3939.5393      0             -4858.5279      0              0             -170.98198      145808.05      52.633288      52.633288      52.633288      0.77362295     192.80169      1097.7876      476.31703    
     52000   104000         446.57754      609.83342      11310.034      10017.249      6441.4968      3575.7521      2198.4733      2206.5884      3974.9099      0             -4804.2195      0              0             -171.51122      145358.13      52.579095      52.579095      52.579095      0.77601753     65.662621      842.92403      920.91362    
     52500   105000         455.02813     -156.64835      9684.9023      10019.097      6563.3894      3455.7072      2190.2332      2157.4378      3912.49        0             -4804.4538      0              0             -170.42547      146284.17      52.690515      52.690515      52.690515      0.77110499    -189.16697     -554.00106      273.22298    
     53000   106000         434.01238      373.52754      10534.967      9739.1466      6260.2553      3478.8913      2159.9434      2169.2866      3943.3294      0             -4793.6682      0              0             -170.65349      146088.71      52.667037      52.667037      52.667037      0.77213669     447.67162      312.85653      360.05445    
     53500   107000         452.70279     -106.85177      9791.8803      10020.241      6529.8483      3490.3929      2140.9892      2212.5826      3930.4436      0             -4793.6225      0              0             -170.12486      146542.66      52.721532      52.721532      52.721532      0.76974483    -401.37367     -306.04755      386.86589    
     54000   108000         452.13006     -436.21311      9166.8411      10102.399      6521.5873      3580.812       2169.0767      2214.1872      3974.394       0             -4776.8459      0              0             -169.52574      147060.55      52.783567      52.783567      52.783567      0.76703407    -643.82819      54.350206     -719.16136    
     54500   109000         452.19783     -167.7413       9636.2977      9998.0256      6522.5647      3475.4608      2170.4655      2158.5561      3913.56        0             -4767.1207      0              0             -168.60318      147865.24      52.879665      52.879665      52.879665      0.76285987    -288.67284     -207.00568     -7.5453755    
     55000   110000         452.46296      302.76713      10548.32       9903.3346      6526.389       3376.9456      2185.1286      2140.1582      3860.6023      0             -4808.9435      0              0             -170.67367      146071.45      52.664962      52.664962      52.664962      0.77222795    -504.78955      1655.8861     -242.79513    
     55500   111000         446.49491      178.01744      10217.198      9836.6108      6440.305       3396.3058      2161.097       2162.3913      3881.1339      0             -4808.3163      0              0             -170.0655       146593.81      52.727666      52.727666      52.727666      0.76947625    -225.18393      441.0207       318.21556    
     56000   112000         453.404        178.33958      10319.563      9941.7546      6539.9626      3401.7919      2213.4544      2230.24        3821.4145      0             -4863.317       0              0             -171.62626      145260.69      52.567344      52.567344      52.567344      0.77653806     283.05296     -208.44259      460.40839    
     56500   113000         450.14571      426.27764      10741.567      9834.2813      6492.9646      3341.3166      2193.7605      2124.4525      3868.1846      0             -4845.081       0              0             -170.82688      145940.44      52.649213      52.649213      52.649213      0.77292119     597.00862      736.08904     -54.264741    
     57000   114000         438.27917     -219.48752      9367.9524      9837.5232      6321.8001      3515.7231      2232.2854      2214.0167      3887.8097      0             -4818.3887      0              0             -169.94816      146695.03      52.739798      52.739798      52.739798      0.76894532    -67.047307     -280.17406     -311.24121    
     57500   115000         447.29829     -168.76282      9388.2131      9746.307       6451.8931      3294.4139      2209.6117      2134.6484      3828.4437      0             -4878.2899      0              0             -171.35135      145493.75      52.595442      52.595442      52.595442      0.77529418    -271.54262     -46.968876     -187.77696    
     58000   116000         453.34837     -495.73934      8681.6373      9727.9095      6539.1603      3188.7492      2113.5508      2071.0464      3889.0688      0             -4884.9168      0              0             -172.27269      144715.62      52.501511      52.501511      52.501511      0.77946289     29.201652     -822.86494     -693.55474    
     58500   117000         448.56733      19.168993      10029.746      9988.6003      6470.198       3518.4024      2254.07        2195.6757      3891.5272      0             -4822.8706      0              0             -169.38857      147179.65      52.797811      52.797811      52.797811      0.7664134      548.91939     -374.61485     -116.79756    
     59000   118000         457.44553      428.7472       11022.298      10104.781      6598.2583      3506.5228      2277.0901      2149.7837      3937.9917      0             -4858.3428      0              0             -169.90053      146736.15      52.744726      52.744726      52.744726      0.76872984     139.12563      234.60056      912.51543    
     59500   119000         455.89211      505.44033      11148.144      10066.425      6575.8515      3490.5734      2232.947       2236.7274      3847.0101      0             -4826.1111      0              0             -169.88811      146746.88      52.746011      52.746011      52.746011      0.76867363     192.90333      466.37027      857.04739    
     60000   120000         448.73468      160.78846      10303.28       9959.8925      6472.6117      3487.2808      2265.0799      2168.4541      3888.5597      0             -4834.8129      0              0             -170.24663      146437.84      52.708959      52.708959      52.708959      0.77029581     128.34477      415.19986     -61.179263    
     60500   121000         464.06046     -775.3423       8446.2559      10084.057      6693.673       3390.3835      2245.6718      2155.4467      3904.0368      0             -4914.7717      0              0             -172.12351      144841.05      52.516675      52.516675      52.516675      0.77878789    -388.86787     -1177.0562     -760.10289    
     61000   122000         450.59602      163.65249      10164.846      9819.6266      6499.4599      3320.1666      2186.3329      2145.0782      3859.7244      0             -4870.9689      0              0             -172.35945      144642.78      52.492701      52.492701      52.492701      0.77985541     154.07275      195.51161      141.3731     
     61500   123000         456.87094     -18.865017      9878.5856      9918.0549      6589.9703      3328.0846      2188.3941      2182.0751      3863.5879      0             -4905.9725      0              0             -173.78242      143458.41      52.349033      52.349033      52.349033      0.7862938      311.63147     -375.78885      7.5623246    
     62000   124000         439.47936     -533.37838      8609.6083      9743.2769      6339.1118      3404.1651      2229.9039      2169.8561      3837.0296      0             -4832.6246      0              0             -171.06337      145738.68      52.624939      52.624939      52.624939      0.77399121    -369.26088     -617.29539     -613.57888    
     62500   125000         455.0915      -182.85405      9591.0185      9978.4356      6564.3034      3414.1322      2237.3678      2143.5864      3888.6298      0             -4855.4518      0              0             -171.60641      145277.49      52.569371      52.569371      52.569371      0.77644825    -121.6008      -255.14858     -171.81278    
     63000   126000         444.14295      71.419743      9695.8801      9543.2921      6406.38        3136.912       2142.0019      2095.1084      3744.2952      0             -4844.4935      0              0             -170.17887      146496.15      52.715954      52.715954      52.715954      0.7699892      306.0498      -115.00956      23.218989    
     63500   127000         452.41298     -840.62739      8114.3003      9885.7386      6525.6681      3360.0705      2159.5168      2247.9761      3841.1056      0             -4888.5279      0              0             -172.5382       144492.93      52.474567      52.474567      52.474567      0.7806642     -1280.9913     -509.54847     -731.34246    
     64000   128000         457.13062      353.06442      10680.698      9935.2926      6593.716       3341.5765      2227.7966      2236.7544      3776.9635      0             -4899.9379      0              0             -172.21417      144764.8       52.507458      52.507458      52.507458      0.77919809    -23.987948      794.96893      288.21229    
     64500   129000         454.53977      302.05172      10500.698      9863.4718      6556.3453      3307.1265      2144.3557      2167.2107      3950.9071      0             -4955.347       0              0             -172.34377      144655.94      52.494293      52.494293      52.494293      0.77978447    -352.16187      365.17575      893.14128    
     65000   130000         457.57914      348.38201      10666.564      9939.7791      6600.1855      3339.5935      2199.208       2105.2496      3970.7151      0             -4935.5792      0              0             -174.28409      143045.47      52.298757      52.298757      52.298757      0.78856363     691.22833      361.69562     -7.7779191    
     65500   131000         454.69234     -56.716477      9802.5062      9922.152       6558.5458      3363.6061      2252.6525      2097.4501      3903.6513      0             -4890.1478      0              0             -172.35326      144647.97      52.493329      52.493329      52.493329      0.77982744    -455.68586      103.2725       182.26393    
     66000   132000         448.26106     -228.53952      9507.432       9990.5423      6465.7803      3524.762       2279.1556      2174.1464      3941.1543      0             -4869.6942      0              0             -171.99776      144946.94      52.52947       52.52947       52.52947       0.77821894    -876.90398      120.08181      71.203609    
     66500   133000         446.72327      178.30858      10194.282      9816.271       6443.5989      3372.6722      2199.1337      2149.0913      3898.1176      0             -4873.6704      0              0             -171.5044       145363.9       52.579791      52.579791      52.579791      0.7759867      307.28044      556.41882     -328.77353    
     67000   134000         448.74088      75.81462       9876.129       9716.1905      6472.7012      3243.4893      2179.8808      2087.1516      3879.2269      0             -4902.77        0              0             -172.34852      144651.95      52.49381       52.49381       52.49381       0.77980598    -209.20229      309.10592      127.54022    
     67500   135000         453.71527     -26.602784      9721.9999      9778.2519      6544.4525      3233.7994      2152.2256      2129.3057      3785.6648      0             -4833.3966      0              0             -171.94784      144989.02      52.534553      52.534553      52.534553      0.77799307    -150.83326      130.2492      -59.224294    
     68000   136000         445.14977     -509.66313      8773.4175      9848.7671      6420.9025      3427.8646      2229.6532      2167.8257      3904.5741      0             -4874.1883      0              0             -172.32222      144674.03      52.496481      52.496481      52.496481      0.77968697    -396.77998     -973.66402     -158.5454     
     68500   137000         450.10893      199.99818      10279.269      9856.5723      6492.4341      3364.1382      2184.9044      2129.361       3939.3283      0             -4889.4555      0              0             -172.03037      144919.47      52.526151      52.526151      52.526151      0.77836647     300.68262      301.26728     -1.9553449    
     69000   138000         460.62163     -79.889552      9879.6807      10050.968      6644.0709      3406.8969      2198.7634      2081.7776      3906.8711      0             -4780.5153      0              0             -169.57947      147013.96      52.777992      52.777992      52.777992      0.76727716    -358.01705     -19.449941      137.79833    
     69500   139000         443.699       -270.56659      9294.4907      9873.0762      6399.9764      3473.0999      2270.2904      2176.4881      3798.5384      0             -4772.2171      0              0             -170.02561      146628.2       52.731788      52.731788      52.731788      0.76929578    -540.24779     -106.3002      -165.15177    
     70000   140000         447.81397     -212.99036      9463.308       9918.4162      6459.3313      3459.0849      2197.1281      2141.5033      3911.541       0             -4791.0875      0              0             -170.15824      146513.91      52.718084      52.718084      52.718084      0.76989588    -200.73931     -843.68417      405.4524     
     70500   141000         462.21417      194.26233      10593.892      10186.875      6667.0418      3519.8337      2196.5043      2254.4162      3920.4105      0             -4851.4974      0              0             -173.53379      143663.95      52.374022      52.374022      52.374022      0.78516885    -199.89812      654.81789      127.86723    
     71000   142000         446.36589     -262.73159      9358.3701      9919.4529      6438.444       3481.0088      2222.8889      2137.8316      3957.1583      0             -4836.8699      0              0             -170.25236      146432.92      52.708368      52.708368      52.708368      0.77032171    -99.518556     -256.2609      -432.41532    
     71500   143000         447.78582     -35.519407      9801.6334      9877.18        6458.9253      3418.2548      2177.2214      2187.0905      3893.7677      0             -4839.8248      0              0             -170.94572      145838.98      52.637009      52.637009      52.637009      0.7734589     -459.21578     -183.82922      536.48678    
     72000   144000         446.09344     -18.270711      9791.7374      9830.1713      6434.5141      3395.6572      2202.1756      2243.0811      3867.3277      0             -4916.9271      0              0             -172.84168      144239.22      52.443837      52.443837      52.443837      0.78203731     0.42900588    -549.675        494.43386    
     72500   145000         447.40781      117.60301      10029.504      9781.9729      6453.4729      3328.5         2182.5883      2097.1755      3946.8476      0             -4898.1115      0              0             -172.74132      144323.02      52.453991      52.453991      52.453991      0.78158323     751.01493     -314.25364     -83.952254    
     73000   146000         444.01731     -20.817901      9857.9641      9902.2859      6404.5678      3497.7182      2229.9783      2160.2189      3944.0371      0             -4836.516       0              0             -170.77587      145984.03      52.654454      52.654454      52.654454      0.77269039    -93.686981      213.38003     -182.14675    
     73500   147000         452.59986     -15.56314       9952.3131      9984.8113      6528.3637      3456.4476      2233.1585      2195.058       3931.5868      0             -4903.3557      0              0             -174.11877      143181.28      52.315304      52.315304      52.315304      0.78781565    -139.52215     -62.796833      155.62957    
     74000   148000         447.83385      299.85298      10515.416      9882.2636      6459.618       3422.6455      2228.4474      2217.5619      3846.5627      0             -4869.9265      0              0             -172.19003      144785.1       52.509912      52.509912      52.509912      0.77908886    -197.64916      316.33764      780.87046    
     74500   149000         457.76487      116.81092      10231.925      9983.929       6602.8644      3381.0646      2218.5522      2134.4606      3891.7051      0             -4863.6533      0              0             -171.25593      145574.81      52.605208      52.605208      52.605208      0.77486246     424.04499      200.46897     -274.0812     
     75000   150000         442.22498      152.8416       9998.0767      9675.3726      6378.715       3296.6576      2204.7147      2134.1045      3878.2251      0             -4920.3867      0              0             -172.20461      144772.84      52.508429      52.508429      52.508429      0.77915484     40.456632     -146.18051      564.24869    
     75500   151000         445.79439     -280.95852      9151.8065      9736.4499      6430.2006      3306.2493      2216.9061      2168.4943      3887.3868      0             -4966.5379      0              0             -174.72653      142683.25      52.254576      52.254576      52.254576      0.79056551    -532.20019     -281.56056     -29.114805    
     76000   152000         458.50829      47.46481       10098.07       9998.5344      6613.5876      3384.9468      2220.5584      2177.0496      3907.3896      0             -4920.0509      0              0             -173.38027      143791.16      52.389477      52.389477      52.389477      0.7844742     -318.67502      50.834646      410.2348     
     76500   153000         456.07021      123.52799      10305.673      10046.253      6578.4205      3467.8323      2317.3451      2177.1099      3882.4402      0             -4909.0628      0              0             -173.12885      143999.97      52.414824      52.414824      52.414824      0.78333667     191.14329     -63.92284       243.36353    
     77000   154000         449.32324     -190.22848      9416.093       9815.1613      6481.1013      3334.06        2183.1025      2156.061       3961.1663      0             -4966.2698      0              0             -173.31496      143845.34      52.396056      52.396056      52.396056      0.78417872    -115.20524     -501.52971      46.04951     
     77500   155000         447.4194      -468.36451      8950.1928      9940.5088      6453.64        3486.8689      2210.3653      2199.4279      3990.1959      0             -4913.1203      0              0             -171.95623      144981.95      52.533699      52.533699      52.533699      0.77803102    -868.93383     -94.40625      -441.75344    
     78000   156000         447.04248     -610.575        8658.211       9953.7911      6448.2033      3505.5878      2189.0318      2186.5406      3995.7357      0             -4865.7204      0              0             -171.34936      145495.44      52.595646      52.595646      52.595646      0.77528518    -1173.9944     -41.194701     -616.53588    
     78500   157000         447.98596     -185.70104      9534.7792      9930.327       6461.8122      3468.5148      2180.7728      2180.3383      3968.1384      0             -4860.7347      0              0             -170.69589      146052.43      52.662677      52.662677      52.662677      0.77232849     671.53195     -481.17511     -747.45997    
     79000   158000         449.79969      177.41988      10450.945      10071.615      6487.9736      3583.6415      2216.4877      2304.4179      3871.5189      0             -4808.783       0              0             -170.05638      146601.67      52.728608      52.728608      52.728608      0.76943498     229.63314      76.266286      226.3602     
     79500   159000         448.894        276.21529      10482.869      9895.1144      6474.9099      3420.2045      2167.5213      2152.2351      3915.2103      0             -4814.7622      0              0             -170.86745      145905.79      52.645045      52.645045      52.645045      0.77310475    -235.52221      487.66266      576.5054     
     80000   160000         440.63657      127.44159      9971.7274      9703.517       6355.8035      3347.7135      2147.2118      2186.5664      3902.6353      0             -4888.7         0              0             -172.76005      144307.37      52.452095      52.452095      52.452095      0.781668      -156.28107     -222.93643      761.54228    
     80500   161000         450.24805     -346.98383      9132.1222      9862.2733      6494.4408      3367.8325      2190.9119      2178.4939      3935.2415      0             -4936.8148      0              0             -172.78429      144287.13      52.449642      52.449642      52.449642      0.78177766    -924.7134       286.31958     -402.55768    
     81000   162000         461.01651     -303.74314      9421.308       10064.449      6649.7666      3414.6829      2174.1856      2141.8746      3960.2925      0             -4861.6698      0              0             -171.71479      145185.81      52.558309      52.558309      52.558309      0.77693859    -165.56564     -55.821894     -689.8419     
     81500   163000         448.20099     -177.31192      9458.3548      9836.0913      6464.9137      3371.1776      2153.8006      2047.4058      4004.9722      0             -4835.0011      0              0             -170.66982      146074.74      52.665358      52.665358      52.665358      0.77221057    -103.12743     -565.03912      136.2308     
     82000   164000         451.26246      213.83758      10535.825      10079.6        6509.0728      3570.5277      2191.907       2208.5196      3959.4911      0             -4789.39        0              0             -170.41714      146291.32      52.691374      52.691374      52.691374      0.7710673     -6.6188155     -111.66159      759.79314    
     82500   165000         456.22547     -261.78539      9562.9692      10123.854      6580.66        3543.1938      2229.2816      2162.4         3950.4595      0             -4798.9473      0              0             -169.69913      146910.29      52.765583      52.765583      52.765583      0.76781859    -657.06057      645.52966     -773.82527    
     83000   166000         451.56437      830.63809      11721.66       9964.6515      6513.4276      3451.2239      2205.0436      2207.5347      3895.9881      0             -4857.3424      0              0             -171.88807      145039.44      52.540642      52.540642      52.540642      0.77772263     1032.0725      588.19628      871.64544    
     83500   167000         444.69711      161.44323      10147.061      9799.3444      6414.3734      3384.9711      2165.0423      2200.0194      3837.5332      0             -4817.6239      0              0             -168.8116       147682.68      52.857894      52.857894      52.857894      0.76380288     562.14204      96.861925     -174.67428    
     84000   168000         457.08586      379.79746      10911.126      10109.469      6593.0704      3516.399       2198.2853      2222.693       3959.8763      0             -4864.4556      0              0             -172.2548       144730.66      52.503329      52.503329      52.503329      0.77938191     403.32485      426.98869      309.07884    
     84500   169000         442.48148      271.98049      10363.958      9782.7964      6382.4147      3400.3817      2200.7305      2135.1759      3897.9489      0             -4833.4736      0              0             -170.15657      146515.35      52.718257      52.718257      52.718257      0.76988829     312.79673      679.33326     -176.18851    
     85000   170000         454.72287      123.29118      10199.144      9938.8931      6558.9863      3379.9068      2108.4818      2243.7543      3906.1542      0             -4878.4835      0              0             -172.24558      144738.4       52.504266      52.504266      52.504266      0.77934021     327.9347      -5.3022054      47.241036    
     85500   171000         449.46723     -518.99982      8794.3264      9895.4658      6483.1781      3412.2876      2157.1643      2217.7611      3888.735       0             -4851.3728      0              0             -171.36916      145478.62      52.593619      52.593619      52.593619      0.77537479    -638.59112     -248.89363     -669.51472    
     86000   172000         445.79562      321.41247      10515.33       9830.2103      6430.2183      3399.992       2105.1533      2167.7889      3964.5444      0             -4837.4946      0              0             -170.57056      146159.75      52.675572      52.675572      52.675572      0.77176142    -145.81873      773.59879      336.45734    
     86500   173000         446.10309      2.5503802      9958.6664      9953.2199      6434.6533      3518.5666      2204.8705      2205.2597      3902.1038      0             -4793.6674      0              0             -170.25027      146434.71      52.708584      52.708584      52.708584      0.77031227     23.7304        917.49385     -933.57311    
     87000   174000         447.74437     -680.80932      8573.975       10043.088      6458.3274      3584.761       2174.478       2185.095       3965.7191      0             -4740.5311      0              0             -168.49147      147963.28      52.891349      52.891349      52.891349      0.7623544     -689.94506     -941.23827     -411.24464    
     87500   175000         455.41179      907.80507      12146.403      10210.43       6568.9233      3641.5067      2236.7153      2268.4273      3940.5384      0             -4804.1741      0              0             -170.49086      146228.07      52.683779      52.683779      52.683779      0.77140081     1293.7821      858.80898      570.82417    
     88000   176000         449.12781      555.49178      11152.705      9963.0057      6478.2823      3484.7234      2147.6841      2171.9223      3921.8961      0             -4756.779       0              0             -169.76497      146853.32      52.758761      52.758761      52.758761      0.7681165      208.33323      867.35402      590.78809    
     88500   177000         445.24576     -353.24535      9051.046       9812.2631      6422.287       3389.9761      2140.3416      2193.7915      3872.0961      0             -4816.253       0              0             -168.72352      147759.78      52.867091      52.867091      52.867091      0.76340433    -681.82815     -580.31889      202.41099    
     89000   178000         461.61231     -447.78625      9224.0669      10192.479      6658.3606      3534.1183      2185.2579      2173.9154      3939.4761      0             -4764.5312      0              0             -168.1196       148290.56      52.930318      52.930318      52.930318      0.76067186    -648.75752     -296.386       -398.21522    
     89500   179000         450.43694     -55.107098      9900.6601      10019.347      6497.1655      3522.1811      2176.7117      2153.1102      3995.6342      0             -4803.2749      0              0             -168.81625      147678.62      52.857409      52.857409      52.857409      0.76382389     166.0813      -5.7704045     -325.63218    
     90000   180000         452.75532      400.03655      11006.238      10139.103      6530.6061      3608.4968      2252.2502      2156.5385      3936.566       0             -4736.8579      0              0             -167.73375      148631.68      52.970873      52.970873      52.970873      0.75892605     1130.4046     -496.95543      566.66048    
     90500   181000         447.38246     -389.99926      9173.1062      10022.181      6453.1071      3569.0737      2214.4855      2154.1811      3930.1971      0             -4729.7901      0              0             -167.00353      149281.57      53.047965      53.047965      53.047965      0.75562212    -391.37257     -244.40663     -534.21859    
     91000   182000         457.98511      111.49876      10319.375      10081.6        6606.0413      3475.5588      2095.928       2203.0486      3995.5072      0             -4818.925       0              0             -170.49528      146224.28      52.683323      52.683323      52.683323      0.77142083    -224.07971     -612.0546       1170.6306    
     91500   183000         446.36058     -202.65579      9816.0324      10258.052      6438.3674      3819.6849      2271.0549      2239.9902      3984.8921      0             -4676.2524      0              0             -166.6959       149557.07      53.080578      53.080578      53.080578      0.75423019    -436.18455      47.490045     -219.27286    
     92000   184000         456.17023      206.66076      10510.949      10066.778      6579.8631      3486.9151      2186.1406      2155.954       3924.2162      0             -4779.3956      0              0             -169.1671       147372.33      52.820842      52.820842      52.820842      0.76541134     1261.9413     -101.23494     -540.72406    
     92500   185000         446.66241     -201.65109      9421.5985      9853.2708      6442.721       3410.5498      2179.3957      2074.8709      3934.7142      0             -4778.4311      0              0             -169.84554      146783.65      52.750417      52.750417      52.750417      0.76848105     16.326304     -686.39547      65.115882    
     93000   186000         458.27361      5.7568113      10071.332      10059.125      6610.2027      3448.9219      2170.8133      2162.7842      3917.232       0             -4801.9076      0              0             -171.45972      145401.78      52.584358      52.584358      52.584358      0.77578453    -63.318629      486.19937     -405.61031    
     93500   187000         450.98753     -401.21848      9126.4026      9985.5087      6505.1072      3480.4015      2199.0237      2140.0423      3929.2991      0             -4787.9636      0              0             -169.80163      146821.62      52.754965      52.754965      52.754965      0.76828233     106.97814     -803.97923     -506.65435    
     94000   188000         445.40405     -573.66057      8708.8862      9932.2571      6424.5704      3507.6867      2155.8635      2170.114       4020.6312      0             -4838.9219      0              0             -170.49224      146226.89      52.683636      52.683636      52.683636      0.77140708    -1112.4343     -1023.7731      415.22567    
     94500   189000         458.56659      967.23303      11998.573      9945.2455      6614.4286      3330.8169      2160.1264      2117.1879      3927.6544      0             -4874.1517      0              0             -171.26973      145563.08      52.603795      52.603795      52.603795      0.77492491     784.27214      734.76213      1382.6648    
     95000   190000         452.05059      788.77372      11690.407      10018.382      6520.4409      3497.9416      2193.8375      2120.8645      4005.2347      0             -4821.9952      0              0             -171.52106      145349.78      52.578089      52.578089      52.578089      0.77606208     1072.2998      402.61113      891.41026    
     95500   191000         442.13865     -32.332008      9580.106       9648.2581      6377.4697      3270.7883      2127.5893      2127.5772      3930.4114      0             -4914.7896      0              0             -172.48894      144534.19      52.479561      52.479561      52.479561      0.78044133     330.70017     -176.383       -251.3132     
     96000   192000         450.53957      339.85052      10697.611      9973.8374      6498.6458      3475.1915      2180.5648      2140.2419      3978.7474      0             -4824.3625      0              0             -170.7234       146028.89      52.659848      52.659848      52.659848      0.77245299     719.20429     -120.23548      420.58277    
     96500   193000         444.56583      961.06947      12163.003      10097.607      6412.4796      3685.1273      2195.4385      2224.2726      4024.887       0             -4759.4707      0              0             -169.18396      147357.65      52.819087      52.819087      52.819087      0.76548763     1079.2962      790.99791      1012.9143    
     97000   194000         448.76731     -374.72614      9113.0755      9910.7024      6473.0825      3437.6199      2203.3663      2071.9264      4003.2707      0             -4840.9435      0              0             -170.8134       145951.96      52.650598      52.650598      52.650598      0.77286017    -521.47001     -931.14052      328.4321     
     97500   195000         451.31502     -273.76894      9450.1418      10039.606      6509.831       3529.775       2240.5864      2181.6874      3927.3982      0             -4819.8971      0              0             -168.863        147637.73      52.85253       52.85253       52.85253       0.76403543    -609.94386     -723.45581      512.09286    
     98000   196000         442.69984     -30.870583      9758.8613      9824.6035      6385.5644      3439.0391      2168.3981      2187.7279      3923.8764      0             -4840.9634      0              0             -170.72951      146023.67      52.659219      52.659219      52.659219      0.77248063    -212.48087      742.93771     -623.0686     
     98500   197000         449.69724      108.72831      10223.673      9990.6042      6486.4959      3504.1082      2232.3526      2089.4201      3974.7207      0             -4792.3851      0              0             -169.61584      146982.44      52.774219      52.774219      52.774219      0.76744173     450.54304      146.68697     -271.04509    
     99000   198000         453.24351     -79.555261      9717.7023      9886.448       6537.6478      3348.8002      2146.6053      2134.9969      3949.2118      0             -4882.0137      0              0             -171.41308      145441.35      52.589127      52.589127      52.589127      0.7755735     -33.55793      -247.3128       42.20495     
     99500   199000         451.18279      825.47865      11760.046      10006.312      6507.9236      3498.3889      2195.5075      2231.9394      3927.4913      0             -4856.5493      0              0             -171.13942      145673.91      52.617143      52.617143      52.617143      0.77433531     1183.5874      701.13445      591.71412    
    100000   200000         459.33487      156.92389      10448.644      10113.838      6625.5103      3488.3275      2136.7988      2205.5124      3946.8816      0             -4800.8654      0              0             -170.4131       146294.8       52.691791      52.691791      52.691791      0.77104899    -191.42151      777.4509      -115.25771    
    100500   201000         457.41365     -149.2031       9755.349       10072.773      6597.7985      3474.9747      2266.8729      2124.6895      3923.5232      0             -4840.1109      0              0             -170.9014       145876.8       52.641559      52.641559      52.641559      0.77325835    -483.71472     -176.75787      212.86329    
    101000   202000         448.48894      740.31173      11610.707      10043.331      6469.0672      3574.2636      2292.1109      2155.7943      3966.4116      0             -4840.0532      0              0             -171.73116      145171.96      52.556639      52.556639      52.556639      0.77701267     923.52614      893.62482      403.78423    
    101500   203000         453.17955      288.52537      10432.591      9821.0244      6536.7252      3284.2991      2176.2367      2088.0035      3860.4702      0             -4840.4113      0              0             -171.53299      145339.68      52.576871      52.576871      52.576871      0.77611602     333.9343       901.93098     -370.28916    
    102000   204000         451.74499     -163.58812      9572.9605      9919.1379      6516.0329      3403.1051      2150.4989      2148.4718      3957.8495      0             -4853.7151      0              0             -171.81487      145101.23      52.548102      52.548102      52.548102      0.77739145     323.76318     -23.204496     -791.32305    
    102500   205000         448.56436     -210.80976      9472.0697      9922.978       6470.155       3452.823       2230.6086      2150.3532      3920.4693      0             -4848.6082      0              0             -169.98488      146663.34      52.736         52.736         52.736         0.76911147    -422.0491      -46.01024      -164.36995    
    103000   206000         457.61607     -277.80944      9509.9172      10098.363      6600.7182      3497.645       2252.8734      2169.7159      3943.1431      0             -4868.0874      0              0             -171.65171      145239.16      52.564747      52.564747      52.564747      0.77665318    -170.00815     -205.18        -458.24016    
    103500   207000         446.84714     -351.08643      9213.0033      9962.4801      6445.3857      3517.0944      2212.9035      2199.4975      3928.5127      0             -4823.8194      0              0             -170.31919      146375.46      52.701473      52.701473      52.701473      0.7706241     -266.00047     -439.62296     -347.63586    
    104000   208000         446.62152     -126.07077      9531.7145      9800.0654      6442.1312      3357.9342      2185.7117      2155.4427      3819.2798      0             -4802.5         0              0             -170.81226      145952.93      52.650715      52.650715      52.650715      0.77285501    -260.75496     -691.91314      574.45579    
[...]
    210000   420000         455.26581      694.63942      11611.221      10144.342      6566.8177      3577.5242      2163.7662      2193.9575      4079.7548      0             -4859.9543      0              0             -172.17605      144796.85      52.511332      52.511332      52.511332      0.77902563     1167.4436      1106.2095     -189.73492    
    210500   421000         453.14846      84.202586      10397.836      10217.061      6536.2767      3680.7843      2193.1415      2152.0008      4104.6951      0             -4769.053       0              0             -169.3535       147210.13      52.801456      52.801456      52.801456      0.76625473     287.87924      67.51232      -102.7838     
    211000   422000         459.25745      3.5785582      10186.533      10178.871      6624.3936      3554.4771      2133.5086      2161.5384      4061.5071      0             -4802.0769      0              0             -169.80909      146815.17      52.754192      52.754192      52.754192      0.76831609    -149.69783      294.54539     -134.11189    
    211500   423000         451.079        256.84434      10745.29       10190.512      6506.4266      3684.0857      2195.2536      2209.1484      4042.6215      0             -4762.9378      0              0             -168.32888      148106.19      52.908373      52.908373      52.908373      0.76161877     623.421        400.29949     -253.18748    
    212000   424000         448.04665      177.35448      10346.096      9965.5222      6462.6876      3502.8346      2192.3961      2123.6299      3938.8572      0             -4752.0486      0              0             -169.43795      147136.75      52.792682      52.792682      52.792682      0.76663683     597.82833     -61.453212     -4.3116738    
    212500   425000         454.22135     -170.98041      9784.1624      10151.121      6551.7522      3599.3692      2198.4433      2223.3204      3947.6363      0             -4770.0308      0              0             -169.40902      147161.88      52.795687      52.795687      52.795687      0.76650594    -586.11237     -179.91984      253.09098    
    213000   426000         451.30851     -162.31383      9729.6275      10079.686      6509.737       3569.9487      2114.2649      2204.2317      3946.2916      0             -4694.8394      0              0             -168.58656      147879.82      52.881403      52.881403      52.881403      0.76278466    -91.452429     -312.63536     -82.853687    
    213500   427000         454.56303     -62.897185      9902.5893      10038.531      6556.6807      3481.8507      2168.3456      2098.8649      3981.6673      0             -4767.027       0              0             -168.22286      148199.54      52.919486      52.919486      52.919486      0.76113906     124.75272      54.243867     -367.68814    
    214000   428000         453.79868      125.0761       10412.44       10143.504      6545.6557      3597.8481      2224.5993      2129.2783      4001.57        0             -4757.5995      0              0             -169.09599      147434.31      52.828245      52.828245      52.828245      0.7650896      162.67779      110.39052      102.15998    
    214500   429000         451.86566      40.382322      10149.12       10061.24       6517.7735      3543.4662      2235.8757      2055.3668      3936.7484      0             -4684.5247      0              0             -167.07245      149219.99      53.04067       53.04067       53.04067       0.75593394     389.03079      483.31119     -751.19502    
    215000   430000         449.36291      295.97499      10628.585      10000.62       6481.6735      3518.9468      2273.7495      2095.1974      3962.3239      0             -4812.324       0              0             -171.36707      145480.4       52.593833      52.593833      52.593833      0.77536532     178.16386     -428.42913      1138.1902    
    215500   431000         456.9142       27.592957      10234.797      10175.32       6590.5944      3584.7259      2216.4426      2144.8237      4001.2741      0             -4777.8145      0              0             -168.67794      147799.7       52.871852      52.871852      52.871852      0.76319812    -121.4616       560.35981     -356.11934    
    216000   432000         445.70622      79.960922      9957.3701      9787.6801      6428.9288      3358.7513      2185.9715      2107.0777      3918.2901      0             -4852.588       0              0             -171.32832      145513.3       52.597798      52.597798      52.597798      0.77519       -449.99917      130.23383      559.64811    
    216500   433000         449.16179     -564.57646      8693.0141      9886.7423      6478.7725      3407.9698      2149.2159      2169.8869      3952.4986      0             -4863.6316      0              0             -171.95906      144979.56      52.53341       52.53341       52.53341       0.77804385    -181.87981     -946.29162     -565.55794    
    217000   434000         450.15317      691.75756      11468.447      9999.1817      6493.0723      3506.1095      2196.9174      2165.4672      3994.02        0             -4850.2951      0              0             -171.18328      145636.59      52.612649      52.612649      52.612649      0.77453376     772.32025      875.88455      427.06787    
    217500   435000         449.12369     -449.13147      9027.8902      9992.7265      6478.2229      3514.5037      2229.2993      2153.7161      3894.3023      0             -4762.814       0              0             -169.24957      147300.52      52.812261      52.812261      52.812261      0.7657845     -679.27927     -1049.1053      380.99016    
    218000   436000         441.46826      368.16633      10647.577      9860.2363      6367.7999      3492.4363      2218.2857      2128.8253      3907.5287      0             -4762.2034      0              0             -170.01562      146636.82      52.732821      52.732821      52.732821      0.76925057     228.948        262.11719      613.4338     
    218500   437000         452.25372      305.41891      10779.097      10125.217      6523.3709      3601.8457      2192.4397      2223.9371      3974.0355      0             -4788.5666      0              0             -169.82648      146800.13      52.752391      52.752391      52.752391      0.7683948      366.93912      49.66538       499.65223    
    219000   438000         442.51074     -15.255239      9960.216       9993.041       6382.8368      3610.2042      2257.6502      2217.7268      3878.8287      0             -4744.0015      0              0             -168.97477      147540.07      52.840874      52.840874      52.840874      0.76454116     77.4959        104.96113     -228.22274    
    219500   439000         455.96763     -946.71588      8056.717       10079.508      6576.9408      3502.5671      2229.3912      2090.3185      3979.3973      0             -4796.5398      0              0             -170.16742      146506.01      52.717137      52.717137      52.717137      0.76993739    -781.47659     -1286.5084     -772.16267    
    220000   440000         449.86495      299.27201      10550.423      9912.7804      6488.915       3423.8654      2198.9831      2088.8118      3942.2189      0             -4806.1484      0              0             -170.64607      146095.07      52.667802      52.667802      52.667802      0.77210307     17.784805      256.43948      623.59176    
    220500   441000         451.34807      704.11457      11501.641      10002.349      6510.3077      3492.0418      2255.1473      2089.7848      3951.8169      0             -4804.7072      0              0             -170.75163      146004.76      52.656946      52.656946      52.656946      0.7725807      358.04389      975.90761      778.3922     
    221000   442000         447.24611     -383.495        9128.2749      9949.8685      6451.1405      3498.7281      2207.3455      2150.6703      3905.6176      0             -4764.9053      0              0             -169.71116      146899.88      52.764337      52.764337      52.764337      0.767873      -783.0028       297.38078     -664.86297    
    221500   443000         454.77958     -237.40268      9593.9315      10098.913      6559.8043      3539.1088      2207.7573      2215.0446      3959.785       0             -4843.4781      0              0             -170.9298       145852.57      52.638644      52.638644      52.638644      0.77338685    -186.50138     -897.8325       372.12584    
    222000   444000         449.92677      56.239419      10084.666      9964.655       6489.8067      3474.8483      2267.7015      2131.6776      3923.151       0             -4847.6817      0              0             -170.38338      146320.31      52.694854      52.694854      52.694854      0.77091454     349.55327      139.00549     -319.8405     
    222500   445000         455.76144     -2.6222756      10028.456      10034.04       6573.9668      3460.0736      2251.7619      2179.5341      3840.4224      0             -4811.6447      0              0             -170.72525      146027.31      52.659657      52.659657      52.659657      0.77246136     167.97359      11.717563     -187.55798    
    223000   446000         444.73793     -319.54706      9361.7419      10042.608      6414.9621      3627.6455      2304.6372      2186.8103      3940.1956      0             -4803.9976      0              0             -170.6401       146100.18      52.668415      52.668415      52.668415      0.77207609    -371.2894      -456.82184     -130.52993    
    223500   447000         449.77607      358.33215      10686.01       9924.2878      6487.6329      3436.6549      2211.0711      2141.04        3914.2045      0             -4829.6607      0              0             -171.03971      145758.84      52.627366      52.627366      52.627366      0.77388416     134.81303     -126.74179      1066.9252    
    224000   448000         449.33461      93.097037      10051.956      9853.955       6481.2652      3372.6897      2158.4246      2198.3329      3861.3967      0             -4845.4645      0              0             -170.95237      145833.31      52.636327      52.636327      52.636327      0.77348896    -447.85327      266.75462      460.38976    
    224500   449000         452.14471     -199.72175      9730.6754      10154.34       6521.7985      3632.5413      2279.1127      2207.9502      3977.032       0             -4831.5536      0              0             -171.40014      145452.33      52.590451      52.590451      52.590451      0.77551494     415.42665     -741.77432     -272.81758    
    225000   450000         443.4475      -84.487371      9806.5369      9986.9543      6396.3487      3590.6056      2269.6856      2199.5326      3960.9512      0             -4839.5638      0              0             -170.2634       146423.42      52.707229      52.707229      52.707229      0.77037168    -267.62993      467.01664     -452.84883    
    225500   451000         449.48012     -806.2778       8265.8117      9970.0147      6483.364       3486.6507      2203.6975      2195.5441      3947.1045      0             -4859.6954      0              0             -172.01689      144930.82      52.527522      52.527522      52.527522      0.7783055     -1142.3872     -563.41498     -713.03125    
    226000   452000         448.52768      78.5852        10091.363      9925.5099      6469.626       3455.8839      2254.6822      2168.6291      3907.7482      0             -4875.1757      0              0             -172.27559      144713.19      52.501217      52.501217      52.501217      0.779476       61.39363       31.726802      142.63517    
    226500   453000         449.88361      140.82512      10108.259      9811.4013      6489.1842      3322.2171      2202.3923      2078.4157      3951.9023      0             -4910.4932      0              0             -172.48002      144541.66      52.480466      52.480466      52.480466      0.78040097     94.464095     -135.68768      463.69894    
    227000   454000         449.64994     -664.81787      8612.8068      10032.925      6485.8136      3547.1114      2218.0029      2161.7723      3936.4691      0             -4769.1328      0              0             -170.21033      146469.07      52.712706      52.712706      52.712706      0.77013156    -961.57384     -282.60923     -750.27055    
    227500   455000         453.23635      17.450863      10074.652      10037.625      6537.5445      3500.0805      2244.2265      2178.0273      3925.0864      0             -4847.2597      0              0             -171.35855      145487.63      52.594705      52.594705      52.594705      0.77532676    -309.80451      244.14687      118.01023    
    228000   456000         445.16832      53.278076      9982.1964      9868.6668      6421.1701      3447.4967      2220.289       2097.7921      3940.4956      0             -4811.08        0              0             -170.62678      146111.59      52.669786      52.669786      52.669786      0.7720158      27.031275      236.32571     -103.52275    
    228500   457000         453.42758     -260.41197      9464.4144      10020.015      6540.3028      3479.7126      2218.0155      2185.7052      3905.6527      0             -4829.6607      0              0             -170.41413      146293.91      52.691685      52.691685      52.691685      0.77105364     473.89081     -616.09623     -639.03049    
    229000   458000         451.61196      457.06956      10937.868      9960.3104      6514.114       3446.1964      2214.7732      2121.2417      3931.2553      0             -4821.0738      0              0             -169.99959      146650.64      52.734479      52.734479      52.734479      0.76917806     292.97657      512.48995      565.74215    
    229500   459000         450.02947     -563.09205      8774.6572      9968.3765      6491.288       3477.0885      2216.419       2159.7384      3943.915       0             -4842.9839      0              0             -171.50821      145360.68      52.579402      52.579402      52.579402      0.77600392    -736.07719     -645.0117      -308.18727    
    230000   460000         445.238        334.45791      10725.399      10016.9        6422.1751      3594.7249      2133.4669      2300.0495      3993.4477      0             -4832.2392      0              0             -171.63658      145251.96      52.566291      52.566291      52.566291      0.77658475     528.63634      512.37263     -37.635256    
    230500   461000         449.43241      117.03206      10187.879      9939.1905      6482.676       3456.5145      2215.9694      2090.828       3925.7176      0             -4776.0006      0              0             -171.10246      145705.38      52.620932      52.620932      52.620932      0.77416806     99.119179     -147.20163      399.17863    
    231000   462000         435.62375      192.47103      10198.61       9786.7294      6283.4978      3503.2316      2169.259       2222.763       3864.3989      0             -4753.1893      0              0             -169.90342      146733.66      52.744427      52.744427      52.744427      0.76874289     912.34848     -268.19412     -66.741277    
    231500   463000         452.65003     -206.05515      9682.4917      10120.935      6529.0874      3591.8474      2316.0542      2232.5995      3907.7901      0             -4864.5964      0              0             -170.8748       145899.51      52.644291      52.644291      52.644291      0.77313799    -136.89391      296.5202      -777.79174    
    232000   464000         447.01369     -435.59107      8936.7239      9871.3556      6447.788       3423.5676      2114.6328      2153.5103      3934.4926      0             -4779.0682      0              0             -169.45181      147124.72      52.791242      52.791242      52.791242      0.76669956    -322.98581     -528.41933     -455.36807    
    232500   465000         457.19977      722.21767      11716.642      10178.445      6594.7134      3583.7312      2192.3839      2274.5912      3908.3518      0             -4791.5957      0              0             -170.71189      146038.74      52.661031      52.661031      52.661031      0.77240092     905.26678      955.66889      305.71733    
    233000   466000         440.57813     -8.5490717      9804.6554      9822.9619      6354.9605      3468.0013      2219.6939      2188.7097      3905.363       0             -4845.7652      0              0             -169.79404      146828.17      52.75575       52.75575       52.75575       0.76824803     10.702602     -342.13627      305.78645    
    233500   467000         445.23741      112.9845       10184.035      9941.2606      6422.1667      3519.0939      2264.3205      2119.7553      3892.242       0             -4757.2239      0              0             -169.20927      147335.61      52.816454      52.816454      52.816454      0.76560215    -310.74114     -141.47383      791.16848    
    234000   468000         449.10854      110.69716      10139.888      9903.958       6478.0043      3425.9536      2148.1192      2144.6306      3976.3125      0             -4843.1087      0              0             -170.59281      146140.68      52.673281      52.673281      52.673281      0.77186213     327.91106      249.70058     -245.52017    
    234500   469000         460.62357      22.67462       10327.053      10278.16       6644.0988      3634.0612      2257.8321      2144.2659      3945.5822      0             -4713.619       0              0             -168.61592      147854.07      52.878334      52.878334      52.878334      0.76291749     226.97373      62.769575     -221.71944    
    235000   470000         447.59104      131.66604      10165.915      9882.4462      6456.1157      3426.3305      2158.5661      2108.9223      3928.7948      0             -4769.9527      0              0             -168.87952      147623.29      52.850807      52.850807      52.850807      0.76411018    -582.04815      787.38977      189.65651    
    235500   471000         452.86212     -118.8433       9841.9811      10098.582      6532.1466      3566.4351      2279.0505      2129.323       3943.853       0             -4785.7914      0              0             -168.39327      148049.56      52.901628      52.901628      52.901628      0.76191012    -84.439724     -436.69788      164.6077     
    236000   472000         447.67394      236.90153      10552.791      10041.163      6457.3115      3583.8519      2253.0859      2149.4907      3886.6031      0             -4705.3278      0              0             -168.35332      148084.69      52.905813      52.905813      52.905813      0.76172934     275.33629      452.6901      -17.321797    
    236500   473000         459.36294     -970.03524      8105.0507      10207.49       6625.9153      3581.5746      2204.9418      2143.6063      3946.2253      0             -4713.1988      0              0             -167.75358      148614.11      52.968786      52.968786      52.968786      0.75901578    -1010.0736     -949.88335     -950.14881    
    237000   474000         444.97843      399.12496      10847.89       9988.7702      6418.431       3570.3391      2167.7113      2240.8181      3910.3122      0             -4748.5025      0              0             -168.91294      147594.08      52.847321      52.847321      52.847321      0.7642614      1073.6401      82.810865      40.923952    
    237500   475000         445.9868      -511.86803      8904.0852      10011.703      6432.976       3578.7272      2203.1009      2118.6915      3969.373       0             -4712.4382      0              0             -168.02571      148373.42      52.940175      52.940175      52.940175      0.76024706     45.402313     -1026.0982     -554.90823    
