units real
atom_style full
boundary p p p

# --- Force Field (injected via PAIR_STYLE_BLOCK) ---
pair_style lj/class2/coul/cut 9.5 9.5
dielectric 1.000000
bond_style class2
angle_style class2
dihedral_style class2
improper_style class2
special_bonds lj/coul 0 0 1
pair_modify mix sixthpower tail yes
neighbor 2.0 bin
neigh_modify delay 0 every 1 check yes
neigh_modify one 4000
package gpu 1 neigh no

read_data /home/arz2/PolyJarvis/data/PEEK1/lammps/equil/nvt_softheat/nvt_softheat_out.data
Reading data file ...
  orthogonal box = (0 0 0) to (44.324856 44.324856 44.324856)
  1 by 1 by 3 MPI processor grid
WARNING: Pair style lj/class2/coul/long/gpu in data file differs from currently defined pair style lj/class2/coul/cut (src/read_data.cpp:811)
  reading atoms ...
  4096 atoms
  reading velocities ...
  4096 velocities
  scanning bonds ...
  3 = max bonds/atom
  scanning angles ...
  3 = max angles/atom
  scanning dihedrals ...
  9 = max dihedrals/atom
  scanning impropers ...
  1 = max impropers/atom
  orthogonal box = (0 0 0) to (44.324856 44.324856 44.324856)
  1 by 1 by 3 MPI processor grid
  reading bonds ...
  4448 bonds
  reading angles ...
  7080 angles
  reading dihedrals ...
  10544 dihedrals
  reading impropers ...
  2280 impropers
Finding 1-2 1-3 1-4 neighbors ...
  special bond factors lj:    0        0        1       
  special bond factors coul:  0        0        1       
     3 = max # of 1-2 neighbors
     6 = max # of 1-3 neighbors
     9 = max # of special neighbors
  special bonds CPU = 0.001 seconds
  read_data CPU = 0.085 seconds
include /home/arz2/PolyJarvis/data/PEEK1/lammps/equil/emc_build.params
# LAMMPS parameters created by EMC v9.4.4, build Jul 31 2025 20:33:44

# Variables

variable	seed		index	-1
variable	ntotal		index	4096
variable	fshape		index	1
variable	output		index	emc_build
variable	field		index	pcff/pcff
variable	location1	index	/home/arz2/emc/field/
variable	nav		index	0.6022141179
variable	temperature	index	300
variable	radius		index	5
variable	nrelax		index	100
variable	weight_nonbond	index	0.0001
variable	weight_bond	index	0.0001
variable	weight_focus	index	1
variable	cutoff		index	9.5
variable	charge_cutoff	index	9.5
variable	kappa		index	4
variable	density1	index	0.66
variable	lprevious	index	0
variable	lphase		index	44.3248558022
variable	f_poly		index	8
variable	chem_repeat	index	*Oc1ccc(Oc2ccc(C(=O)c3ccc(cc3)*)cc2)cc1
variable	chem_cap	index	*[H]
variable	lg_repeat	index	34
variable	lg_cap		index	1
variable	norm_poly	index	100
variable	l_poly		index	512
variable	mg_repeat	index	260.29514
variable	mg_cap		index	0
variable	m_poly		index	3904.4271
variable	n_poly		index	8
variable	mtotal		index	34612.81032
variable	nphase1		index	4096
variable	mphase1		index	34612.81032
variable	vphase1		index	87084.7269122
variable	lbox		index	44.3248558022
variable	lphase1		index	44.3248558022
variable	lxx		index	44.3248558022
variable	lyy		index	44.3248558022
variable	lzz		index	44.3248558022
variable	lzy		index	0
variable	lzx		index	0
variable	lyx		index	0
variable	vtotal		index	87084.7269122
variable	nl_poly		index	8

# Types

variable	type_c_0	index	1
variable	type_cp		index	2
variable	type_hc		index	3
variable	type_ho		index	4
variable	type_o_1	index	5
variable	type_oc		index	6
variable	type_oh		index	7

variable	type_bond_c_0_cp index	1
variable	type_bond_c_0_o_1 index	2
variable	type_bond_cp_cp	index	3
variable	type_bond_cp_hc	index	4
variable	type_bond_cp_oc	index	5
variable	type_bond_cp_oh	index	6
variable	type_bond_ho_oh	index	7

variable	type_angle_c_0_cp_cp index	1
variable	type_angle_cp_c_0_cp index	2
variable	type_angle_cp_c_0_o_1 index	3
variable	type_angle_cp_cp_cp index	4
variable	type_angle_cp_cp_hc index	5
variable	type_angle_cp_cp_oc index	6
variable	type_angle_cp_cp_oh index	7
variable	type_angle_cp_oc_cp index	8
variable	type_angle_cp_oh_ho index	9

# Clusters

variable	n0_poly		index	1
variable	n1_poly		index	8
variable	nl_poly		index	8

# Flags

variable	flag_charged	index	1

# Masses

mass		1    12.01115  # c_0
mass		2    12.01115  # cp
mass		3     1.00797  # hc
mass		4     1.00797  # ho
mass		5    15.99940  # o_1
mass		6    15.99940  # oc
mass		7    15.99940  # oh

# Potentials

pair_modify	mix sixthpower tail yes
special_bonds	lj/coul 0 0 1

# Pair Coeffs

pair_coeff	 1  1    0.12000    3.30800  # c_0,c_0
pair_coeff	 2  2    0.06400    4.01000  # cp,cp
pair_coeff	 3  3    0.02000    2.99500  # hc,hc
pair_coeff	 4  4    0.01300    1.09800  # ho,ho
pair_coeff	 5  5    0.26700    3.30000  # o_1,o_1
pair_coeff	 6  6    0.24000    3.53500  # oc,oc
pair_coeff	 7  7    0.24000    3.53500  # oh,oh

# Bond Coeffs

bond_coeff	1    1.48900  339.35740 -655.72360  670.23620  # c_0,cp
bond_coeff	2    1.21600  823.79480 -1878.79400 2303.53110  # c_0,o_1
bond_coeff	3    1.41700  470.83610 -627.61790 1327.63450  # cp,cp
bond_coeff	4    1.09820  372.82510 -803.45260  894.31730  # cp,hc
bond_coeff	5    1.37680  428.87980 -738.23510 1114.96550  # cp,oc
bond_coeff	6    1.37680  428.87980 -738.23510 1114.96550  # cp,oh
bond_coeff	7    0.96500  532.50620 -1282.90500 2004.76580  # ho,oh

# Angle Coeffs

angle_coeff	1  108.40000   43.95940   -8.39240   -9.33790  # c_0,cp,cp
angle_coeff	2  110.58840   34.62140   -7.09390   -7.40320  # cp,c_0,cp
angle_coeff	3  119.30000   65.10160  -17.97660    0.00000  # cp,c_0,o_1
angle_coeff	4  118.90000   61.02260  -34.99310    0.00000  # cp,cp,cp
angle_coeff	5  117.94000   35.15580  -12.46820    0.00000  # cp,cp,hc
angle_coeff	6  123.42000   73.67810  -21.67870    0.00000  # cp,cp,oc
angle_coeff	7  123.42000   73.67810  -21.67870    0.00000  # cp,cp,oh
angle_coeff	8  109.50000   60.00000    0.00000    0.00000  # cp,oc,cp
angle_coeff	9  108.19000   53.12500   -8.50160    0.00000  # cp,oh,ho

# BondBond Coeffs

angle_coeff	1 bb    0.00000    1.48900    1.41700  # c_0,cp,cp
angle_coeff	2 bb    0.00000    1.48900    1.48900  # cp,c_0,cp
angle_coeff	3 bb    0.00000    1.48900    1.21600  # cp,c_0,o_1
angle_coeff	4 bb   68.28560    1.41700    1.41700  # cp,cp,cp
angle_coeff	5 bb    1.07950    1.41700    1.09820  # cp,cp,hc
angle_coeff	6 bb   48.47540    1.41700    1.37680  # cp,cp,oc
angle_coeff	7 bb   48.47540    1.41700    1.37680  # cp,cp,oh
angle_coeff	8 bb    0.00000    1.37680    1.37680  # cp,oc,cp
angle_coeff	9 bb   20.65770    1.37680    0.96500  # cp,oh,ho

# BondAngle Coeffs

angle_coeff	1 ba    0.00000    0.00000    1.48900    1.41700  # c_0,cp,cp
angle_coeff	2 ba    0.00000    0.00000    1.48900    1.48900  # cp,c_0,cp
angle_coeff	3 ba    0.00000    0.00000    1.48900    1.21600  # cp,c_0,o_1
angle_coeff	4 ba   28.87080   28.87080    1.41700    1.41700  # cp,cp,cp
angle_coeff	5 ba   20.00330   24.21830    1.41700    1.09820  # cp,cp,hc
angle_coeff	6 ba   58.47900  107.68060    1.41700    1.37680  # cp,cp,oc
angle_coeff	7 ba   58.47900  107.68060    1.41700    1.37680  # cp,cp,oh
angle_coeff	8 ba    0.00000    0.00000    1.37680    1.37680  # cp,oc,cp
angle_coeff	9 ba   53.86140   23.92240    1.37680    0.96500  # cp,oh,ho

# Dihedral Coeffs

dihedral_coeff	 1    0.00000    0.00000    4.62820    0.00000    0.00000    0.00000  # c_0,cp,cp,cp
dihedral_coeff	 2    0.00000    0.00000    2.16700    0.00000    0.00000    0.00000  # c_0,cp,cp,hc
dihedral_coeff	 3    0.00000    0.00000    2.50000    0.00000    0.00000    0.00000  # cp,c_0,cp,cp
dihedral_coeff	 4    0.00000    0.00000    0.90630    0.00000    0.00000    0.00000  # cp,cp,c_0,o_1
dihedral_coeff	 5    8.36670    0.00000    1.19320    0.00000    0.00000    0.00000  # cp,cp,cp,cp
dihedral_coeff	 6    0.00000    0.00000    3.96610    0.00000    0.00000    0.00000  # cp,cp,cp,hc
dihedral_coeff	 7    0.00000    0.00000    4.84980    0.00000    0.00000    0.00000  # cp,cp,cp,oc
dihedral_coeff	 8    0.00000    0.00000    4.84980    0.00000    0.00000    0.00000  # cp,cp,cp,oh
dihedral_coeff	 9    0.00000    0.00000    1.80000    0.00000    0.00000    0.00000  # cp,cp,oc,cp
dihedral_coeff	10   -0.69000    0.00000    0.50970    0.00000    0.00950    0.00000  # cp,cp,oh,ho
dihedral_coeff	11    0.00000    0.00000    1.87690    0.00000    0.00000    0.00000  # hc,cp,cp,hc
dihedral_coeff	12    0.00000    0.00000    1.72340    0.00000    0.00000    0.00000  # hc,cp,cp,oc
dihedral_coeff	13    0.00000    0.00000    1.72340    0.00000    0.00000    0.00000  # hc,cp,cp,oh

# MiddleBondTorsion Coeffs

dihedral_coeff	 1 mbt    0.00000    0.00000    0.00000    1.41700  # c_0,cp,cp,cp
dihedral_coeff	 2 mbt    0.00000    0.00000    0.00000    1.41700  # c_0,cp,cp,hc
dihedral_coeff	 3 mbt    0.00000    0.00000    0.00000    1.48900  # cp,c_0,cp,cp
dihedral_coeff	 4 mbt    0.00000    0.00000    0.00000    1.48900  # cp,cp,c_0,o_1
dihedral_coeff	 5 mbt   27.59890   -2.31200    0.00000    1.41700  # cp,cp,cp,cp
dihedral_coeff	 6 mbt    0.00000   -1.15210    0.00000    1.41700  # cp,cp,cp,hc
dihedral_coeff	 7 mbt    0.00000    4.82550    0.00000    1.41700  # cp,cp,cp,oc
dihedral_coeff	 8 mbt    0.00000    4.82550    0.00000    1.41700  # cp,cp,cp,oh
dihedral_coeff	 9 mbt    0.00000    0.00000    0.00000    1.37680  # cp,cp,oc,cp
dihedral_coeff	10 mbt    1.15800    3.26970    3.51320    1.37680  # cp,cp,oh,ho
dihedral_coeff	11 mbt    0.00000    4.82280    0.00000    1.41700  # hc,cp,cp,hc
dihedral_coeff	12 mbt    0.00000    5.54320    0.00000    1.41700  # hc,cp,cp,oc
dihedral_coeff	13 mbt    0.00000    5.54320    0.00000    1.41700  # hc,cp,cp,oh

# EndBondTorsion Coeffs

dihedral_coeff	 1 ebt    0.00000    0.00000    0.00000    0.00000    0.00000    0.00000    1.48900    1.41700  # c_0,cp,cp,cp
dihedral_coeff	 2 ebt    0.00000    0.00000    0.00000    0.00000    0.00000    0.00000    1.48900    1.09820  # c_0,cp,cp,hc
dihedral_coeff	 3 ebt    0.00000    0.00000    0.00000    0.00000    0.00000    0.00000    1.48900    1.41700  # cp,c_0,cp,cp
dihedral_coeff	 4 ebt    0.00000    0.00000    0.00000    0.00000    0.00000    0.00000    1.41700    1.21600  # cp,cp,c_0,o_1
dihedral_coeff	 5 ebt   -0.11850    6.32040    0.00000   -0.11850    6.32040    0.00000    1.41700    1.41700  # cp,cp,cp,cp
dihedral_coeff	 6 ebt    0.00000   -6.89580    0.00000    0.00000   -0.46690    0.00000    1.41700    1.09820  # cp,cp,cp,hc
dihedral_coeff	 7 ebt    0.00000    0.26550    0.00000    0.00000    4.89050    0.00000    1.41700    1.37680  # cp,cp,cp,oc
dihedral_coeff	 8 ebt    0.00000    0.26550    0.00000    0.00000    4.89050    0.00000    1.41700    1.37680  # cp,cp,cp,oh
dihedral_coeff	 9 ebt    0.00000    0.00000    0.00000    0.00000    0.00000    0.00000    1.41700    1.37680  # cp,cp,oc,cp
dihedral_coeff	10 ebt    0.90000   -1.34560    1.19000    3.41320    0.58730   -0.13230    1.41700    0.96500  # cp,cp,oh,ho
dihedral_coeff	11 ebt    0.00000   -0.68900    0.00000    0.00000   -0.68900    0.00000    1.09820    1.09820  # hc,cp,cp,hc
dihedral_coeff	12 ebt    0.00000   -1.58670    0.00000    0.00000    4.26410    0.00000    1.09820    1.37680  # hc,cp,cp,oc
dihedral_coeff	13 ebt    0.00000   -1.58670    0.00000    0.00000    4.26410    0.00000    1.09820    1.37680  # hc,cp,cp,oh

# AngleTorsion Coeffs

dihedral_coeff	 1 at    0.00000    0.00000    0.00000    0.00000    0.00000    0.00000  108.40000  118.90000  # c_0,cp,cp,cp
dihedral_coeff	 2 at    0.00000    0.00000    0.00000    0.00000    0.00000    0.00000  108.40000  117.94000  # c_0,cp,cp,hc
dihedral_coeff	 3 at    0.00000    0.00000    0.00000    0.00000    0.00000    0.00000  110.58840  108.40000  # cp,c_0,cp,cp
dihedral_coeff	 4 at    0.00000    0.00000    0.00000    0.00000    0.00000    0.00000  108.40000  119.30000  # cp,cp,c_0,o_1
dihedral_coeff	 5 at    1.97670    1.02390    0.00000    1.97670    1.02390    0.00000  118.90000  118.90000  # cp,cp,cp,cp
dihedral_coeff	 6 at    0.00000    2.50140    0.00000    0.00000    2.71470    0.00000  118.90000  117.94000  # cp,cp,cp,hc
dihedral_coeff	 7 at    0.00000   10.01550    0.00000    0.00000    1.74040    0.00000  118.90000  123.42000  # cp,cp,cp,oc
dihedral_coeff	 8 at    0.00000   10.01550    0.00000    0.00000    1.74040    0.00000  118.90000  123.42000  # cp,cp,cp,oh
dihedral_coeff	 9 at    0.00000    0.00000    0.00000    0.00000    0.00000    0.00000  123.42000  109.50000  # cp,cp,oc,cp
dihedral_coeff	10 at   -5.13600   -1.01220    0.00000    4.68520    0.02300   -0.59800  123.42000  108.19000  # cp,cp,oh,ho
dihedral_coeff	11 at    0.00000    2.45010    0.00000    0.00000    2.45010    0.00000  117.94000  117.94000  # hc,cp,cp,hc
dihedral_coeff	12 at    0.00000    1.87290    0.00000    0.00000    2.57060    0.00000  117.94000  123.42000  # hc,cp,cp,oc
dihedral_coeff	13 at    0.00000    1.87290    0.00000    0.00000    2.57060    0.00000  117.94000  123.42000  # hc,cp,cp,oh

# AngleAngleTorsion Coeffs

dihedral_coeff	 1 aat    0.00000  108.40000  118.90000  # c_0,cp,cp,cp
dihedral_coeff	 2 aat    0.00000  108.40000  117.94000  # c_0,cp,cp,hc
dihedral_coeff	 3 aat    0.00000  110.58840  108.40000  # cp,c_0,cp,cp
dihedral_coeff	 4 aat    0.00000  108.40000  119.30000  # cp,cp,c_0,o_1
dihedral_coeff	 5 aat    0.00000  118.90000  118.90000  # cp,cp,cp,cp
dihedral_coeff	 6 aat   -4.81410  118.90000  117.94000  # cp,cp,cp,hc
dihedral_coeff	 7 aat  -21.02470  118.90000  123.42000  # cp,cp,cp,oc
dihedral_coeff	 8 aat  -21.02470  118.90000  123.42000  # cp,cp,cp,oh
dihedral_coeff	 9 aat    0.00000  123.42000  109.50000  # cp,cp,oc,cp
dihedral_coeff	10 aat   -4.60720  123.42000  108.19000  # cp,cp,oh,ho
dihedral_coeff	11 aat    0.35980  117.94000  117.94000  # hc,cp,cp,hc
dihedral_coeff	12 aat    4.22960  117.94000  123.42000  # hc,cp,cp,oc
dihedral_coeff	13 aat    4.22960  117.94000  123.42000  # hc,cp,cp,oh

# BondBond13 Coeffs

dihedral_coeff	 1 bb13    0.00000    1.48900    1.41700  # c_0,cp,cp,cp
dihedral_coeff	 2 bb13    0.00000    1.48900    1.09820  # c_0,cp,cp,hc
dihedral_coeff	 3 bb13    0.00000    1.48900    1.41700  # cp,c_0,cp,cp
dihedral_coeff	 4 bb13    0.00000    1.41700    1.21600  # cp,cp,c_0,o_1
dihedral_coeff	 5 bb13   53.00000    1.41700    1.41700  # cp,cp,cp,cp
dihedral_coeff	 6 bb13   -6.27410    1.41700    1.09820  # cp,cp,cp,hc
dihedral_coeff	 7 bb13   -2.24360    1.41700    1.37680  # cp,cp,cp,oc
dihedral_coeff	 8 bb13   -2.24360    1.41700    1.37680  # cp,cp,cp,oh
dihedral_coeff	 9 bb13    0.00000    1.41700    1.37680  # cp,cp,oc,cp
dihedral_coeff	10 bb13    1.15900    1.41700    0.96500  # cp,cp,oh,ho
dihedral_coeff	11 bb13   -1.70770    1.09820    1.09820  # hc,cp,cp,hc
dihedral_coeff	12 bb13    2.05170    1.09820    1.37680  # hc,cp,cp,oc
dihedral_coeff	13 bb13    2.05170    1.09820    1.37680  # hc,cp,cp,oh

# Improper Coeffs

improper_coeff	1   38.79490    0.00000  # c_0,cp,cp,o_1
improper_coeff	2    0.00000    0.00000  # cp,c_0,cp,cp
improper_coeff	3    4.89120    0.00000  # cp,cp,cp,hc
improper_coeff	4   13.04210    0.00000  # cp,cp,cp,oc
improper_coeff	5   13.04210    0.00000  # cp,cp,cp,oh

# AngleAngle Coeffs

improper_coeff	1 aa    0.00000    0.00000    0.00000  110.58840  119.30000  119.30000  # c_0,cp,cp,o_1
improper_coeff	2 aa    0.00000    0.00000    0.00000  108.40000  108.40000  118.90000  # cp,c_0,cp,cp
improper_coeff	3 aa    0.00000    0.00000    0.00000  118.90000  117.94000  117.94000  # cp,cp,cp,hc
improper_coeff	4 aa    0.00000    0.00000    0.00000  118.90000  123.42000  123.42000  # cp,cp,cp,oc
improper_coeff	5 aa    0.00000    0.00000    0.00000  118.90000  123.42000  123.42000  # cp,cp,cp,oh


# --- Thermo Output ---
thermo_style custom step time temp press enthalpy etotal ke pe ebond eangle edihed eimp evdwl ecoul vol lx ly lz density pxx pyy pzz
thermo_modify flush yes
thermo 1000

# --- Trajectory ---
dump dump_comp all custom 2000 npt_compress.dump id type mol x y z ix iy iz vx vy vz

restart 10000 compress_1.rst compress_2.rst
velocity all create 600.0 277173 mom yes rot yes dist gaussian
# SHAKE disabled

# --- NPT Compression ---
# High pressure compresses the cell from low to target density
# P ramp: 1.0 -> 50000.0 atm
timestep 0.5
fix npt_comp all npt temp 850.0 850.0 100.0 iso 1.0 50000.0 1000.0

run 300000

CITE-CITE-CITE-CITE-CITE-CITE-CITE-CITE-CITE-CITE-CITE-CITE-CITE

Your simulation uses code contributions which should be cited:

- GPU package (short-range, long-range and three-body potentials): doi:10.1016/j.cpc.2010.12.021, doi:10.1016/j.cpc.2011.10.012, doi:10.1016/j.cpc.2013.08.002, doi:10.1016/j.commatsci.2014.10.068, doi:10.1016/j.cpc.2016.10.020, doi:10.3233/APC200086

@Article{Brown11,
 author = {W. M. Brown and P. Wang and S. J. Plimpton and A. N. Tharrington},
 title = {Implementing Molecular Dynamics on Hybrid High Performance Computers---Short Range Forces},
 journal = {Comput.\ Phys.\ Commun.},
 year =    2011,
 volume =  182,
 pages =   {898--911},
 doi =     {10.1016/j.cpc.2010.12.021}
}

@Article{Brown12,
 author = {W. M. Brown and A. Kohlmeyer and S. J. Plimpton and A. N. Tharrington},
 title = {Implementing Molecular Dynamics on Hybrid High Performance Computers - Particle-Particle Particle-Mesh},
 journal = {Comput.\ Phys.\ Commun.},
 year =    2012,
 volume =  183,
 doi =     {10.1016/j.cpc.2011.10.012},
 pages =   {449--459}
}

@Article{Brown13,
 author = {W. M. Brown and Y. Masako},
 title = {Implementing Molecular Dynamics on Hybrid High Performance Computers---Three-Body Potentials},
 journal = {Comput.\ Phys.\ Commun.},
 year =    2013,
 volume =  184,
 pages =   {2785--2793},
 doi =     {10.1016/j.cpc.2013.08.002},
}

@Article{Trung15,
 author = {T. D. Nguyen and S. J. Plimpton},
 title = {Accelerating Dissipative Particle Dynamics Simulations for Soft Matter Systems},
 journal = {Comput.\ Mater.\ Sci.},
 year =    2015,
 doi =     {10.1016/j.commatsci.2014.10.068},
 volume =  100,
 pages =   {173--180}
}

@Article{Trung17,
 author = {T. D. Nguyen},
 title = {{GPU}-Accelerated {T}ersoff Potentials for Massively Parallel
    Molecular Dynamics Simulations},
 journal = {Comput.\ Phys.\ Commun.},
 year =    2017,
 doi =     {10.1016/j.cpc.2016.10.020},
 volume =  212,
 pages =   {113--122}
}

@inproceedings{Nikolskiy19,
 author = {V. Nikolskiy and V. Stegailov},
 title = {{GPU} Acceleration of Four-Site Water Models in {LAMMPS}},
 booktitle = {Proceedings of the International Conference on Parallel
    Computing (ParCo 2019), Prague, Czech Republic},
 doi =     {10.3233/APC200086},
 year =    2019
}

CITE-CITE-CITE-CITE-CITE-CITE-CITE-CITE-CITE-CITE-CITE-CITE-CITE

Generated 21 of 21 mixed pair_coeff terms from sixthpower/sixthpower mixing rule
Neighbor list info ...
  update: every = 1 steps, delay = 0 steps, check = yes
  max neighbors/atom: 4000, page size: 100000
  master list distance cutoff = 11.5
  ghost atom cutoff = 11.5
  binsize = 5.75, bins = 8 8 8
  1 neighbor lists, perpetual/occasional/extra = 1 0 0
  (1) pair lj/class2/coul/cut, perpetual
      attributes: half, newton on
      pair build: half/bin/newton
      stencil: half/bin/3d
      bin: standard
Per MPI rank memory allocation (min/avg/max) = 11.84 | 12.3 | 12.71 Mbytes
   Step          Time           Temp          Press         Enthalpy        TotEng         KinEng         PotEng         E_bond        E_angle        E_dihed        E_impro         E_vdwl         E_coul         Volume           Lx             Ly             Lz          Density          Pxx            Pyy            Pzz      
         0   0              600           -2015.2393      22004.47       24563.908      7323.8503      17240.057      4270.0715      4421.2523      4507.2288      531.79813      1014.6107      2495.096       87084.727      44.324856      44.324856      44.324856      0.65999999    -2620.3384     -2061.91       -1363.4693    
      1000   500            864.28624      114.37861      28333.976      28193.467      10549.838      17643.629      4333.0223      4204.1478      4702.799       601.02717      1053.5857      2749.0469      84233.033      43.835653      43.835653      43.835653      0.68234417     162.53666      776.1846      -595.58544    
      2000   1000           849.22154     -1760.521       25681.505      27774.248      10365.952      17408.296      4241.2732      4255.5316      4791.4083      560.42246      878.86908      2680.7908      81507.732      43.357703      43.357703      43.357703      0.7051591     -2845.3764     -1609.7024     -826.48433    
      3000   1500           840.8413       400.52863      28150.437      27694.882      10263.66       17431.222      4316.7377      4298.5871      4698.9959      583.63436      839.93902      2693.328       77988.688      42.724521      42.724521      42.724521      0.73697763    -195.10238     -493.73709      1890.4254    
      4000   2000           824.74471      691.03439      28053.744      27296.46       10067.178      17229.282      4382.5648      4306.0334      4640.3186      540.67983      821.13433      2538.5515      75142.013      42.198234      42.198234      42.198234      0.76489725    -1437.7661      3013.9968      496.87256    
      5000   2500           834.26107      140.5517       27518.076      27368.972      10183.339      17185.633      4275.4766      4358.323       4589.1466      548.5933       823.13414      2590.9598      72740.705      41.74385       41.74385       41.74385       0.79014794     1281.9165     -76.896142     -783.36529    
      6000   3000           864.47889      4057.1314      31508.06       27383.564      10552.19       16831.374      4301.7271      4132.8282      4500.356       560.47402      815.64551      2520.3429      69706.932      41.155257      41.155257      41.155257      0.82453663     4364.3287      2618.4866      5188.579     
      7000   3500           852.48694      1242.6862      29157.49       27944.678      10405.811      17538.867      4326.5655      4130.0477      4801.4311      582.44036      677.45842      3020.9239      66919.999      40.599309      40.599309      40.599309      0.85887507     2019.7513      4202.8809     -2494.5736    
      8000   4000           867.1008       526.12457      28023          27529.173      10584.194      16944.979      4213.0559      4377.2095      4607.1708      560.38037      598.36857      2588.7938      64359.154      40.074684      40.074684      40.074684      0.89304962     2918.5625     -534.50797     -805.68079    
      9000   4500           870.10536      2382.4816      30143.113      27986.881      10620.869      17366.012      4121.7608      4277.1253      4805.2629      557.14792      624.61411      2980.1011      62056.9        39.59102       39.59102       39.59102       0.92618096     965.14108      1581.5868      4600.7168    
     10000   5000           855.20052      1414.4985      28628.503      27390.538      10438.934      16951.603      4170.6553      4282.5035      4817.2145      584.19479      474.70023      2622.335       60010.907      39.151048      39.151048      39.151048      0.95775787     4911.4228      635.88016     -1303.8075    
     11000   5500           833.92804      4656.8401      31035.268      27075.396      10179.274      16896.122      4249.2581      4248.4235      4704.5026      590.76067      462.97894      2640.1986      58306.089      38.776741      38.776741      38.776741      0.98576185     4225.0754      7963.5637      1781.8812    
     12000   6000           851.38529      4070.5671      30555.273      27160.58       10392.364      16768.216      4133.9779      4228.9381      4736.0599      575.7002       379.69371      2713.8459      57183.372      38.526237      38.526237      38.526237      1.0051159      1937.9591      7003.3046      3270.4376    
     13000   6500           846.54764      2623.3013      29093.586      26937.039      10333.314      16603.725      4187.216       4369.0465      4649.3329      535.28202      357.87087      2504.9766      56368.302      38.342314      38.342314      38.342314      1.0196496      3750.2444      2988.1448      1131.5148    
     14000   7000           870.27948      501.69898      27904.21       27501.229      10622.994      16878.235      4283.3142      4249.813       4703.6483      554.56225      263.35756      2823.5392      55076.351      38.047114      38.047114      38.047114      1.043568       476.45299     -111.48213      1140.1261    
     15000   7500           866.45101      3305.1814      30169.461      27571.045      10576.262      16994.783      4231.1762      4194.1153      4932.4477      561.97504      224.83166      2850.2367      53906.042      37.775697      37.775697      37.775697      1.0662241      1754.389       5376.0631      2785.092     
     16000   8000           851.50791      3180.7072      29345.192      26849.003      10393.861      16455.142      3930.965       4304.505       4693.3719      574.8489       225.98731      2725.4644      53811.846      37.753681      37.753681      37.753681      1.0680905      1638.223       1989.4418      5914.4569    
     17000   8500           851.98262      4074.0868      30075.606      26911.199      10399.655      16511.543      4186.4522      4240.8347      4676.3629      565.92891      254.51707      2587.4476      53258.168      37.62375       37.62375       37.62375       1.0791944      4570.6954      6384.0251      1267.5397    
     18000   9000           848.97201      4024.4101      30494.347      27394.994      10362.906      17032.088      4364.0789      4336.3997      4670.0404      569.05522      183.18722      2909.3263      52807.166      37.517246      37.517246      37.517246      1.0884113      5407.0949      3875.6688      2790.4666    
     19000   9500           870.78908      2916.9139      29448.132      27216.412      10629.215      16587.198      4292.3422      4243.2111      4687.9809      571.97055      105.80707      2685.8857      52461.436      37.435191      37.435191      37.435191      1.0955842      4119.1322      932.39727      3699.2122    
     20000   10000          851.11743      2676.0784      29001.793      26962.888      10389.094      16573.794      4158.0124      4270.8619      4653.9991      572.5151       166.68184      2751.7237      52242.295      37.382994      37.382994      37.382994      1.1001798      4837.4003      888.78052      2302.0543    
     21000   10500          841.65304      4559.3933      30406.44       26980.74       10273.568      16707.172      4144.6146      4319.8382      4734.8069      559.98066      167.09633      2780.8353      51518.875      37.209639      37.209639      37.209639      1.1156284      3504.6565      2217.7258      7955.7975    
     22000   11000          828.29942      4157.5165      29644.5        26562.616      10110.568      16452.048      4199.2741      4355.4689      4558.6409      576.99249      137.97532      2623.6961      50828.389      37.042656      37.042656      37.042656      1.1307838      5813.7133      4941.8112      1717.025     
     23000   11500          833.98157      4357.5198      29474.645      26274.769      10179.927      16094.843      4054.0019      4353.0165      4748.0504      566.47184      52.472592      2320.8294      50352.12       36.926594      36.926594      36.926594      1.1414796      3707.8401      7051.0491      2313.6703    
     24000   12000          832.61363      3193.9408      28674.928      26345.822      10163.229      16182.592      4127.7993      4283.4843      4745.7408      595.42393      61.944515      2368.1994      50001.914      36.840785      36.840785      36.840785      1.1494744      2475.3451      3088.5151      4017.9622    
     25000   12500          840.1551       2499.685       28772.288      26955.735      10255.284      16700.451      4306.5425      4275.369       4774.1221      585.54353      34.451377      2724.4226      49829.555      36.798406      36.798406      36.798406      1.1534504      6308.4688     -1367.2757      2557.8619    
     26000   13000          835.3538       4482.7743      30113.916      26879.691      10196.677      16683.014      4260.6697      4376.7983      4666.8816      562.82233     -2.7893647      2818.6314      49470.64       36.709841      36.709841      36.709841      1.1618188      6261.521       4762.6264      2424.1755    
     27000   13500          857.86339      6553.4195      31358.55       26656.236      10471.438      16184.797      4200.4129      4188.0908      4498.0069      536.67637      63.688727      2697.9215      49200.303      36.642851      36.642851      36.642851      1.1682025      5683.5812      7239.9581      6736.7193    
     28000   14000          859.23268      2886.3282      28763.451      26675.733      10488.152      16187.58       4184.4828      4286.5116      4593.5781      573.82931     -76.942261      2626.1208      49596.406      36.740924      36.740924      36.740924      1.1588727      2279.204       732.15736      5647.6232    
     29000   14500          848.02942      6382.0558      31481.34       26946.49       10351.401      16595.089      4296.0366      4444.8746      4528.3923      553.2474      -115.17754      2887.7156      48722.151      36.52376       36.52376       36.52376       1.1796671      5075.3837      7686.0963      6384.6875    
     30000   15000          854.14003      6204.4264      31696.48       27287.045      10425.99       16861.055      4398.0729      4425.6104      4727.4154      578.20102     -44.082624      2775.8383      48731.009      36.525974      36.525974      36.525974      1.1794527      7243.4131      7056.3154      4313.5507    
     31000   15500          843.23778      6571.9627      31169.848      26476.728      10292.912      16183.816      4195.3926      4295.8837      4674.6324      587.56651     -76.305551      2506.6461      48965.551      36.58448       36.58448       36.58448       1.1738032      6702.1774      6812.7951      6200.9156    
     32000   16000          843.4717       10101.822      33822.909      26761.473      10295.767      16465.706      4293.2685      4391.6053      4503.3725      569.91233      0.53453054     2707.0129      47931.103      36.325015      36.325015      36.325015      1.1991362      13002.221      7003.9175      10299.327    
     33000   16500          842.81262      6150.3103      31435.854      27130.257      10287.722      16842.535      4450.5342      4343.59        4720.6557      583.97788     -88.24264       2832.0198      48002.115      36.342946      36.342946      36.342946      1.1973622      6674.1709      4596.821       7179.9389    
     34000   17000          848.68994      5364.9285      30604.132      26828.79       10359.463      16469.327      4395.9958      4453.7782      4621.8095      568.02568     -84.113544      2513.8312      48252.123      36.405931      36.405931      36.405931      1.1911583      3195.2379      4041.454       8858.0936    
     35000   17500          857.95221      6754.2597      31456.775      26728.225      10472.523      16255.702      4367.2942      4306.958       4663.0052      541.89851     -91.425175      2467.9715      48003.658      36.343335      36.343335      36.343335      1.1973237      4983.9693      9712.4338      5566.3759    
     36000   18000          852.9953       8206.8558      32596.821      26926.685      10412.016      16514.668      4433.3077      4249.0778      4581.8194      566.11787     -83.129946      2767.4756      47374.082      36.183752      36.183752      36.183752      1.2132355      11011.483      1582.0036      12027.08     
     37000   18500          845.55143      9797.7616      33342.281      26480.889      10321.154      16159.736      4304.9109      4244.2214      4527.672       620.15527     -115.71464      2578.4907      48018.596      36.347105      36.347105      36.347105      1.1969512      10197.26       10408.986      8787.0387    
     38000   19000          840.4071       5532.3029      30447.013      26645.426      10258.36       16387.066      4366.328       4314.1146      4656.6608      575.94124     -65.666742      2539.6882      47117.591      36.118333      36.118333      36.118333      1.2198399      5354.3478      5001.6099      6240.951     
     39000   19500          846.47416      4893.9958      29994.707      26613.66       10332.417      16281.243      4235.9953      4382.8082      4547.5394      591.60242     -42.235019      2565.5332      47370.906      36.182944      36.182944      36.182944      1.2133168      6693.9308      4002.648       3985.4085    
     40000   20000          855.34195      3904.6526      29246.204      26544.694      10440.661      16104.033      4347.9264      4248.8313      4496.3148      538.69145     -115.93947      2588.2084      47440.402      36.200629      36.200629      36.200629      1.2115395      4947.6282      1134.7542      5631.5754    
     41000   20500          847.98527      6489.0705      30569.312      26127.229      10350.862      15776.367      4167.3846      4255.4406      4453.8121      562.75258     -70.895602      2407.8733      46938.4        36.072488      36.072488      36.072488      1.2244968      7643.0621      7464.8341      4359.3152    
     42000   21000          840.32762      4865.7992      29516.461      26189.456      10257.39       15932.066      4176.6407      4148.6603      4597.252       561.57083     -17.344423      2465.2869      46883.868      36.058513      36.058513      36.058513      1.225921       5561.6523      2603.8003      6431.9451    
     43000   21500          831.51077      6954.4652      31265.571      26495.257      10149.767      16345.49       4189.4258      4154.2759      4725.7223      587.99763      21.251435      2666.817       47033.503      36.096834      36.096834      36.096834      1.2220208      10173.165      5369.2265      5321.0044    
     44000   22000          853.79308      6072.3423      30659.562      26480.746      10421.754      16058.991      4286.6531      4159.9269      4728.5323      584.78834     -139.92581      2439.0163      47186.874      36.136027      36.136027      36.136027      1.2180489      3597.0325      8019.6831      6600.3111    
     45000   22500          833.73332      6937.3506      31403.165      26676.727      10176.897      16499.83       4416.9492      4284.7284      4682.065       581.30987      15.694349      2519.0831      46715.87       36.015392      36.015392      36.015392      1.2303296      4156.3165      9328.9553      7326.7799    
     46000   23000          862.4118       6368.5863      31220.787      26907.598      10526.958      16380.639      4308.443       4351.3169      4580.336       585.86503     -60.267407      2614.9459      46438.648      35.94401       35.94401       35.94401       1.2376742      9377.5135      3419.5914      6308.6541    
     47000   23500          867.72774      7181.994       31753.245      26909.141      10591.847      16317.294      4293.5867      4302.7703      4625.4054      564.62817     -70.52959       2601.4335      46247.951      35.894742      35.894742      35.894742      1.2427776      5006.8555      6617.463       9921.6633    
     48000   24000          839.02005      7281.0006      31660.739      26767.278      10241.429      16525.849      4381.5942      4400.7118      4573.2202      572.12554     -17.424086      2615.6212      46083.899      35.852249      35.852249      35.852249      1.2472017      2861.3304      10739.007      8242.6639    
     49000   24500          851.54254      8101.9562      32008.408      26583.869      10394.283      16189.586      4254.2174      4300.2849      4551.7207      558.71599     -44.979129      2569.6259      45908.919      35.806815      35.806815      35.806815      1.2519554      9652.0424      4888.0733      9765.753     
     50000   25000          834.53022      9080.4874      31936.379      25860.239      10186.624      15673.615      4175.8341      4282.7248      4373.6007      537.37993     -107.34005      2411.4155      45882.038      35.799825      35.799825      35.799825      1.2526889      10821.315      9612.2966      6807.8509    
     51000   25500          856.03546      8947.5085      32637.306      26602.993      10449.126      16153.867      4294.873       4481.3792      4414.5047      583.48245     -160.47612      2540.104       46243.402      35.893565      35.893565      35.893565      1.2428999      7847.6308      10385.358      8609.537     
     52000   26000          834.09458      8319.4029      32040.06       26510.785      10181.306      16329.479      4459.4618      4241.2656      4556.1361      608.20284     -110.83262      2575.2451      45572.211      35.719061      35.719061      35.719061      1.2612054      11514.96       9797.9006      3645.3479    
     53000   26500          825.6841       11489.096      34020.27       26381.829      10078.645      16303.184      4445.6693      4266.5348      4497.9804      564.6824      -57.018212      2585.3356      45587.211      35.72298       35.72298       35.72298       1.2607904      8808.9114      13361.957      12296.419    
     54000   27000          840.99112      6631.3806      30713.996      26318.506      10265.488      16053.018      4176.4053      4208.598       4606.7265      595.12026     -119.48217      2585.6497      45449.327      35.686927      35.686927      35.686927      1.2646154      6354.6897      7609.3204      5930.1316    
     55000   27500          839.21583      6618.6857      31109.049      26732.923      10243.819      16489.105      4445.5056      4220.7283      4589.5423      533.80487     -62.348796      2761.8723      45335.895      35.657213      35.657213      35.657213      1.2677795      8744.2574      6234.5342      4877.2654    
     56000   28000          852.91237      12582.852      34822.757      26457.024      10411.004      16046.02       4555.9491      4197.0802      4432.5475      593.41268     -89.17961       2356.2096      45587.842      35.723144      35.723144      35.723144      1.260773       14068.172      14991.176      8689.208     
     57000   28500          854.46918      9763.4351      33034.963      26609.549      10430.007      16179.542      4257.3558      4219.5535      4655.8417      584.58386     -68.937922      2531.1447      45125.557      35.601983      35.601983      35.601983      1.2736889      8773.5763      11277.312      9239.4167    
     58000   29000          858.72958      10668.096      33780.964      26697.391      10482.012      16215.38       4190.2441      4346.3591      4497.3224      601.03095     -137.78623      2718.2095      45529.15       35.707807      35.707807      35.707807      1.2623982      11586.777      9902.4112      10515.101    
     59000   29500          837.33697      11380.686      33675.569      26159.42       10220.884      15938.536      4217.2649      4443.8033      4280.0544      522.92923     -107.94898      2582.4329      45284.651      35.643774      35.643774      35.643774      1.2692141      9770.9424      11410.979      12960.138    
     60000   30000          846.08747      13154.521      34963.174      26320.814      10327.697      15993.117      4247.0716      4345.3425      4551.7361      547.11227     -38.424872      2340.2796      45048.615      35.581737      35.581737      35.581737      1.2758643      10999.099      13771.194      14693.269    
     61000   30500          848.86599      10247.893      33179.472      26425.071      10361.612      16063.459      4382.5471      4320.7035      4533.248       560.58908     -156.29542      2422.6666      45193.538      35.619852      35.619852      35.619852      1.2717729      10450.362      10868.581      9424.734     
     62000   31000          846.39094      12438.498      34784.746      26695.216      10331.401      16363.815      4400.6858      4296.7449      4517.1564      558.4371      -103.44542      2694.2363      44594.312      35.461722      35.461722      35.461722      1.2888621      11885.241      14022.576      11407.677    
     63000   31500          842.42535      9488.3796      32778.369      26568.459      10282.995      16285.464      4196.6202      4327.6449      4527.8214      559.65046     -66.03249       2739.7595      44876.328      35.536319      35.536319      35.536319      1.2807625      12957.332      9807.9414      5699.8658    
     64000   32000          850.37282      9399.1649      32554.677      26455.397      10380.005      16075.391      4187.6368      4286.0229      4581.5882      572.01663     -132.73973      2580.8664      44495.231      35.435439      35.435439      35.435439      1.2917321      12025.261      8915.721       7256.5132    
     65000   32500          827.96324      11320.918      33819.559      26408.816      10106.465      16302.351      4393.0266      4420.4779      4560.3952      583.36965     -122.23535      2467.317       44885.314      35.538691      35.538691      35.538691      1.2805061      10990.646      9873.2521      13098.856    
     66000   33000          855.00145      10594.924      33730.18       26851.789      10436.504      16415.285      4261.5174      4341.3096      4582.0824      582.14074     -104.30396      2752.5382      44515.692      35.44087       35.44087       35.44087       1.2911384      8013.1449      13420.029      10351.599    
     67000   33500          865.41606      12010.744      34354.202      26597.435      10563.629      16033.806      4360.1485      4384.9428      4384.1611      560.9941      -91.558493      2435.1179      44282.787      35.378953      35.378953      35.378953      1.2979291      13074.849      10734.07       12223.312    
     68000   34000          856.75613      11925.247      34393.172      26708.491      10457.923      16250.568      4322.3597      4187.4849      4589.5931      566.15815     -91.056848      2676.0288      44185.787      35.353102      35.353102      35.353102      1.3007784      13085.973      10768.926      11920.843    
     69000   34500          844.04276      11745.245      34007.297      26434.293      10302.738      16131.555      4199.5857      4157.5762      4631.1257      577.73851     -76.709405      2642.2384      44210.988      35.359822      35.359822      35.359822      1.300037       11315.421      12423.667      11496.648    
     70000   35000          854.72786      10367.985      33459.613      26781.375      10433.165      16348.21       4307.1602      4244.1365      4575.6256      563.35941     -124.88782      2782.8165      44166.365      35.347922      35.347922      35.347922      1.3013505      10160.344      14126.494      6817.1189    
     71000   35500          861.16941      13408.783      35356.48       26763.493      10511.793      16251.7        4235.6697      4360.6436      4590.9751      584.51695     -101.11441      2581.0094      43941.905      35.287939      35.287939      35.287939      1.3079979      15418.932      11244.314      13563.102    
     72000   36000          867.43766      11194.556      34078.25       26906.709      10588.306      16318.403      4323.5392      4274.543       4500.4551      564.11071     -7.9030208      2663.6583      43926.811      35.283898      35.283898      35.283898      1.3084473      12628.849      10643.851      10310.969    
     73000   36500          853.97775      17658.266      37923.326      26558.131      10424.009      16134.123      4363.1674      4111.1798      4415.5516      582.15313     -46.949435      2709.0202      44131.93       35.338733      35.338733      35.338733      1.3023658      15627.664      19036.43       18310.703    
     74000   37000          862.57202      12466.209      34687.879      26721.417      10528.914      16192.503      4145.0262      4261.8648      4468.9646      563.64013     -25.125278      2778.1326      43818.269      35.254812      35.254812      35.254812      1.3116885      14681.364      11754.231      10963.033    
     75000   37500          848.65205      13430.725      35725.548      27109.894      10359.001      16750.893      4356.5645      4320.1042      4553.0706      581.18487     -45.078769      2985.0478      43985.84       35.299696      35.299696      35.299696      1.3066914      13658.274      13322.031      13311.871    
     76000   38000          847.00162      13291.234      34419.367      26002.974      10338.855      15664.118      4233.8626      4138.6214      4480.3645      553.53071     -79.514178      2337.2533      43419.502      35.147541      35.147541      35.147541      1.3237351      10007.016      15829.422      14037.263    
     77000   38500          844.16014      12746.955      34348.285      26225.794      10304.171      15921.624      4178.3069      4280.1468      4630.2655      562.55577     -126.6916       2397.0404      43692.496      35.221049      35.221049      35.221049      1.3154643      13655.993      9657.1866      14927.685    
     78000   39000          855.81775      11091.775      33409.836      26346.965      10446.469      15900.496      4149.9184      4278.599       4673.9812      577.83412     -85.662499      2305.8258      43662.076      35.212873      35.212873      35.212873      1.3163808      11459.906      9399.6604      12415.76     
     79000   39500          846.78072      13928.164      35467.922      26637.082      10336.159      16300.924      4390.5737      4367.2288      4488.0498      545.10979     -70.808295      2580.7699      43474.262      35.162311      35.162311      35.162311      1.3220677      16540.037      12519.13       12725.326    
     80000   40000          853.59119      14711.21       36071.693      26757.073      10419.29       16337.782      4259.5645      4310.8981      4538.6815      556.08697     -109.72229      2782.2736      43415.105      35.146355      35.146355      35.146355      1.3238692      14038.234      15345.204      14750.193    
     81000   40500          857.86761      14760.23       36050.905      26695.282      10471.49       16223.792      4156.7249      4279.9724      4586.302       553.24367     -58.059247      2705.608       43461.399      35.158842      35.158842      35.158842      1.322459       13829.797      16165.081      14285.811    
     82000   41000          847.52678      13416.095      34817.818      26310.719      10345.265      15965.454      4172.9655      4285.2259      4614.8729      570.18351     -90.934904      2413.141       43478.99       35.163585      35.163585      35.163585      1.321924       11399.768      13604.158      15244.36     
     83000   41500          844.8065       8359.0462      31568.107      26293.273      10312.061      15981.212      4164.2421      4330.5862      4678.7252      568.13681     -48.944904      2288.4669      43268.932      35.106866      35.106866      35.106866      1.3283415      11585.731      7344.7319      6146.6761    
     84000   42000          862.70683      14339.129      36001.57       26961.849      10530.559      16431.289      4302.2506      4240.0619      4588.3515      559.93831     -6.746605       2747.4333      43227.127      35.095556      35.095556      35.095556      1.3296262      14189.492      14471.22       14356.676    
     85000   42500          853.61984      15732.237      36865.794      26928.527      10419.64       16508.887      4368.5112      4292.2575      4507.5049      555.79786      42.235107      2742.5802      43311.238      35.118304      35.118304      35.118304      1.327044       15406.063      13275.164      18515.483    
     86000   43000          846.29056      15182.162      36147.41       26590.093      10330.176      16259.917      4256.4665      4202.077       4573.7495      577.79331     -1.5997585      2651.4305      43164.479      35.078593      35.078593      35.078593      1.331556       16281.548      16289.102      12975.837    
     87000   43500          851.05001      12574.019      34350.617      26471.864      10388.271      16083.592      4177.7836      4254.0724      4529.4886      535.04585     -89.69015       2676.8921      42964.275      35.024276      35.024276      35.024276      1.3377607      10730.969      12386.138      14604.951    
     88000   44000          852.19988      11863.007      34600.498      27147.557      10402.307      16745.25       4355.7499      4343.8597      4619.7806      592.41405     -33.502426      2866.9483      43078.144      35.05519       35.05519       35.05519       1.3342246      11660.364      14820.345      9108.3135    
     89000   44500          843.77404      17303.791      37427.942      26594.723      10299.458      16295.265      4352.1652      4275.3338      4433.4394      528.57041      44.959119      2660.7972      42927.971      35.014408      35.014408      35.014408      1.338892       15190.944      13441.74       23278.689    
     90000   45000          840.4971       17521.111      37531.703      26537.817      10259.458      16278.359      4315.625       4310.3729      4516.3179      562.87184     -81.912518      2655.0841      43024.287      35.040575      35.040575      35.040575      1.3358947      17018.837      19276.837      16267.658    
     91000   45500          844.35441      12343.025      34129.599      26370.445      10306.542      16063.903      4168.5413      4161.8286      4601.8421      549.4973      -75.489956      2657.6832      43103.933      35.062184      35.062184      35.062184      1.3334263      15269.972      11112.831      10646.272    
     92000   46000          832.13249      14548.718      35306.047      26265.281      10157.356      16107.925      4268.3261      4125.011       4727.5248      578.65702      21.121544      2387.2841      42609.32       34.927556      34.927556      34.927556      1.3489049      14694.347      14038.592      14913.216    
     93000   46500          844.7041       13631.12       35033.633      26473.171      10310.811      16162.361      4283.5767      4253.037       4646.7494      589.80104      30.672956      2358.5235      43061.558      35.050691      35.050691      35.050691      1.3347385      16064.365      10736.952      14092.044    
     94000   47000          855.95258      17180.087      37185.783      26568.426      10448.114      16120.312      4316.01        4248.8356      4643.178       555.54437     -76.335403      2433.0792      42375.534      34.86356       34.86356       34.86356       1.3563468      17232.305      22344.443      11963.513    
     95000   47500          846.82858      18244.574      37568.16       26218.122      10336.743      15881.379      4293.1198      4241.7613      4366.4892      529.42496      79.137357      2371.4464      42656.743      34.940509      34.940509      34.940509      1.3474052      18614.326      20509.7        15609.696    
     96000   48000          842.20467      18343.267      37821.707      26456.278      10280.302      16175.976      4287.8047      4183.4499      4553.7429      600.81581      74.304905      2475.8579      42484.77       34.893491      34.893491      34.893491      1.3528594      17566.586      18178.369      19284.848    
     97000   48500          861.26898      17916.297      37727.225      26670.705      10513.008      16157.697      4213.6046      4303.7429      4531.8511      564.78636     -49.538813      2593.2504      42314.998      34.84695       34.84695       34.84695       1.3582872      20657.907      16536.271      16554.711    
     98000   49000          848.28239      15760.019      36519.75       26778.704      10354.489      16424.215      4339.9715      4168.5579      4636.1073      561.7769      -19.565083      2737.3666      42381.17       34.865105      34.865105      34.865105      1.3561664      16121.774      16924.662      14233.623    
     99000   49500          839.40007      14502.585      35153.325      26171.79       10246.067      15925.723      4238.2495      4282.0652      4597.8433      585.99223     -54.080472      2275.6529      42464.82       34.888028      34.888028      34.888028      1.3534949      15567.089      12769.368      15171.298    
    100000   50000          848.2695       16689.06       36954.588      26630.769      10354.331      16276.438      4407.311       4174.041       4599.2094      568.18202     -22.825382      2550.5198      42416.282      34.874731      34.874731      34.874731      1.3550438      19017.378      17085.384      13964.417    
    101000   50500          860.1958       17763.009      38065.93       27139.057      10499.909      16639.148      4401.4368      4259.6694      4710.3233      580.74532     -15.137178      2702.1105      42179.699      34.80977       34.80977       34.80977       1.3626441      20574.501      15073.063      17641.462    
    102000   51000          852.19325      17468.553      37359.456      26579.208      10402.226      16176.982      4359.3282      4217.2163      4725.5963      576.13276     -22.413656      2321.1219      42315.153      34.846993      34.846993      34.846993      1.3582822      21867.599      14348.82       16189.239    
    103000   51500          849.42971      18255.78       37769.614      26573.814      10368.493      16205.321      4153.7187      4256.9002      4702.2529      575.22488     -32.735653      2549.96        42051.243      34.774397      34.774397      34.774397      1.3668067      18962.777      17661.327      18143.235    
    104000   52000          842.99318      17676.552      37316.595      26378.509      10289.926      16088.583      4460.4677      4169.8319      4334.0663      535.35415      67.669763      2521.1932      42429.497      34.878352      34.878352      34.878352      1.3546217      14551.72       19551.419      18926.517    
    105000   52500          853.68064      18497.315      37964.042      26651.238      10420.382      16230.856      4186.8171      4275.0324      4533.7159      561.76647     -5.6163101      2679.1402      41935.876      34.742567      34.742567      34.742567      1.3705668      18496.292      20510.309      16485.342    
    106000   53000          845.04463      20663.461      39404.809      26711.047      10314.967      16396.08       4363.1503      4260.7345      4550.4113      609.47367      0.28970471     2612.0207      42122.232      34.793954      34.793954      34.793954      1.3645032      22205.327      18983.772      20801.285    
    107000   53500          858.12909      19621.275      38205.057      26195.695      10474.682      15721.014      4256.3547      4259.463       4536.269       566.94611      14.32085       2087.6601      41967.856      34.751397      34.751397      34.751397      1.3695224      16148.277      20820.024      21895.525    
    108000   54000          857.32212      17291.063      37455.687      26888.023      10464.831      16423.192      4240.1625      4329.7224      4530.325       569.22479      90.39894       2663.3581      41906.502      34.734453      34.734453      34.734453      1.3715275      18786.098      15718.938      17368.153    
    109000   54500          864.44438      17256.387      37285.749      26762.694      10551.769      16210.925      4337.2554      4295.8907      4580.6874      579.86925     -38.713885      2455.9362      41813.46       34.708728      34.708728      34.708728      1.3745793      17801.704      18490.778      15476.678    
    110000   55000          870.91379      15165.533      35948.031      26673.486      10630.737      16042.749      4297.9481      4287.0957      4602.7013      551.63439      52.325778      2251.0433      41933.303      34.741857      34.741857      34.741857      1.3706509      13538.659      15026.955      16930.985    
    111000   55500          858.8038       20330.376      39276.654      26959.083      10482.917      16476.166      4339.6425      4302.4711      4544.7609      551.79682      80.687476      2656.8072      41543.565      34.633888      34.633888      34.633888      1.3835095      17935.119      24364.233      18691.775    
    112000   56000          855.1175       18151.625      37786.914      26746.313      10437.921      16308.392      4275.9011      4163.1863      4623.6433      571.10878      13.101379      2661.4515      41706.263      34.679042      34.679042      34.679042      1.3781124      17120.286      18067.491      19267.099    
    113000   56500          855.74872      19830.632      38412.589      26381.636      10445.626      15936.01       4272.8369      4177.3083      4470.5519      576.37501     -53.77671       2492.7145      41599.449      34.649411      34.649411      34.649411      1.381651       20151.156      19921.246      19419.494    
    114000   57000          851.51353      21845.541      39921.981      26642.882      10393.929      16248.953      4343.0838      4229.9039      4546.0916      579.23423      7.6817594      2542.9577      41680.211      34.67182       34.67182       34.67182       1.3789738      21292.02       20150.599      24094.005    
    115000   57500          858.0566       21767.774      40242.362      27076.893      10473.797      16603.096      4431.5948      4219.2766      4546.8743      590.35937      105.56283      2709.4284      41471.181      34.613762      34.613762      34.613762      1.3859243      20377.967      23891.153      21034.203    
    116000   58000          854.71881      19482.132      38279.43       26421.92       10433.054      15988.865      4236.2281      4147.9406      4630.0771      580.46308      37.890895      2356.2656      41733.148      34.686492      34.686492      34.686492      1.3772246      16226.64       20827.984      21391.771    
    117000   58500          841.04644      16910.908      36426.366      26277.253      10266.164      16011.09       4296.6567      4074.154       4676.0929      560.24391      99.60624       2304.3358      41151.462      34.524581      34.524581      34.524581      1.396692       17964.899      17925.569      14842.255    
    118000   59000          851.09407      17862.646      37557.349      26700.659      10388.809      16311.85       4321.7184      4179.4169      4537.2437      541.25934      35.092347      2697.1191      41675.011      34.670378      34.670378      34.670378      1.3791458      17444.722      17741.243      18401.974    
    119000   59500          847.83169      19789.759      38017.774      26085.746      10348.987      15736.759      4250.7078      4272.8166      4415.0946      558.92253     -8.6030477      2247.8204      41342.609      34.577954      34.577954      34.577954      1.3902345      21998.725      20032.801      17337.751    
    120000   60000          847.12092      19783.928      38789.86       26858.079      10340.311      16517.768      4339.0518      4236.8273      4541.5602      551.99329      90.720023      2757.6151      41353.939      34.581112      34.581112      34.581112      1.3898536      23234.03       20402.109      15715.644    
    121000   60500          844.35259      22244.165      40021.559      26613.904      10306.52       16307.384      4395.724       4339.1089      4314.2393      559.95418      220.52929      2477.828       41329.566      34.574317      34.574317      34.574317      1.3906732      19387.579      25074.392      22270.525    
    122000   61000          846.98375      16946.067      36770.282      26575.537      10338.637      16236.9        4096.5667      4174.7082      4632.4437      564.32402      161.02849      2607.8286      41250.726      34.552319      34.552319      34.552319      1.3933311      16989.671      18640.213      15208.317    
    123000   61500          841.73515      18607.769      37985.457      26774.092      10274.57       16499.522      4310.3461      4347.2662      4412.9419      585.6527       91.324962      2751.9896      41313.151      34.569739      34.569739      34.569739      1.3912257      15984.344      21680.449      18158.514    
    124000   62000          847.60647      21344.194      39357.196      26572.354      10346.238      16226.116      4418.6771      4124.9666      4593.1115      593.94161      155.20646      2340.2123      41071.42       34.502183      34.502183      34.502183      1.399414       19603.635      19362.382      25066.564    
    125000   62500          854.53544      19646.767      38587.679      26747.218      10430.816      16316.402      4374.1116      4254.0382      4495.8138      552.33571      47.066768      2593.0364      41323.93       34.572746      34.572746      34.572746      1.3908628      18074.277      20437.433      20428.591    
    126000   63000          846.82153      23654.58       40991.184      26872.538      10336.657      16535.881      4343.7812      4289.654       4512.5749      594.86893      212.23487      2582.7668      40926.247      34.461484      34.461484      34.461484      1.4043779      24364.767      23526.661      23072.313    
    127000   63500          849.0518       21972.848      39900.062      26716.641      10363.88       16352.76       4436.2425      4252.9417      4336.4166      575.51882      174.32841      2577.3124      41140.152      34.521418      34.521418      34.521418      1.397076       20958.685      23266.495      21693.363    
    128000   64000          841.72744      19498.757      37944.714      26261.719      10274.476      15987.242      4338.2628      4181.1485      4493.5549      563.47425      112.80935      2297.9925      41083.874      34.50567       34.50567       34.50567       1.3989897      22300.901      19271.521      16923.849    
    129000   64500          847.77119      24840.807      41233.102      26387.063      10348.249      16038.814      4238.4194      4120.4162      4412.2725      547.10554      220.68564      2499.9148      40979.723      34.476487      34.476487      34.476487      1.4025453      21522.915      27244.054      25755.452    
    130000   65000          856.24294      22066.649      39792.579      26660.843      10451.658      16209.184      4097.3467      4129.8631      4502.1628      557.3149       158.20219      2764.2944      40804.671      34.427326      34.427326      34.427326      1.4085622      23490.706      18992.702      23716.538    
    131000   65500          860.26519      20695.797      39238.527      26904.439      10500.756      16403.684      4370.969       4327.5221      4544.2486      531.3247       73.809465      2555.8098      40864.762      34.444218      34.444218      34.444218      1.406491       18286.818      24567.364      19233.209    
    132000   66000          853.13563      22560.117      40098.57       26678.306      10413.729      16264.576      4521.232       4251.364       4317.7806      570.80531      144.45689      2458.9374      40789.071      34.422938      34.422938      34.422938      1.4091009      21486.969      24442.206      21751.176    
    133000   66500          855.64213      22856.595      40879.328      27228.235      10444.325      16783.91       4463.4245      4221.0928      4530.5385      582.49345      203.39177      2782.9689      40952.461      34.46884       34.46884       34.46884       1.403479       23881.497      22084.792      22603.498    
    134000   67000          852.24349      23755.284      40894.965      26729.805      10402.84       16326.965      4400.7838      4283.6987      4394.8434      562.57249      158.83976      2526.227       40887.013      34.450468      34.450468      34.450468      1.4057255      23634.175      28905.386      18726.29     
    135000   67500          846.48156      20809.837      38917.297      26478.937      10332.507      16146.43       4199.486       4193.4744      4629.0364      613.42292      91.497309      2419.5132      40984.397      34.477798      34.477798      34.477798      1.4023854      20903.487      19606.359      21919.666    
    136000   68000          836.7372       23611.222      40422.838      26438.455      10213.563      16224.892      4320.6379      4213.8084      4582.297       603.74877      176.13217      2328.2677      40611.491      34.372911      34.372911      34.372911      1.4152625      23832.605      25168.987      21832.074    
    137000   68500          855.28814      27533.332      43636.5        27268.088      10440.004      16828.084      4403.9649      4362.3888      4424.6339      600.45959      121.87371      2914.7633      40763.54       34.415755      34.415755      34.415755      1.4099835      27086.53       29747.5        25765.965    
    138000   69000          832.51214      21848.388      39504.785      26561.486      10161.99       16399.496      4295.9434      4344.7859      4486.5897      548.90349      114.21154      2609.0617      40620.915      34.375569      34.375569      34.375569      1.4149341      20309.369      20443.965      24791.829    
    139000   69500          831.1573       18612.576      37200.203      26077.056      10145.453      15931.603      4161.5785      4191.7278      4539.2602      564.11128      122.27091      2352.6547      40977.482      34.475859      34.475859      34.475859      1.402622       19066.138      18632.981      18138.61     
    140000   70000          845.57523      25381.485      41817.25       26863.531      10321.444      16542.087      4247.838       4267.0777      4501.7379      587.20718      196.00026      2742.2256      40397.669      34.312479      34.312479      34.312479      1.4227533      27259.838      23876.623      25007.993    
    141000   70500          847.89986      21281.137      39619.938      27007.591      10349.819      16657.771      4333.4467      4235.4021      4548.7753      578.43883      215.00988      2746.6984      40637.335      34.380201      34.380201      34.380201      1.4143624      19302.071      22520.661      22020.678    
    142000   71000          849.09499      21909.774      39921.714      26936.52       10364.408      16572.112      4309.3051      4327.5438      4481.0788      561.43832      210.68911      2682.057       40638.22       34.38045       34.38045       34.38045       1.4143316      21673.499      22279.685      21776.138    
    143000   71500          848.78741      24867.481      41225.042      26526          10360.653      16165.347      4219.3868      4233.8959      4361.7         579.47367      249.10316      2521.7877      40530.441      34.350029      34.350029      34.350029      1.4180926      24630.753      25307.043      24664.647    
    144000   72000          845.60538      26847.296      42246.32       26412.864      10321.812      16091.052      4224.4439      4282.9682      4493.8541      565.48997      270.18194      2254.114       40438.894      34.324147      34.324147      34.324147      1.4213029      28527.155      25486.751      26527.981    
    145000   72500          846.18146      23615.589      40804.656      26841.551      10328.844      16512.707      4392.4448      4241.866       4611.537       550.0476       163.85074      2552.9612      40542.202      34.353351      34.353351      34.353351      1.4176812      24374.41       24181.531      22290.825    
    146000   73000          833.77807      26165.004      42139.214      26757.085      10177.443      16579.642      4281.361       4306.2689      4588.9178      595.87968      221.48292      2585.7318      40310.644      34.287823      34.287823      34.287823      1.4258249      25527.41       27374.879      25592.724    
    147000   73500          837.73577      28698.034      43659.225      26839.666      10225.752      16613.914      4278.1251      4383.9059      4378.1276      552.41083      436.53248      2584.8119      40187.091      34.252756      34.252756      34.252756      1.4302085      28506.304      28722.503      28865.295    
    148000   74000          843.89788      24810.492      41343.761      26745.243      10300.97       16444.273      4211.5841      4490.269       4349.6467      556.20629      267.42821      2569.1391      40345.723      34.297766      34.297766      34.297766      1.4245852      23314.886      26057.897      25058.693    
    149000   74500          863.83731      25924.67       42445.356      27295.188      10544.359      16750.83       4370.3811      4262.316       4538.7509      566.04716      244.85042      2768.4843      40070.827      34.219692      34.219692      34.219692      1.4343582      30011.567      24369.097      23393.347    
    150000   75000          860.8393       22815.627      40363.012      26904.861      10507.764      16397.097      4141.5258      4281.5833      4508.9351      580.30642      241.66395      2643.0829      40446.142      34.326198      34.326198      34.326198      1.4210482      18685.737      25622.18       24138.964    
    151000   75500          853.37277      27628.104      42937.54       26706.659      10416.624      16290.035      4412.4339      4152.6941      4313.6802      542.15011      280.97907      2588.0977      40282.38       34.279808      34.279808      34.279808      1.4268253      28476.418      28409.175      25998.721    
    152000   76000          844.27231      23283.721      40735.525      27023.843      10305.54       16718.303      4471.6157      4265.1045      4504.7679      579.3388       304.06689      2593.4088      40379.641      34.307375      34.307375      34.307375      1.4233885      24352.646      23234.5        22264.019    
    153000   76500          857.19216      26231.829      41963.657      26712.062      10463.245      16248.816      4357.4522      4219.6471      4544.6528      551.89004      316.48134      2258.6932      39866.747      34.1615        34.1615        34.1615        1.4417007      29378.275      25980.259      23336.953    
    154000   77000          860.29526      24829.328      41308.072      26738.846      10501.123      16237.723      4341.3932      4096.7165      4564.3907      558.44611      221.26381      2455.5131      40234.224      34.266142      34.266142      34.266142      1.428533       28545.308      20600.926      25341.749    
    155000   77500          828.83785      24507.774      40839.963      26571.934      10117.141      16454.793      4176.2775      4300.6353      4573.6253      547.5963       208.65291      2648.0059      39919.422      34.176539      34.176539      34.176539      1.4397984      26885.922      24490.567      22146.834    
    156000   78000          851.07385      28601.518      43540.066      26843.975      10388.563      16455.412      4320.825       4247.5604      4381.4933      560.20157      227.9375       2717.3946      40026.705      34.207128      34.207128      34.207128      1.4359393      28192.378      30354.811      27257.365    
    157000   78500          838.7533       23715.194      40791.855      26900.64       10238.173      16662.467      4347.5111      4276.7687      4584.0488      582.47773      251.34055      2620.3205      40164.064      34.246213      34.246213      34.246213      1.4310284      22883.228      23478.315      24784.04     
    158000   79000          864.15187      26851.413      42736.352      27105.308      10548.198      16557.11       4205.8605      4255.7851      4569.1339      578.00846      357.78382      2590.5382      39915.81       34.175508      34.175508      34.175508      1.4399287      25407.75       29228.571      25917.919    
    159000   79500          880.39827      28010.057      43472.962      27181.107      10746.509      16434.598      4311.6797      4140.3873      4529.2617      615.10732      287.08098      2551.0813      39882.342      34.165954      34.165954      34.165954      1.441137       27277.413      29025.881      27726.876    
    160000   80000          866.68954      28756.074      43431.43       26620.881      10579.174      16041.707      4274.4833      4133.0978      4446.2593      602.27982      255.50961      2330.0774      40084.496      34.223583      34.223583      34.223583      1.4338691      26071.623      31895.273      28301.325    
    161000   80500          847.54364      28440.649      43059.871      26536.429      10345.471      16190.958      4245.2481      4241.964       4386.4802      551.13865      386.15982      2379.9668      39836.863      34.152962      34.152962      34.152962      1.4427822      28474.635      28836.842      28010.47     
    162000   81000          853.18215      28590.43       43959.238      27300.639      10414.297      16886.342      4241.4412      4302.3553      4696.493       597.99969      244.02929      2804.0232      39952.311      34.185922      34.185922      34.185922      1.4386131      30368.369      29816.961      25585.96     
    163000   81500          857.89194      26500.345      42403.578      27028.962      10471.787      16557.176      4347.771       4291.6866      4486.7724      577.61307      379.66392      2473.6686      39781.104      34.13702       34.13702       34.13702       1.4448045      26021.291      26834.781      26644.964    
    164000   82000          868.75983      33224.692      46588.627      27423.351      10604.445      16818.907      4313.3917      4338.135       4415.4502      584.53837      403.57776      2763.8137      39552.89       34.071617      34.071617      34.071617      1.4531408      30833.735      30659.216      38181.123    
    165000   82500          843.85889      27940.184      43182.732      26907.811      10300.494      16607.317      4327.6315      4319.8216      4542.573       592.02843      318.04896      2507.2137      39940.522      34.18256       34.18256       34.18256       1.4390377      32096.126      30199.601      21524.826    
    166000   83000          858.0276       26827.259      42547.172      26957.314      10473.443      16483.871      4138.3246      4273.7127      4421.454       575.67265      265.3541       2809.353       39846.482      34.155711      34.155711      34.155711      1.442434       27621.731      28431.465      24428.58     
    167000   83500          832.56556      27814.397      42814.17       26795.743      10162.643      16633.1        4290.9461      4193.1595      4564.2937      580.70093      357.48476      2646.5156      39488.836      34.053214      34.053214      34.053214      1.4554979      26315.433      23962.528      33165.232    
    168000   84000          841.778        27516.837      42537.014      26551.165      10275.093      16276.071      4337.603       4207.9392      4420.3409      579.05441      334.9093       2396.2245      39834.677      34.152338      34.152338      34.152338      1.4428614      28605.606      26967.025      26977.88     
    169000   84500          850.2068       25124.029      41300.142      26765.807      10377.979      16387.828      4224.9792      4183.0909      4654.0681      579.56341      344.1564       2401.9706      39667.058      34.104367      34.104367      34.104367      1.4489585      26323.201      23954.263      25094.622    
    170000   85000          862.20301      30941.4        44928.067      27100.709      10524.41       16576.299      4241.0877      4124.0089      4567.1218      616.35596      424.5712       2603.1535      39506.734      34.058358      34.058358      34.058358      1.4548385      32604.486      29492.498      30727.218    
    171000   85500          826.51446      26541.31       42392.718      27052.035      10088.78       16963.255      4203.6989      4376.3923      4620.6254      622.90566      370.96744      2768.6651      39632.043      34.094329      34.094329      34.094329      1.4502386      25258.384      26765.153      27600.391    
    172000   86000          831.12215      28805.387      43520.095      26843.254      10145.024      16698.23       4193.3604      4302.3904      4540.4091      565.73832      340.82138      2755.5108      39697.595      34.113117      34.113117      34.113117      1.4478438      27596.816      31225.675      27593.669    
    173000   86500          841.12504      31546.815      45166.485      27011.45       10267.123      16744.327      4430.6762      4282.1896      4415.0094      548.30594      422.33112      2645.8147      39460.781      34.045148      34.045148      34.045148      1.4565327      31527.177      34698.304      28414.965    
    174000   87000          848.03463      30037.948      44350.195      27092.962      10351.464      16741.497      4464.8565      4119.8884      4444.9171      559.61281      500.23738      2651.9853      39393.54       34.025799      34.025799      34.025799      1.4590189      31968.787      31038.294      27106.763    
    175000   87500          851.47115      26259.894      42325.876      27171.264      10393.412      16777.852      4358.6016      4186.3315      4630.4369      595.99385      437.26654      2569.2217      39570.901      34.076788      34.076788      34.076788      1.4524794      27424.242      23971.363      27384.077    
    176000   88000          856.54931      31818.357      45571.865      27326.404      10455.398      16871.005      4201.5312      4346.2717      4372.8134      596.71105      506.32916      2847.3489      39318.887      34.004292      34.004292      34.004292      1.461789       32684.698      34317.413      28452.96     
    177000   88500          840.82015      25834.563      41416.725      26482.973      10263.402      16219.572      4327.6306      4220.725       4497.536       586.73457      328.55758      2258.3878      39636.193      34.095519      34.095519      34.095519      1.4500868      26659.711      27529.136      23314.841    
    178000   89000          842.17112      34180.635      46609.322      26959.445      10279.892      16679.553      4276.5333      4140.2804      4316.9171      559.7198       523.95272      2862.1499      39418.838      34.033081      34.033081      34.033081      1.4580825      37040.698      38901.69       26599.515    
    179000   89500          845.6119       26320.118      42546.402      27471.64       10321.892      17149.748      4343.6674      4307.0939      4630.3325      608.82005      467.19099      2792.6436      39272.336      33.990867      33.990867      33.990867      1.4635218      23260.248      28282.181      27417.925    
    180000   90000          853.74752      26975.302      42393.309      26798.983      10421.198      16377.785      4289.6698      4252.0178      4451.827       551.42277      368.34         2464.5078      39639.155      34.096369      34.096369      34.096369      1.4499784      30113.833      25514.525      25297.55     
    181000   90500          838.14941      33284.479      46240.775      27160.83       10230.801      16930.029      4309.8167      4161.7229      4417.392       535.09865      590.34677      2915.6517      39306.056      34.000593      34.000593      34.000593      1.4622662      33576.725      35843.769      30432.943    
    182000   91000          839.12497      36348.843      47730.187      26918.547      10242.709      16675.838      4351.4054      4311.1888      4186.871       554.80501      516.87679      2754.6908      39259.054      33.987035      33.987035      33.987035      1.4640169      41922.665      34098.709      33025.155    
    183000   91500          872.16001      32380.875      45461.225      26857.265      10645.949      16211.316      4288.1554      4262.0716      4275.9043      595.73607      365.81238      2423.6359      39394.984      34.026215      34.026215      34.026215      1.4589654      32460.952      34022.669      30659.006    
    184000   92000          840.89685      28279.751      43544.579      27290.496      10264.338      17026.158      4290.9781      4295.8133      4558.1834      576.42625      483.16391      2821.5933      39410.414      34.030657      34.030657      34.030657      1.4583942      30275.538      26811.491      27752.222    
[...]
    247000   123500         863.26447      39074.229      49225.799      27712.792      10537.366      17175.426      4214.3797      4207.0399      4509.5588      604.80799      972.20222      2667.4374      37751.552      33.546324      33.546324      33.546324      1.5224783      38813.449      40559.674      37849.562    
    248000   124000         858.87566      41803.579      50760.605      27604.211      10483.795      17120.416      4279.2567      4261.8183      4403.9923      593.75964      813.99904      2767.5903      37982.329      33.614542      33.614542      33.614542      1.5132279      40588.821      44517.422      40304.493    
    249000   124500         846.72438      39049.42       48861.687      27339.038      10335.471      17003.567      4353.3455      4311.5307      4365.5354      545.30439      811.96063      2615.8906      37792.466      33.558438      33.558438      33.558438      1.5208301      38412.509      39170.345      39565.405    
    250000   125000         845.1642       39160.129      49249.355      27626.29       10316.427      17309.863      4404.3384      4361.7375      4390.799       555.1879       829.18526      2768.6151      37861.45       33.578845      33.578845      33.578845      1.5180591      38622.04       40021.31       38837.038    
    251000   125500         860.23592      40233.601      49894.857      27723.389      10500.399      17222.99       4304.9964      4278.0496      4560.2179      613.177        936.37301      2530.1764      37785.89       33.556492      33.556492      33.556492      1.5210947      37110.965      41605.511      41984.327    
    252000   126000         837.88462      42725.868      51048.383      27519.051      10227.569      17291.482      4364.9929      4248.9567      4370.1542      591.03962      1073.4192      2642.9195      37760.94       33.549105      33.549105      33.549105      1.5220998      41393.034      45656.956      41127.615    
    253000   126500         855.4143       45136.878      52451.728      27650.155      10441.544      17208.612      4241.078       4214.5896      4458.2507      598.13733      1046.5542      2650.0017      37676.609      33.524111      33.524111      33.524111      1.5255067      48528.922      42981.577      43900.136    
    254000   127000         853.99757      41172.559      50019.324      27274.033      10424.251      16849.782      4266.7292      4381.0911      4336.5494      560.19492      945.34266      2359.8749      37879.807      33.58427       33.58427       33.58427       1.5173235      38492.455      43981.92       41043.303    
    255000   127500         844.21177      43804.176      51494.623      27487.379      10304.801      17182.578      4299.8823      4334.9924      4326.0974      556.97306      1047.6503      2616.9826      37579.492      33.495282      33.495282      33.495282      1.529449       44476.74       44859.718      42076.069    
    256000   128000         841.34635      42350.848      50708.239      27554.094      10269.824      17284.27       4327.5681      4191.3617      4381.334       564.19871      1150.6361      2669.1711      37487.868      33.468038      33.468038      33.468038      1.5331872      39378.169      46339.523      41334.851    
    257000   128500         853.46459      45281.231      52258.836      27392.469      10417.745      16974.725      4416.3754      4345.3481      4250.4141      549.40009      950.83613      2462.3509      37654.615      33.517586      33.517586      33.517586      1.5263977      46886.169      45068.773      43888.752    
    258000   129000         842.38256      39256.56       49003.702      27421.683      10282.473      17139.21       4287.5277      4312.6601      4488.7197      581.48773      983.49796      2485.3167      37696.753      33.530085      33.530085      33.530085      1.5246915      38127.877      40066.107      39575.696    
    259000   129500         845.34995      42093.084      50646.588      27569.502      10318.694      17250.808      4186.3258      4194.6738      4596.7349      552.17905      951.77983      2769.1147      37591.903      33.498969      33.498969      33.498969      1.5289441      40188.183      42259.47       43831.6      
    260000   130000         835.06029      38415.472      48687.252      27575.875      10193.094      17382.781      4395.2313      4157.1904      4595.8833      567.9403       983.15987      2683.3759      37682.046      33.525724      33.525724      33.525724      1.5252866      38852.314      39133.463      37260.639    
    261000   130500         862.89189      43099.907      51526.094      27858.794      10532.818      17325.976      4395.4781      4299.1845      4475.2953      589.11374      946.7071       2620.1972      37652.731      33.517027      33.517027      33.517027      1.5264741      40121.808      41848.779      47329.132    
    262000   131000         856.35026      43920.312      51682.753      27669.153      10452.969      17216.184      4389.1061      4288.7423      4449.1485      600.13829      1094.5945      2394.4547      37490.046      33.468686      33.468686      33.468686      1.5330981      42891.975      43538.692      45330.27     
    263000   131500         850.15275      43017.962      51362.377      27745.07       10377.319      17367.751      4448.3274      4441.5691      4325.9932      576.20406      936.57155      2639.0853      37644.771      33.514665      33.514665      33.514665      1.5267969      45888.547      38373.351      44791.988    
    264000   132000         857.09741      42845.716      51143.788      27603.838      10462.088      17141.749      4314.778       4170.8296      4346.3375      585.54582      954.5335       2769.7247      37672.31       33.522836      33.522836      33.522836      1.5256808      44332.911      42366.131      41838.107    
    265000   132500         858.29755      44291.169      51990.21       27805.992      10476.738      17329.255      4323.8057      4275.8442      4428.803       553.4169       1075.9871      2671.3977      37440.274      33.453868      33.453868      33.453868      1.5351362      40728.486      43295.588      48849.431    
    266000   133000         869.5926       46228.613      53267.352      27988.088      10614.61       17373.478      4276.1917      4253.008       4435.4491      606.85255      1164.6859      2637.2905      37495.372      33.470271      33.470271      33.470271      1.5328803      46982.359      44950.042      46753.438    
    267000   133500         840.74071      44435.342      52183.452      28014.086      10262.432      17751.655      4361.9917      4218.928       4626.9108      602.47255      1179.6207      2761.7311      37295.878      33.410805      33.410805      33.410805      1.5410797      44056.679      43616.073      45633.273    
    268000   134000         865.06201      46240.972      53166.607      27955.692      10559.308      17396.384      4470.2725      4146.5372      4469.2106      603.10843      1076.1477      2631.1075      37383.999      33.437099      33.437099      33.437099      1.537447       43480.916      49999.771      45242.23     
    269000   134500         838.83853      44624.05       52069.415      27635.403      10239.213      17396.19       4291.8362      4367.9839      4469.8808      584.87747      1031.7053      2649.9064      37544.81       33.484974      33.484974      33.484974      1.5308619      42313.325      47119.647      44439.176    
    270000   135000         851.06509      41227.273      50197.739      27638.443      10388.456      17249.988      4278.4892      4224.0847      4528.298       601.83284      932.14296      2685.1402      37520.19       33.477654      33.477654      33.477654      1.5318664      38170.378      44253.018      41258.424    
    271000   135500         858.15846      44623.777      52264.676      27975.271      10475.04       17500.231      4213.495       4281.7036      4540.3339      563.16251      1011.5393      2889.9969      37322.837      33.418854      33.418854      33.418854      1.5399665      45306.27       42472.505      46092.555    
    272000   136000         858.54613      46694.031      53462.712      28006.65       10479.772      17526.878      4525.7685      4410.4489      4324.6049      562.45968      1040.2556      2663.3406      37381.262      33.436283      33.436283      33.436283      1.5375596      46034.989      47086.288      46960.818    
    273000   136500         860.25628      49643.284      55501.406      28476.507      10500.647      17975.86       4448.8022      4359.0384      4376.8369      574.30228      1164.0213      3052.8584      37327.396      33.420214      33.420214      33.420214      1.5397784      48231.863      48990.509      51707.479    
    274000   137000         839.75839      45409.16       52400.985      27727.109      10250.441      17476.668      4340.3792      4142.7166      4464.9996      579.20561      1173.0155      2776.3511      37257.87       33.399452      33.399452      33.399452      1.5426518      43518.968      48802.363      43906.148    
    275000   137500         847.36807      47704.085      53562.57       27666.62       10343.328      17323.292      4424.2447      4283.7587      4382.2694      587.74108      1128.3989      2516.8787      37222.059      33.388748      33.388748      33.388748      1.5441359      47182.977      50525.1        45404.179    
    276000   138000         864.35655      46002.248      53126.406      28039.281      10550.697      17488.585      4485.7006      4304.4893      4476.7085      579.57802      1021.0841      2621.0242      37393.485      33.439927      33.439927      33.439927      1.537057       46103.971      43338.928      48563.846    
    277000   138500         865.67674      46384.837      53002.343      27773.172      10566.811      17206.36       4188.8136      4334.0087      4493.5666      581.68362      1056.177       2552.111       37295.038      33.410555      33.410555      33.410555      1.5411144      42493.13       48046.27       48615.112    
    278000   139000         853.86743      46384.399      53012.821      27791.916      10422.662      17369.254      4327.1011      4237.2252      4397.5922      586.04854      1063.2303      2758.0565      37283.172      33.407011      33.407011      33.407011      1.5416049      46596.474      46146.851      46409.871    
    279000   139500         849.94771      47233.806      53300.35       27679.063      10374.816      17304.247      4183.6314      4377.9663      4370.6         556.76355      1146.5901      2668.6956      37193.933      33.380336      33.380336      33.380336      1.5453036      46685.143      51849.851      43166.424    
    280000   140000         860.82277      47152.885      53555.624      27929.294      10507.562      17421.732      4459.705       4245.7529      4451.9925      620.51326      1058.8696      2584.8992      37265.097      33.401611      33.401611      33.401611      1.5423526      48444.158      50448.811      42565.686    
    281000   140500         876.9591       51304.841      55827.807      28038.567      10704.529      17334.038      4491.3579      4206.9246      4424.6913      571.23129      1169.3011      2470.5318      37140.046      33.364208      33.364208      33.364208      1.5475457      54042.725      47406.915      52464.884    
    282000   141000         865.89411      48462.979      54381.406      28212.873      10569.465      17643.408      4261.4883      4251.5664      4529.7103      571.62211      1261.5565      2767.4648      37024.856      33.329679      33.329679      33.329679      1.5523604      47957.579      50903.937      46527.421    
    283000   141500         839.94456      47406.48       53420.946      27720.563      10252.714      17467.849      4326.4408      4429.7125      4299.8179      617.74287      1273.5102      2520.6252      37172.862      33.374031      33.374031      33.374031      1.5461795      47614.039      48298.446      46306.955    
    284000   142000         848.59702      45396.634      52434.89       27760.837      10358.329      17402.508      4397.8763      4202.3248      4524.5912      611.36965      1160.5933      2505.7527      37268.417      33.402603      33.402603      33.402603      1.5422152      43133.852      44738.079      48317.971    
    285000   142500         847.50437      45069.755      52384.772      27939.599      10344.992      17594.607      4243.7558      4144.7411      4560.497       590.20486      1219.5741      2835.8345      37190.5        33.379309      33.379309      33.379309      1.5454463      45567.368      47242.667      42399.231    
    286000   143000         848.65812      50035.514      54598.189      27552.266      10359.075      17193.191      4250.4041      4198.5917      4308.5805      571.33077      1256.5811      2607.7029      37063.596      33.341299      33.341299      33.341299      1.5507378      43600.734      49646.188      56859.62     
    287000   143500         833.50747      46711.461      52739.002      27359.528      10174.14       17185.388      4187.8132      4282.1178      4360.2697      555.92731      1237.1305      2562.1293      37254.89       33.398561      33.398561      33.398561      1.5427752      46633.549      45280.349      48220.484    
    288000   144000         833.03901      51499.022      55666.023      27896.667      10168.422      17728.246      4452.0299      4325.5005      4367.0151      592.63778      1284.6627      2706.3997      36973.531      33.314271      33.314271      33.314271      1.5545153      58641.507      47952.82       47902.739    
    289000   144500         852.00115      52516.412      56175.637      27933.677      10399.882      17533.795      4316.4579      4376.0838      4456.9181      614.90018      1314.1339      2455.3016      36874.31       33.284443      33.284443      33.284443      1.5586982      51071.844      52369.843      54107.548    
    290000   145000         853.63915      50979.672      55557.193      28048.867      10419.876      17628.991      4534.7241      4225.1577      4448.1216      584.57081      1271.4557      2564.9614      36999.106      33.32195       33.32195       33.32195       1.5534407      49350.217      55545.291      48043.507    
    291000   145500         862.17697      51980.043      56539.963      28511.423      10524.092      17987.331      4444.0949      4347.3839      4401.1865      602.88491      1271.4607      2920.3198      36973.278      33.314195      33.314195      33.314195      1.5545259      56325.729      50221.874      49392.528    
    292000   146000         852.116        48580.456      54219.732      28037.229      10401.283      17635.946      4423.0923      4180.8851      4437.837       543.62057      1308.68        2741.8306      36955.04       33.308716      33.308716      33.308716      1.5552931      44813.968      50717.422      50209.98     
    293000   146500         844.99588      53008.52       56700.587      28187.535      10314.372      17873.163      4366.6965      4467.2531      4305.1911      560.12864      1284.701       2889.1923      36882.653      33.286954      33.286954      33.286954      1.5583456      54122.656      51914.5        52988.404    
    294000   147000         858.7062       46591.936      53276.671      28134.251      10481.726      17652.525      4423.3193      4345.1395      4331.9588      557.18984      1239.3035      2755.6141      37001.594      33.322697      33.322697      33.322697      1.5533363      47844.465      46245.558      45685.784    
    295000   147500         873.03741      48564.67       54406.74       28144.971      10656.659      17488.313      4224.5869      4331.988       4440.4947      572.62762      1203.5008      2715.1147      37078.968      33.345908      33.345908      33.345908      1.5500949      47009.598      53750.879      44933.534    
    296000   148000         870.8973       51900.018      56244.642      28284.431      10630.536      17653.895      4379.173       4360.732       4460.1609      601.39239      1246.7322      2605.7045      36940.013      33.304201      33.304201      33.304201      1.5559258      50789.064      55477.504      49433.486    
    297000   148500         859.35931      50498.781      55411.52       28254.963      10489.698      17765.265      4356.1522      4438.7619      4374.9774      592.30383      1350.2796      2652.7895      36873.804      33.284291      33.284291      33.284291      1.5587196      48400.773      53677.799      49417.77     
    298000   149000         854.64238      46544.497      53150.761      28069.142      10432.121      17637.021      4298.3684      4334.5504      4373.4393      575.10395      1325.2088      2730.35        36949.736      33.307122      33.307122      33.307122      1.5555164      46487.882      47049.679      46095.93     
    299000   149500         843.47419      48388.837      53725.368      27536.61       10295.798      17240.812      4303.462       4286.5367      4357.5229      566.4045       1197.3752      2529.5107      37110.246      33.355281      33.355281      33.355281      1.5487884      51326.512      47040.986      46799.015    
    300000   150000         852.17587      43935.238      51531.686      27791.863      10402.014      17389.849      4297.7975      4114.0385      4628.1912      600.30359      1172.1929      2577.3253      37050.034      33.337232      33.337232      33.337232      1.5513054      49482.063      42153.04       40170.611    
Loop time of 2301.99 on 3 procs for 300000 steps with 4096 atoms

Performance: 5.630 ns/day, 4.263 hours/ns, 130.322 timesteps/s, 533.798 katom-step/s
99.0% CPU use with 3 MPI tasks x 1 OpenMP threads

MPI task timing breakdown:
Section |  min time  |  avg time  |  max time  |%varavg| %total
---------------------------------------------------------------
Pair    | 1348.7     | 1401.3     | 1463.8     | 126.9 | 60.87
Bond    | 590.47     | 595.57     | 604.45     |  25.8 | 25.87
Neigh   | 142.71     | 142.75     | 142.81     |   0.4 |  6.20
Comm    | 80.793     | 139.43     | 183.18     | 365.1 |  6.06
Output  | 0.55078    | 0.56287    | 0.57471    |   1.3 |  0.02
Modify  | 15.081     | 15.245     | 15.437     |   3.8 |  0.66
Other   |            | 7.106      |            |       |  0.31

Nlocal:        1365.33 ave        1391 max        1347 min
Histogram: 1 0 1 0 0 0 0 0 0 1
Nghost:        10591.3 ave       10638 max       10544 min
Histogram: 1 0 0 0 0 1 0 0 0 1
Neighs:         476371 ave      495566 max      463454 min
Histogram: 1 0 1 0 0 0 0 0 0 1

Total # of neighbors = 1429114
Ave neighs/atom = 348.90479
Ave special neighs/atom = 5.6289062
Neighbor list builds = 12216
Dangerous builds = 0

unfix npt_comp

undump dump_comp

write_dump all custom npt_compress_last.dump id type mol x y z xu yu zu vx vy vz modify sort id
write_data /home/arz2/PolyJarvis/data/PEEK1/lammps/equil/npt_compress/npt_compress_out.data
System init for write_data ...
Generated 21 of 21 mixed pair_coeff terms from sixthpower/sixthpower mixing rule

print "STAGE COMPLETE: NPT compression P=1.0->50000.0atm density target reached"
STAGE COMPLETE: NPT compression P=1.0->50000.0atm density target reached
quit
ighs:         476371 ave      495566 max      463454 min
Histogram: 1 0 1 0 0 0 0 0 0 1

Total # of neighbors = 1429114
Ave neighs/atom = 348.90479
Ave special neighs/atom = 5.6289062
Neighbor list builds = 12216
Dangerous builds = 0
System init for write_data ...
Generated 21 of 21 mixed pair_coeff terms from sixthpower/sixthpower mixing rule
STAGE COMPLETE: NPT compression P=1.0->50000.0atm density target reached
