units real
atom_style full
boundary p p p

# --- Force Field Styles ---
pair_style lj/cut 14.0
dielectric 1.000000
bond_style harmonic
angle_style harmonic
dihedral_style multi/harmonic
improper_style none
special_bonds lj 0 0 0
pair_modify mix arithmetic tail yes
neighbor 2.0 bin
neigh_modify delay 0 every 1 check yes
neigh_modify one 4000
package gpu 1 neigh no

read_data /home/arz2/PolyJarvis/data/PE1/lammps/equil/npt_pppm/npt_pppm_out.data
Reading data file ...
  orthogonal box = (0.86126289 0.86126289 0.86126289) to (54.917109 54.917109 54.917109)
  1 by 1 by 1 MPI processor grid
  reading atoms ...
  4840 atoms
  reading velocities ...
  4840 velocities
  scanning bonds ...
  2 = max bonds/atom
  scanning angles ...
  1 = max angles/atom
  scanning dihedrals ...
  2 = max dihedrals/atom
  orthogonal box = (0.86126289 0.86126289 0.86126289) to (54.917109 54.917109 54.917109)
  1 by 1 by 1 MPI processor grid
  reading bonds ...
  4820 bonds
  reading angles ...
  4800 angles
  reading dihedrals ...
  4780 dihedrals
Finding 1-2 1-3 1-4 neighbors ...
  special bond factors lj:    0        0        0       
  special bond factors coul:  0        0        0       
     2 = max # of 1-2 neighbors
     2 = max # of 1-3 neighbors
     4 = max # of 1-4 neighbors
     6 = max # of special neighbors
  special bonds CPU = 0.001 seconds
  read_data CPU = 0.057 seconds
include /home/arz2/PolyJarvis/data/PE1/lammps/equil/emc_build.params
# LAMMPS parameters created by EMC v9.4.4, build Jul 31 2025 20:33:44

# Variables

variable	seed		index	1001
variable	ntotal		index	4840
variable	fshape		index	1
variable	output		index	emc_build
variable	field		index	trappe/2014/trappe-ua
variable	location1	index	/home/arz2/emc/field/
variable	nav		index	0.6022141179
variable	temperature	index	300
variable	radius		index	5
variable	nrelax		index	100
variable	weight_nonbond	index	0.0001
variable	weight_bond	index	0.0001
variable	weight_focus	index	1
variable	cutoff		index	14
variable	charge_cutoff	index	14
variable	kappa		index	4
variable	density1	index	0.65
variable	lprevious	index	0
variable	lphase		index	55.7783720511
variable	f_poly		index	1
variable	chem_repeat	index	*CC*
variable	chem_cap	index	*C
variable	lg_repeat	index	2
variable	lg_cap		index	1
variable	norm_poly	index	100
variable	l_poly		index	242
variable	mg_repeat	index	28.0536
variable	mg_cap		index	15.0347
variable	m_poly		index	3396.5014
variable	norm		index	242
variable	n_poly		index	20
variable	mtotal		index	67930.028
variable	nphase1		index	4840
variable	mphase1		index	67930.028
variable	vphase1		index	173539.165354
variable	lbox		index	55.7783720511
variable	lphase1		index	55.7783720511
variable	lxx		index	55.7783720511
variable	lyy		index	55.7783720511
variable	lzz		index	55.7783720511
variable	lzy		index	0
variable	lzx		index	0
variable	lyx		index	0
variable	vtotal		index	173539.165354
variable	nl_poly		index	20

# Types

variable	type_c4h2	index	1
variable	type_c4h3	index	2

variable	type_bond_c4h2_c4h2 index	1
variable	type_bond_c4h2_c4h3 index	2

variable	type_angle_c4h2_c4h2_c4h2 index	1
variable	type_angle_c4h2_c4h2_c4h3 index	2

# Clusters

variable	n0_poly		index	1
variable	n1_poly		index	20
variable	nl_poly		index	20

# Flags

variable	flag_charged	index	0

# Masses

mass		1    14.02680  # c4h2
mass		2    15.03470  # c4h3

# Potentials

pair_modify	mix arithmetic tail yes
special_bonds	lj 0 0 0 coul 0 0 0.5
Finding 1-2 1-3 1-4 neighbors ...
  special bond factors lj:    0        0        0       
  special bond factors coul:  0        0        0.5     
     2 = max # of 1-2 neighbors
     2 = max # of 1-3 neighbors
     4 = max # of 1-4 neighbors
     6 = max # of special neighbors
  special bonds CPU = 0.001 seconds

# Pair Coeffs

pair_coeff	1 1    0.09141    3.95000  # c4h2,c4h2
pair_coeff	2 2    0.19475    3.75000  # c4h3,c4h3

# Bond Coeffs

bond_coeff	1  260.00013    1.54000  # c4h2,c4h2
bond_coeff	2  260.00013    1.54000  # c4h2,c4h3

# Angle Coeffs

angle_coeff	1   62.10020  114.00000  # c4h2,c4h2,c4h2
angle_coeff	2   62.10020  114.00000  # c4h2,c4h2,c4h3

# Dihedral Coeffs

dihedral_coeff	1    2.00702   -4.01203    0.27102    6.29006    0.00000  # c4h2,c4h2,c4h2,c4h2
dihedral_coeff	2    2.00702   -4.01203    0.27102    6.29006    0.00000  # c4h2,c4h2,c4h2,c4h3


# --- Thermo Output ---
thermo_style custom step time temp press enthalpy etotal ke pe ebond eangle edihed eimp evdwl ecoul elong etail vol lx ly lz density pxx pyy pzz
thermo_modify flush yes
thermo 1000

# --- Trajectory ---
dump dump_npt all custom 1000 npt_cool_melt.dump id type mol x y z ix iy iz vx vy vz

# --- Restart Checkpointing ---
restart 10000 npt_1.rst npt_2.rst

# --- Initial Velocities (optional) ---
# Velocities read from data file

# --- SHAKE Constraints ---
# SHAKE disabled

# --- NPT Thermostat + Barostat (Nose-Hoover) ---
# T_damp = 100.0 fs  (heat bath coupling)
# P_damp = 1000.0 fs  (pressure bath coupling, ~10x T_damp typical)
# Ramp: T=620.0->550.0K  P=1.0->1.0atm
timestep 2.0
fix npt_fix all npt temp 620.0 550.0 100.0 iso 1.0 1.0 1000.0

run 500000

CITE-CITE-CITE-CITE-CITE-CITE-CITE-CITE-CITE-CITE-CITE-CITE-CITE

Your simulation uses code contributions which should be cited:

- GPU package (short-range, long-range and three-body potentials): doi:10.1016/j.cpc.2010.12.021, doi:10.1016/j.cpc.2011.10.012, doi:10.1016/j.cpc.2013.08.002, doi:10.1016/j.commatsci.2014.10.068, doi:10.1016/j.cpc.2016.10.020, doi:10.3233/APC200086

@Article{Brown11,
 author = {W. M. Brown and P. Wang and S. J. Plimpton and A. N. Tharrington},
 title = {Implementing Molecular Dynamics on Hybrid High Performance Computers---Short Range Forces},
 journal = {Comput.\ Phys.\ Commun.},
 year =    2011,
 volume =  182,
 pages =   {898--911},
 doi =     {10.1016/j.cpc.2010.12.021}
}

@Article{Brown12,
 author = {W. M. Brown and A. Kohlmeyer and S. J. Plimpton and A. N. Tharrington},
 title = {Implementing Molecular Dynamics on Hybrid High Performance Computers - Particle-Particle Particle-Mesh},
 journal = {Comput.\ Phys.\ Commun.},
 year =    2012,
 volume =  183,
 doi =     {10.1016/j.cpc.2011.10.012},
 pages =   {449--459}
}

@Article{Brown13,
 author = {W. M. Brown and Y. Masako},
 title = {Implementing Molecular Dynamics on Hybrid High Performance Computers---Three-Body Potentials},
 journal = {Comput.\ Phys.\ Commun.},
 year =    2013,
 volume =  184,
 pages =   {2785--2793},
 doi =     {10.1016/j.cpc.2013.08.002},
}

@Article{Trung15,
 author = {T. D. Nguyen and S. J. Plimpton},
 title = {Accelerating Dissipative Particle Dynamics Simulations for Soft Matter Systems},
 journal = {Comput.\ Mater.\ Sci.},
 year =    2015,
 doi =     {10.1016/j.commatsci.2014.10.068},
 volume =  100,
 pages =   {173--180}
}

@Article{Trung17,
 author = {T. D. Nguyen},
 title = {{GPU}-Accelerated {T}ersoff Potentials for Massively Parallel
    Molecular Dynamics Simulations},
 journal = {Comput.\ Phys.\ Commun.},
 year =    2017,
 doi =     {10.1016/j.cpc.2016.10.020},
 volume =  212,
 pages =   {113--122}
}

@inproceedings{Nikolskiy19,
 author = {V. Nikolskiy and V. Stegailov},
 title = {{GPU} Acceleration of Four-Site Water Models in {LAMMPS}},
 booktitle = {Proceedings of the International Conference on Parallel
    Computing (ParCo 2019), Prague, Czech Republic},
 doi =     {10.3233/APC200086},
 year =    2019
}

CITE-CITE-CITE-CITE-CITE-CITE-CITE-CITE-CITE-CITE-CITE-CITE-CITE

Generated 1 of 1 mixed pair_coeff terms from arithmetic mixing rule
Neighbor list info ...
  update: every = 1 steps, delay = 0 steps, check = yes
  max neighbors/atom: 4000, page size: 100000
  master list distance cutoff = 16
  ghost atom cutoff = 16
  binsize = 8, bins = 7 7 7
  1 neighbor lists, perpetual/occasional/extra = 1 0 0
  (1) pair lj/cut/gpu, perpetual
      attributes: full, newton on
      pair build: full/bin
      stencil: full/bin/3d
      bin: standard
Per MPI rank memory allocation (min/avg/max) = 26.65 | 26.65 | 26.65 Mbytes
   Step          Time           Temp          Press         Enthalpy        TotEng         KinEng         PotEng         E_bond        E_angle        E_dihed        E_impro         E_vdwl         E_coul         E_long         E_tail         Volume           Lx             Ly             Lz          Density          Pxx            Pyy            Pzz      
         0   0              629.30746     -199.02326      15238.577      15697.044      9077.2189      6619.8248      3059.1189      2836.8457      4990.2224      0             -4266.3622      0              0             -157.83519      157953.05      54.055846      54.055846      54.055846      0.71413915    -111.36166     -563.6851       77.976984    
      1000   2000           634.44278      648.9977       17337.528      15828.212      9151.2914      6676.9203      2984.2934      2927.7673      4942.045       0             -4177.1853      0              0             -156.34021      159463.45      54.227601      54.227601      54.227601      0.70737497     805.60728      576.82148      564.56433    
      2000   4000           616.83208      292.22256      16608.428      15915.827      8897.2721      7018.5551      3082.3801      3001.2251      5039.5556      0             -4104.6057      0              0             -153.40463      162514.97      54.57132       54.57132       54.57132       0.6940927      35.783408      638.25978      202.6245     
      3000   6000           618.82303     -143.4791       15447.931      15793.183      8925.99        6867.1927      3061.8239      2888.8661      4990.0008      0             -4073.498       0              0             -151.09848      164995.36      54.847552      54.847552      54.847552      0.68365833     57.325222     -542.57125      54.808721    
      4000   8000           620.11384      109.27096      16430.255      16162.819      8944.6087      7218.2105      3135.5584      3005.4141      4968.8758      0             -3891.6378      0              0             -148.55719      167817.86      55.158535      55.158535      55.158535      0.67216001    -480.62033      149.95064      658.48258    
      5000   10000          618.28919      648.47176      17465.674      15909.376      8918.2898      6991.0859      3077.9287      2914.6384      5024.7         0             -4026.1813      0              0             -151.4977       164560.58      54.799333      54.799333      54.799333      0.68546461    -80.754673      1032.8827      993.28726    
      6000   12000          630.52748      592.88554      17551.514      16134.019      9094.8166      7039.2023      2968.5728      3050.6798      5052.4124      0             -4032.4627      0              0             -152.07467      163936.24      54.729943      54.729943      54.729943      0.68807515     329.22336      731.11994      718.3133     
      7000   14000          620.11181     -212.90227      15482.15       15994.799      8944.5795      7050.2196      3096.4477      2937.6575      5063.7431      0             -4047.6287      0              0             -150.99689      165106.37      54.85985       54.85985       54.85985       0.68319867    -352.73455     -447.61296      161.64068    
      8000   16000          610.62857     -270.84404      15085.488      15745.398      8807.7918      6937.6065      2957.5003      2874.5998      5086.7323      0             -3981.226       0              0             -149.22523      167066.58      55.076102      55.076102      55.076102      0.67518263    -306.04393      28.21696      -534.70515    
      9000   18000          622.33178      516.5394       17123.383      15878.747      8976.6006      6902.1466      2988.9403      2961.5191      4971.8583      0             -4020.171       0              0             -150.89296      165220.1       54.872442      54.872442      54.872442      0.68272843     395.3893       145.30935      1008.9196    
     10000   20000          623.63469     -247.96339      15461.767      16065.753      8995.394       7070.3592      3058.0057      3030.5861      4939.4983      0             -3957.731       0              0             -149.26861      167018.03      55.070767      55.070767      55.070767      0.6753789      268.97949     -651.28581     -361.58386    
     11000   22000          619.66721      50.981913      16052.72       15927.589      8938.1665      6989.4226      2988.2238      2982.7287      4953.2275      0             -3934.7574      0              0             -148.13546      168295.63      55.21083       55.21083       55.21083       0.67025185    -349.40717      224.70998      277.64293    
     12000   24000          612.86605     -320.58741      15052.354      15828.615      8840.0656      6988.5494      2943.524       2951.678       5075.1724      0             -3981.825       0              0             -150.1573       166029.56      54.961908      54.961908      54.961908      0.67939984     540.549       -1007.3846     -494.9266     
     13000   26000          619.76493      444.94626      17156.247      16064.855      8939.576       7125.2788      2956.0533      3006.6912      5096.7376      0             -3934.2033      0              0             -148.22943      168188.93      55.19916       55.19916       55.19916       0.67067705     604.51326     -381.23237      1111.5579    
     14000   28000          609.77558      433.70114      16813.376      15762.649      8795.4882      6967.1603      3015.4388      2910.3318      5033.4825      0             -3992.0929      0              0             -150.07499      166120.61      54.971954      54.971954      54.971954      0.67902746    -1.5046837      1127.572       175.03611    
     15000   30000          613.80466     -449.36202      14633.937      15709.287      8853.6042      6855.6829      2969.4515      2869.174       5082.5637      0             -4065.5064      0              0             -151.93369      164088.36      54.746865      54.746865      54.746865      0.68743728    -462.74336     -353.52399     -531.81872    
     16000   32000          605.92231     -308.40738      15175.23       15932.615      8739.9081      7192.7069      3055.8297      3019.8749      5041.931       0             -3924.9288      0              0             -148.05259      168389.82      55.221129      55.221129      55.221129      0.66987691    -428.36016     -642.42748      145.5655     
     17000   34000          609.62152     -198.09501      15399.37       15875.694      8793.266       7082.4277      3055.08        2970.375       5085.8962      0             -4028.9234      0              0             -151.2094       164874.34      54.834138      54.834138      54.834138      0.68416016     7.6341365     -380.45143     -221.46773    
     18000   36000          613.05344      362.59762      16983.951      16110.678      8842.7685      7267.9095      3143.7362      3038.0746      5106.9475      0             -4020.8488      0              0             -150.96723      165138.81      54.863442      54.863442      54.863442      0.68306448     324.72204      533.17467      229.89617    
     19000   38000          610.00923     -115.65232      15522.792      15803.331      8798.8584      7004.4725      2962.7258      2995.2374      4997.7456      0             -3951.2363      0              0             -149.88849      166327.31      54.994744      54.994744      54.994744      0.67818362    -309.20974     -245.18837      207.44114    
     20000   40000          606.44469     -83.362128      15576.418      15781.212      8747.443       7033.7687      3033.9766      2926.1074      5032.2858      0             -3958.6011      0              0             -147.99941      168450.33      55.227742      55.227742      55.227742      0.66963631     272.99213     -529.68201      6.6035036    
     21000   42000          622.01425     -615.72803      14340.752      15827.951      8972.0205      6855.9309      3035.7075      2857.625       4951.7879      0             -3989.1895      0              0             -150.53157      165616.75      54.916319      54.916319      54.916319      0.68109329    -664.04606     -340.69065     -842.44738    
     22000   44000          613.55904     -229.40606      15244.292      15809.062      8850.0614      6959.0006      2917.2242      2998.2831      4931.0215      0             -3887.5281      0              0             -147.68666      168807.05      55.266699      55.266699      55.266699      0.66822124    -153.59389     -206.74973     -327.87457    
     23000   46000          613.82154      505.05258      17022.732      15804.095      8853.8477      6950.2469      2953.5509      2914.0838      5049.1113      0             -3966.4991      0              0             -150.685        165448.12      54.897674      54.897674      54.897674      0.68178748     710.26231      214.07659      590.81885    
     24000   48000          623.28569      576.45356      17369.6        15965.858      8990.3599      6975.4983      2932.7489      2975.8822      5005.4403      0             -3938.5731      0              0             -149.3086       166973.3       55.06585       55.06585       55.06585       0.67555984     1112.2199      1017.4449     -400.30412    
     25000   50000          614.76792      437.31995      16951.406      15896.938      8867.4985      7029.4392      2982.7252      2933.7558      5109.4934      0             -3996.5352      0              0             -150.79035      165332.52      54.884886      54.884886      54.884886      0.68226417     325.52871      611.60065      374.83049    
     26000   52000          624.03198     -458.47054      15063.318      16204.886      9001.1246      7203.7618      3046.3545      3019.9909      5022.6413      0             -3885.2249      0              0             -146.02169      170731.83      55.47596       55.47596       55.47596       0.66068792    -582.83368     -33.114455     -759.46349    
     27000   54000          619.37909      310.78729      16712.332      15945.454      8934.0106      7011.443       3001.8365      3000.3871      4923.6694      0             -3914.45        0              0             -147.34815      169194.86      55.30899       55.30899       55.30899       0.6666896      466.56117      512.06571     -46.265011    
     28000   56000          616.04889      382.76158      16831.752      15890.183      8885.9754      7004.2073      2918.2265      2977.926       5001.6816      0             -3893.6268      0              0             -147.80312      168674.05      55.25218       55.25218       55.25218       0.66874815     313.34191      750.35132      84.591521    
     29000   58000          618.88838     -146.12445      15537.131      15887.092      8926.9325      6960.1596      2932.1832      2969.8681      5110.0761      0             -4051.9678      0              0             -151.81348      164218.28      54.761311      54.761311      54.761311      0.68689341    -622.41821      320.79773     -136.75288    
     30000   60000          613.081        8.3813374      15687.884      15667.796      8843.1661      6824.6302      3023.8953      2919.0595      4951.1695      0             -4069.4941      0              0             -151.70257      164338.34      54.774653      54.774653      54.774653      0.68639158    -53.898635      484.77399     -405.73134    
     31000   62000          612.38822     -816.92627      13828.275      15825.968      8833.1734      6992.7947      3085.1566      2912.7398      4950.9449      0             -3956.0467      0              0             -148.6832       167675.63      55.142948      55.142948      55.142948      0.67273019     200.18098     -1482.7327     -1168.2271    
     32000   64000          608.57706     -397.52718      14596.731      15554.903      8778.2007      6776.7023      2963.3881      2837.0056      4957.2508      0             -3980.9422      0              0             -150.845        165272.63      54.878257      54.878257      54.878257      0.68251142    -1011.4101     -642.11503      460.94362    
     33000   66000          609.51991      124.36728      16177.577      15871.237      8791.8005      7079.4363      2967.1106      2988.5694      5035.7446      0             -3911.9882      0              0             -147.60822      168896.76      55.276488      55.276488      55.276488      0.66786631     329.25207     -88.439069      132.28886    
     34000   68000          607.56238     -459.53042      14711.874      15821.19       8763.5647      7057.6256      2989.0169      2950.0439      5097.1185      0             -3978.5537      0              0             -150.6145       165525.56      54.906238      54.906238      54.906238      0.68146849    -763.16241     -625.86467      10.435833    
     35000   70000          627.0241      -280.80247      15205.505      15879.084      9044.2832      6834.8005      2956.6865      2952.3527      4940.2966      0             -4014.5354      0              0             -151.57255      164479.31      54.790311      54.790311      54.790311      0.68580329    -539.52676      107.71854     -410.59917    
     36000   72000          602.77396      241.06756      16405.585      15808.754      8694.4959      7114.2579      2989.3613      2944.7218      5019.7904      0             -3839.6156      0              0             -146.85701      169760.7       55.370578      55.370578      55.370578      0.66446742    -295.6349       585.0124       433.82518    
     37000   74000          617.02185      242.46052      16644.601      16056.888      8900.0095      7156.8781      3037.286       2994.4909      5061.5982      0             -3936.497       0              0             -149.9972       166206.76      54.981455      54.981455      54.981455      0.67867549     237.63171      383.67212      106.07773    
     38000   76000          621.49077     -341.38347      15056.945      15878.569      8964.4697      6914.0996      2937.8601      3015.9693      4979.1747      0             -4018.9046      0              0             -151.06959      165026.92      54.851049      54.851049      54.851049      0.68352759    -663.00242      300.64949     -661.79748    
     39000   78000          611.62434     -705.96116      14114.312      15827.589      8822.155       7005.4339      2991.1681      2992.6762      4989.5398      0             -3967.9502      0              0             -149.81698      166406.7       55.003493      55.003493      55.003493      0.67786005    -946.66359     -633.08945     -538.13045    
     40000   80000          623.36922     -356.0787       15345.015      16194.497      8991.5647      7202.9318      3199.533       2997.7602      5033.4382      0             -4027.7996      0              0             -152.40523      163580.67      54.690344      54.690344      54.690344      0.68957083     516.71667     -487.24861     -1097.7041    
     41000   82000          608.61815      87.152971      15963.576      15754.433      8778.7933      6975.6398      3007.1251      2889.5538      5122.097       0             -4043.136       0              0             -151.51219      164544.84      54.797585      54.797585      54.797585      0.6855302     -284.97253      55.919885      490.51156    
     42000   84000          620.23605      753.21286      17816.717      15998.761      8946.3715      7052.389       3061.9823      2983.7573      4999.7359      0             -3993.0864      0              0             -150.64058      165496.9       54.903069      54.903069      54.903069      0.68158652     374.0207       714.54028      1171.0776    
     43000   86000          597.63524     -91.925131      15482.731      15707.806      8620.3743      7087.4314      3075.4999      2916.4938      5068.1698      0             -3972.7322      0              0             -148.49632      167886.65      55.166071      55.166071      55.166071      0.67188459     291.12693     -230.15255     -336.74977    
     44000   88000          619.37182      80.862097      16032.378      15833.008      8933.9058      6899.1018      2953.1489      2916.5456      4959.6228      0             -3930.2155      0              0             -147.46618      169059.44      55.29423       55.29423       55.29423       0.66722363     109.78578      645.35058     -512.55006    
     45000   90000          605.95148     -516.38302      14553.039      15816.929      8740.3289      7076.6005      3117.0086      2962.5509      4975.0767      0             -3978.0358      0              0             -148.5492       167826.89      55.159525      55.159525      55.159525      0.67212385    -520.02113     -172.5926      -856.53534    
     46000   92000          618.57714     -523.4668       14684.747      15975.427      8922.4432      7052.9836      3010.0777      2950.7413      5012.9599      0             -3920.7953      0              0             -147.46142      169064.9       55.294824      55.294824      55.294824      0.6672021     -1043.1391     -416.39801     -110.86324    
     47000   94000          612.98908      164.50149      16074.479      15677.97       8841.8402      6836.1298      2945.6048      2999.0699      4901.7491      0             -4010.294       0              0             -150.84291      165274.91      54.87851       54.87851       54.87851       0.68250198     713.76784     -94.849246     -125.41414    
     48000   96000          611.49377      190.513        16111.615      15643.357      8820.2717      6823.0852      2980.4857      2884.3025      4939.4567      0             -3981.1597      0              0             -147.92683      168532.99      55.236774      55.236774      55.236774      0.66930788     470.99934     -254.66625      355.2059     
     49000   98000          609.19949      731.52419      17290.466      15528.445      8787.1786      6741.2662      2903.4613      2893.9443      4942.3587      0             -3998.4982      0              0             -150.94728      165160.65      54.86586       54.86586       54.86586       0.68297417     213.6144       1286.4982      694.45994    
     50000   100000         607.34272     -63.745903      15364.839      15521.902      8760.3962      6761.5061      2976.7936      2802.7298      4889.7166      0             -3907.7339      0              0             -147.56561      168945.52      55.281807      55.281807      55.281807      0.66767355    -565.81908      46.553888      328.02748    
     51000   102000         605.33651     -0.52214352     15660.903      15662.157      8731.4584      6930.6986      2967.0652      2935.5386      5093.3104      0             -4065.2158      0              0             -151.37866      164689.98      54.813693      54.813693      54.813693      0.68492603     331.75767     -31.06074      -302.26336    
     52000   104000         612.38566     -57.866934      15804.993      15945.579      8833.1364      7112.4422      3097.6766      3008.348       4935.2119      0             -3928.7943      0              0             -149.65743      166584.11      55.023033      55.023033      55.023033      0.67713815     373.76525     -269.09316     -278.27289    
     53000   106000         611.67805      381.25867      16528.813      15600.665      8822.9297      6777.7351      2977.478       2876.2112      4909.5633      0             -3985.5174      0              0             -149.35177      166925.03      55.060543      55.060543      55.060543      0.67575517     58.420586      532.81773      552.53771    
     54000   108000         603.48665      716.36747      17356.416      15664.809      8704.7758      6960.0334      3054.9327      2980.4398      5013.2965      0             -4088.6356      0              0             -153.97287      161915.2       54.504105      54.504105      54.504105      0.69666376     361.89871      1332.9969      454.2068     
     55000   110000         614.37155     -506.42686      14616.636      15828.185      8861.7812      6966.4039      3127.2686      2953.037       4920.649       0             -4034.5507      0              0             -151.97894      164039.5       54.741431      54.741431      54.741431      0.68764205    -1007.743       238.54013     -750.07774    
     56000   112000         612.22619      141.77635      16260.218      15914.006      8830.8362      7083.1695      3032.8849      3016.7272      4989.7731      0             -3956.2157      0              0             -148.89128      167441.3       55.117248      55.117248      55.117248      0.67367165    -234.66727      131.6944       528.30191    
     57000   114000         598.35972     -132.24923      15564.438      15884.629      8630.8243      7253.8051      3081.5711      3062.2095      5097.6755      0             -3987.651       0              0             -150.17301      166012.19      54.959992      54.959992      54.959992      0.67947093    -490.77659     -504.3995       598.4284     
     58000   116000         624.33076     -155.27388      15620.233      15997.623      9005.4342      6992.1886      3019.7209      3023.0337      4932.7231      0             -3983.289       0              0             -149.59473      166653.93      55.030719      55.030719      55.030719      0.67685444    -519.66916      274.24697     -220.39945    
     59000   118000         606.00737      69.749017      15736.783      15571.259      8741.1351      6830.1235      3076.2119      2820.2657      5000.8769      0             -4067.2309      0              0             -153.2086       162722.91      54.594584      54.594584      54.594584      0.69320576    -530.33434      483.26465      256.31673    
     60000   120000         615.3636       441.46816      16771.991      15711.871      8876.0905      6835.7806      2938.0312      2925.9683      5018.3625      0             -4046.5814      0              0             -151.40912      164656.86      54.810017      54.810017      54.810017      0.68506382     253.34594      782.35311      288.70543    
     61000   122000         626.07966      578.41894      17310.424      15896.991      9030.6606      6866.3302      2968.5748      2899.6803      5005.7282      0             -4007.653       0              0             -148.79041      167554.82      55.129701      55.129701      55.129701      0.67321524     208.70343      1040.258       486.2954     
     62000   124000         608.74909      131.17153      16010.619      15699.251      8780.6819      6918.569       3027.6099      2973.0594      5016.8905      0             -4098.9909      0              0             -153.16958      162764.36      54.59922       54.59922       54.59922       0.6930292      326.29159      625.42985     -558.20684    
     63000   126000         614.16879     -213.12165      15488.112      16011.286      8858.8565      7152.4295      3081.067       2926.782       5045.6573      0             -3901.0768      0              0             -148.11149      168322.86      55.213808      55.213808      55.213808      0.67014341    -470.30713     -738.6517       569.59388    
     64000   128000         613.0803       439.44442      16962.399      15886.513      8843.156       7043.3567      3010.3907      2996.2548      4974.4535      0             -3937.7423      0              0             -148.50647      167875.17      55.164814      55.164814      55.164814      0.67193054     500.54418      129.52111      688.26797    
     65000   130000         611.74113     -459.08137      14651.358      15758.377      8823.8396      6934.5374      3018.6773      2970.1885      4974.3817      0             -4028.7101      0              0             -150.77955      165344.36      54.886196      54.886196      54.886196      0.6822153      101.88905     -442.09606     -1037.0371    
     66000   132000         625.87682      48.547313      16097.457      15980.166      9027.7348      6952.4315      3017.9937      2938.6976      4957.3048      0             -3961.5646      0              0             -150.49021      165662.26      54.921349      54.921349      54.921349      0.68090616     282.33525     -2.814619      -133.87869    
     67000   134000         616.29566     -436.86019      14763.251      15816.683      8889.5348      6927.1478      3022.5137      2967.9969      4916.1077      0             -3979.4704      0              0             -150.78003      165343.84      54.886138      54.886138      54.886138      0.68221746    -307.67966     -544.30701     -458.59391    
     68000   136000         607.14067      72.031247      15828.115      15655.375      8757.4819      6897.8935      3130.9024      2800.0199      5016.7042      0             -4049.733       0              0             -151.61281      164435.64      54.785461      54.785461      54.785461      0.68598543     327.58787     -208.63994      97.145809    
     69000   138000         607.47778      327.49081      16282.292      15494.908      8762.3445      6732.5636      2897.7646      2890.7377      4909.1742      0             -3965.1129      0              0             -151.22379      164858.65      54.832399      54.832399      54.832399      0.68422527     458.34424      157.69735      366.43083    
     70000   140000         613.43748      229.40851      16274.218      15724.042      8848.3079      6875.7342      2951.3216      2916.2713      4986.4533      0             -3978.312       0              0             -151.60569      164443.37      54.786319      54.786319      54.786319      0.68595321    -86.506365      652.24365      122.48824    
     71000   142000         608.82046      82.346406      15904.551      15704.295      8781.7115      6922.5832      2977.72        2943.2845      5001.8072      0             -4000.2286      0              0             -149.50888      166749.63      55.04125       55.04125       55.04125       0.67646602     163.86002      841.52026     -758.34107    
     72000   144000         605.15953      542.36832      16956.166      15645.645      8728.9057      6916.7391      2920.2243      2971.9878      4993.3641      0             -3968.8371      0              0             -150.47274      165681.5       54.923475      54.923475      54.923475      0.6808271      1121.6673      430.49094      74.94671     
     73000   146000         618.7417       303.35956      16556.445      15828.34       8924.8167      6903.5235      3021.3543      2870.8268      5076.3791      0             -4065.0367      0              0             -151.48569      164573.62      54.80078       54.80078       54.80078       0.68541029     599.91693      249.81213      60.349613    
     74000   148000         612.40815     -201.45993      15259.028      15745.704      8833.4608      6912.2434      2938.1353      2861.931       5142.603       0             -4030.4258      0              0             -150.50701      165643.78      54.919307      54.919307      54.919307      0.68098213     172.22727     -872.98796      96.380883    
     75000   150000         597.58848      471.87704      16539.912      15403.969      8619.6998      6784.2691      2936.6841      2939.2336      4915.4667      0             -4007.1153      0              0             -151.03587      165063.77      54.85513       54.85513       54.85513       0.68337502     647.54319      16.551067      751.53688    
     76000   152000         607.38476     -844.76586      13368.458      15441.724      8761.0027      6680.7215      2870.7561      2875.3999      4894.8896      0             -3960.324       0              0             -148.14566      168284.03      55.209562      55.209562      55.209562      0.67029804    -679.20094     -881.8206      -973.27605    
     77000   154000         614.51954     -64.262192      15482.504      15637.939      8863.9157      6774.0229      2895.1269      2897.3936      4949.9527      0             -3968.4503      0              0             -150.31914      165850.8       54.942176      54.942176      54.942176      0.6801321     -14.038678     -134.10159     -44.646308    
     78000   156000         603.74366     -901.37281      13519.687      15720.185      8708.4829      7011.7026      3045.4622      2940.9852      4979.1847      0             -3953.9295      0              0             -148.93304      167394.36      55.112097      55.112097      55.112097      0.67386057    -1844.2852     -309.01712     -550.81608    
     79000   158000         594.75012     -421.09033      14638.914      15663.447      8578.759       7084.6883      3009.1837      2994.5048      5034.9019      0             -3953.9021      0              0             -149.43655      166830.33      55.050129      55.050129      55.050129      0.67613876    -143.15775     -362.65665     -757.4566     
     80000   160000         602.24816     -470.7419       14387.311      15532.235      8686.9117      6845.323       2996.9497      2806.9603      5004.3056      0             -3962.8925      0              0             -149.49068      166769.93      55.043484      55.043484      55.043484      0.67638366    -638.62467      123.19267     -896.79369    
     81000   162000         604.78101     -152.71062      15160.364      15526.582      8723.4459      6803.1364      2905.2912      2941.7688      5008.9488      0             -4052.8725      0              0             -151.61324      164435.18      54.785409      54.785409      54.785409      0.68598737    -575.01076      417.76754     -300.88864    
     82000   164000         605.93603      365.51608      16512.004      15618.134      8740.106       6878.028       2934.3076      2886.5291      4963.9171      0             -3906.7258      0              0             -148.67571      167684.08      55.143874      55.143874      55.143874      0.67269628     272.49541      482.99291      341.05992    
     83000   166000         615.79926      351.06416      16506.482      15646.641      8882.3746      6764.2665      2931.7918      2921.1371      4901.4727      0             -3990.1351      0              0             -148.4486       167940.62      55.171982      55.171982      55.171982      0.67166868     595.25146      676.77619     -218.83517    
     84000   168000         611.41743     -218.00625      15024.458      15546.048      8819.1705      6726.8776      3009.6387      2854.3075      4887.703       0             -4024.7717      0              0             -151.96635      164053.09      54.742943      54.742943      54.742943      0.68758506    -362.79955      79.383446     -370.60265    
     85000   170000         606.93963     -242.54619      14921.635      15496.562      8754.5821      6741.9795      2947.9389      2982.1393      4904.6382      0             -4092.737       0              0             -153.38752      162533.11      54.57335       54.57335       54.57335       0.69401526    -94.841285     -935.73345      302.93617    
     86000   172000         605.98153     -190.22832      15020.049      15473.028      8740.7623      6732.2661      2825.1308      3018.5981      4943.7451      0             -4055.2078      0              0             -152.68787      163277.86      54.656578      54.656578      54.656578      0.69084966    -856.90476      495.73501     -209.51521    
     87000   174000         620.42983      75.804262      15989.594      15806.428      8949.1666      6857.2618      2915.2024      3014.2406      4957.2852      0             -4029.4664      0              0             -150.47221      165682.08      54.923539      54.923539      54.923539      0.6808247     -17.232371      83.756666      160.88849    
     88000   176000         599.18885     -302.1295       14827.329      15549.227      8642.7837      6906.4437      3093.6409      2928.4651      4956.8913      0             -4072.5535      0              0             -152.16851      163835.14      54.718689      54.718689      54.718689      0.68849976    -111.58382     -411.06149     -383.74318    
     89000   178000         604.45652      119.05617      15735.77       15446.531      8718.7654      6727.7661      2944.5059      2927.7046      4869.5752      0             -4014.0196      0              0             -149.65913      166582.22      55.022825      55.022825      55.022825      0.67714582    -352.76367      102.53694      607.39525    
     90000   180000         619.48783      74.101403      16006.602      15828.626      8935.5791      6893.0466      2956.4598      2976.1419      5005.1268      0             -4044.6819      0              0             -151.38123      164687.19      54.813383      54.813383      54.813383      0.68493763    -82.165417      703.83705     -399.36743    
     91000   182000         614.39308      463.89243      16683.982      15558.38       8862.0918      6696.2878      2897.3825      2900.6959      4944.5734      0             -4046.364       0              0             -149.8442       166376.48      55.000163      55.000163      55.000163      0.67798319     949.61074     -276.28421      718.35076    
     92000   184000         603.5491      -1.528388       15508.158      15511.854      8705.6766      6806.1773      2939.0758      2974.7059      4898.676       0             -4006.2804      0              0             -150.3584       165807.49      54.937394      54.937394      54.937394      0.68030976    -374.53702      343.97447      25.977392    
     93000   186000         598.04199     -280.69886      14647.122      15319.385      8626.2413      6693.1433      2933.2326      2942.9548      4906.7551      0             -4089.7993      0              0             -151.8132       164218.59      54.761345      54.761345      54.761345      0.68689213    -327.07722     -220.49724     -294.52211    
     94000   188000         617.19664      68.432958      15879.789      15716.97       8902.5306      6814.4393      2986.417       2926.8351      4944.0747      0             -4042.8877      0              0             -152.81572      163141.26      54.641331      54.641331      54.641331      0.69142812    -28.20769       981.8064      -748.29984    
     95000   190000         604.7171       81.605738      15775.499      15580.134      8722.5239      6857.61        3067.5374      2925.1684      4884.6059      0             -4019.7017      0              0             -151.87308      164153.84      54.754147      54.754147      54.754147      0.68716305     725.4666      -342.37136     -138.27803    
     96000   192000         606.24938     -156.3208       14961.95       15327.262      8744.6258      6582.6366      2927.3506      2878.1421      5004.469       0             -4227.3251      0              0             -155.58208      160240.49      54.315539      54.315539      54.315539      0.70394475     387.94006     -586.49927     -270.40321    
     97000   194000         618.01559      502.69916      17156.573      15946.676      8914.3433      7032.3329      3074.553       2973.0097      5028.3399      0             -4043.5698      0              0             -151.06624      165030.58      54.851453      54.851453      54.851453      0.68351246     591.94021      218.06978      698.08748    
     98000   196000         614.17047      317.38152      16209.821      15456.775      8858.8807      6597.8941      2904.8645      2887.4374      4888.7765      0             -4083.1843      0              0             -153.2384       162691.27      54.591046      54.591046      54.591046      0.69334055     295.28618      148.20649      508.65191    
     99000   198000         610.50527     -256.89776      14978.416      15591.593      8806.0134      6785.5799      2938.5103      2852.481       5045.7483      0             -4051.1598      0              0             -152.32884      163662.7       54.699485      54.699485      54.699485      0.68922518    -14.985029     -1028.561       272.85276    
    100000   200000         595.5751      -71.080902      15371.871      15541.428      8590.6586      6950.7698      3046.7352      2973.8664      4960.812       0             -4030.6438      0              0             -152.42066      163564.11      54.688499      54.688499      54.688499      0.68964062     445.91765     -131.87173     -527.28863    
    101000   202000         600.86814      108.17253      15822.853      15560.681      8667.006       6893.6748      2989.1699      2996.0741      4919.7866      0             -4011.3557      0              0             -150.01591      166186.04      54.97917       54.97917       54.97917       0.67876012    -125.64631      162.60081      287.5631     
    102000   204000         601.14551      504.92577      16548.203      15351.492      8671.007       6680.4855      2913.7453      2863.6932      4977.1448      0             -4074.0977      0              0             -153.4073       162512.15      54.571004      54.571004      54.571004      0.69410475     510.21704      706.17273      298.38754    
    103000   206000         611.60769      248.38515      16241.3        15648.911      8821.9149      6826.9962      3054.66        2935.1498      4879.6441      0             -4042.4578      0              0             -152.44955      163533.12      54.685045      54.685045      54.685045      0.68977132     343.97654     -596.89727      998.07618    
    104000   208000         616.25741     -81.014526      15373.519      15563.765      8888.9831      6674.7815      2973.742       2912.225       4943.4216      0             -4154.6071      0              0             -154.83026      161018.59      54.403312      54.403312      54.403312      0.70054306     766.75399      8.3513429     -1018.1489    
    105000   210000         608.30668      636.18955      17019.5        15511.205      8774.3006      6736.9044      2951.2205      2970.3778      4933.4394      0             -4118.1332      0              0             -153.35855      162563.81      54.576786      54.576786      54.576786      0.69388419     398.1337       826.76486      683.67008    
    106000   212000         603.20567      306.61449      16020.05       15297.791      8700.7229      6597.0679      2965.9449      2923.4592      4900.19        0             -4192.5262      0              0             -154.35026      161519.33      54.459648      54.459648      54.459648      0.69837126     379.90325      867.47293     -327.53271    
    107000   214000         606.35425      359.62217      16405.091      15539.512      8746.1385      6793.3735      2936.0151      2921.7614      4995.5389      0             -4059.9419      0              0             -151.05924      165038.23      54.852301      54.852301      54.852301      0.68348078    -38.90674       492.54265      625.23061    
    108000   216000         609.75241      13.322179      15391.272      15359.466      8795.154       6564.3119      2934.2598      2800.439       4925.1929      0             -4095.5797      0              0             -152.2885       163706.06      54.704315      54.704315      54.704315      0.68904266     253.41807      171.05787     -384.50941    
    109000   218000         599.24916     -415.70906      14265.251      15246.621      8643.6536      6602.9675      2950.9218      2834.8381      4927.1525      0             -4109.9449      0              0             -154.01555      161870.34      54.49907       54.49907       54.49907       0.69685686    -1326.537      -48.636092      128.04591    
    110000   220000         603.9512       234.49371      15914.181      15350.135      8711.4766      6638.6588      3027.0373      2807.4292      4866.1204      0             -4061.9281      0              0             -151.15565      164932.97      54.840637      54.840637      54.840637      0.68391698     584.53375      165.53944     -46.592068    
    111000   222000         619.02555      161.29604      15973.269      15589.59       8928.911       6660.6792      2888.1782      2856.6156      4915.392       0             -3999.5066      0              0             -152.84933      163105.39      54.637326      54.637326      54.637326      0.69158019     118.1108      -204.7805       570.55784    
    112000   224000         616.31189      449.49014      16706.398      15632.029      8889.7689      6742.26        2995.4667      2868.8693      4963.288       0             -4085.364       0              0             -152.11585      163891.86      54.725003      54.725003      54.725003      0.68826151     484.95812      425.50706      438.00524    
    113000   226000         593.34321     -250.71582      14586.125      15178.506      8558.4655      6620.0409      3034.4872      2831.7697      4852.9564      0             -4099.1725      0              0             -153.88218      162010.63      54.51481       54.51481       54.51481       0.69625342    -34.950487     -728.90014      11.703171    
    114000   228000         603.66297      560.54884      16869.03       15515.765      8707.3191      6808.446       3035.496       2785.5285      4962.4259      0             -3975.0044      0              0             -150.60466      165536.37      54.907434      54.907434      54.907434      0.68142399     858.11397      325.04958      498.48298    
    115000   230000         602.19476     -364.825        14610.332      15494.62       8686.1414      6808.4786      2962.5389      2815.1847      5068.1076      0             -4037.3526      0              0             -150.0026       166200.78      54.980796      54.980796      54.980796      0.67869991    -770.70028     -84.254417     -239.52031    
    116000   232000         618.57531      694.64655      17476.303      15831.714      8922.4168      6909.297       3050.6001      2915.5127      5035.7231      0             -4092.5389      0              0             -153.57279      162337.02      54.551395      54.551395      54.551395      0.69485355     526.9506       693.06159      863.92746    
    117000   234000         602.46867      312.12979      16100.173      15358.708      8690.0924      6668.6159      2964.8572      2885.8164      4917.6027      0             -4099.6605      0              0             -153.05669      162884.42      54.612641      54.612641      54.612641      0.6925184      412.50485      903.9403      -380.05578    
    118000   236000         603.26206     -1205.2862      12658.768      15569.646      8701.5363      6868.1096      2990.3367      2889.8093      4978.5319      0             -3990.5682      0              0             -150.54763      165599.08      54.914366      54.914366      54.914366      0.68116594    -1284.9311     -1161.6731     -1169.2543    
    119000   238000         614.41472      444.74982      16506.264      15439.988      8862.4038      6577.5838      2898.637       2814.2185      4873.7078      0             -4008.9796      0              0             -151.65388      164391.1       54.780514      54.780514      54.780514      0.68617129     686.83683      603.72989      43.682747    
    120000   240000         597.09961     -153.51229      14939.831      15315.626      8612.6483      6702.9777      2922.8331      2775.6769      4978.9239      0             -3974.4562      0              0             -148.52499      167854.24      55.16252       55.16252       55.16252       0.67201435     289.13845     -73.688375     -675.98695    
    121000   242000         597.18878      229.14699      16297.974      15738.649      8613.9345      7124.7145      3029.9078      2964.9998      5082.7683      0             -3952.9614      0              0             -148.95599      167368.56      55.109266      55.109266      55.109266      0.67396442     312.24197     -189.01165      564.21064    
    122000   244000         601.32037      64.703556      15560.107      15403.476      8673.5291      6729.9464      2860.3498      2892.8179      4958.9162      0             -3982.1375      0              0             -150.19595      165986.83      54.957193      54.957193      54.957193      0.67957475    -198.28403      447.29362     -54.898919    
    123000   246000         597.12105     -102.26801      15091.591      15343.447      8612.9576      6730.4894      2910.8503      2836.4597      4906.4108      0             -3923.2314      0              0             -147.6369       168863.95      55.272908      55.272908      55.272908      0.66799608    -555.80992      64.422519      184.58336    
    124000   248000         602.26564      409.11462      16755.622      15776.388      8687.1638      7089.2242      3073.3769      2977.3929      5048.4203      0             -4009.966       0              0             -151.90302      164121.49      54.750549      54.750549      54.750549      0.68729852     159.15449      799.40475      268.78462    
    125000   250000         602.04944     -844.69837      13436.533      15448.58       8684.0452      6764.5347      2902.6523      2965.5962      5001.0037      0             -4104.7175      0              0             -152.64102      163327.98      54.66217       54.66217       54.66217       0.69063766    -948.9903      -240.1813      -1344.9235    
    126000   252000         601.0102       474.67361      16640.866      15499.669      8669.0552      6830.6137      2946.2759      2946.3953      4982.4186      0             -4044.476       0              0             -151.23148      164850.27      54.831469      54.831469      54.831469      0.68426007     495.62528      264.1086       664.28694    
    127000   254000         605.15583     -104.73732      15456.048      15709.95       8728.8523      6981.0981      3025.507       2936.2962      5006.8431      0             -3987.5483      0              0             -149.98299      166222.51      54.983192      54.983192      54.983192      0.67861119    -454.68377     -291.60312      432.07493    
    128000   256000         612.79126      73.906839      16005.075      15823.463      8838.9868      6984.4758      2992.8359      2997.0953      4953.5052      0             -3958.9607      0              0             -147.96059      168494.52      55.232572      55.232572      55.232572      0.66946066    -33.164142      348.77432     -93.889657    
    129000   258000         591.13362     -26.190256      15203.538      15266.933      8526.594       6740.3394      2945.3926      2892.1899      4902.8503      0             -4000.0933      0              0             -150.20627      165975.43      54.955934      54.955934      54.955934      0.67962142    -41.062702      70.748918     -108.25698    
    130000   260000         612.014        14.945219      15544.244      15508.363      8827.7755      6680.5874      2893.9607      2854.6879      4934.5644      0             -4002.6255      0              0             -151.44081      164622.4       54.806194      54.806194      54.806194      0.68520721    -243.55067      25.783335      262.60299    
    131000   262000         607.59123      103.21552      15515.185      15267.222      8763.9809      6503.2407      2818.7207      2819.4981      4911.9353      0             -4046.9134      0              0             -151.34391      164727.81      54.817889      54.817889      54.817889      0.68476876     256.91999     -229.61751      282.34409    
    132000   264000         607.77204      824.87027      17504.472      15530.052      8766.589       6763.4634      3011.9945      2898.3091      4879.7589      0             -4026.5991      0              0             -151.89863      164126.23      54.751077      54.751077      54.751077      0.68727866     475.87259      1694.5728      304.16537    
    133000   266000         599.85114      225.5543       15860.477      15326.155      8652.3368      6673.8178      2924.8802      2882.5854      4953.8153      0             -4087.4631      0              0             -153.48139      162433.69      54.562221      54.562221      54.562221      0.69444001     46.222405      108.71184      521.72864    
    134000   268000         595.1742      -330.59833      14440.742      15220.888      8584.876       6636.0125      2892.8514      2852.7655      4976.5735      0             -4086.1779      0              0             -154.07511      161807.77      54.492047      54.492047      54.492047      0.69712633    -342.45386     -468.42486     -180.91628    
    135000   270000         588.30456      72.834685      15268.613      15096.262      8485.7873      6610.4749      2967.6209      2832.8699      4953.4441      0             -4143.4601      0              0             -153.65041      162255.01      54.542207      54.542207      54.542207      0.69520476     471.81612     -413.42073      160.10866    
    136000   272000         601.25257      268.68047      15852.148      15227.135      8672.5512      6554.5841      2871.683       2843.4326      5006.5886      0             -4167.1201      0              0             -156.2985       159506         54.232423      54.232423      54.232423      0.70718627     664.26063      364.67316     -222.89237    
    137000   274000         597.29324     -74.650827      15290.283      15468.509      8615.4413      6853.0681      2957.9077      2915.7804      5013.3289      0             -4033.9489      0              0             -152.28954      163704.93      54.70419       54.70419       54.70419       0.68904738    -149.31511      42.887096     -117.52446    
    138000   276000         603.40382     -884.71341      13266.857      15431.029      8703.5811      6727.4476      2872.4231      2904.1488      4903.1073      0             -3952.2316      0              0             -148.63416      167730.95      55.149012      55.149012      55.149012      0.67250828    -707.70786     -947.91659     -998.51579    
    139000   278000         597.48053     -752.31242      13440.024      15254.117      8618.1427      6635.9739      2888.2963      2865.1077      4922.7602      0             -4040.1903      0              0             -150.78096      165342.82      54.886025      54.886025      54.886025      0.68222166    -926.40918     -270.05907     -1060.469     
    140000   280000         596.22057      310.77848      16229.976      15489.433      8599.9688      6889.4642      3001.4938      2963.7767      4988.0257      0             -4063.832       0              0             -152.58379      163389.24      54.669003      54.669003      54.669003      0.69037872     589.97755      174.73557      167.62233    
    141000   282000         605.54579     -66.558812      15115.841      15274.225      8734.4772      6539.7482      2905.5794      2913.1845      4807.3302      0             -4086.3459      0              0             -152.79205      163166.53      54.644153      54.644153      54.644153      0.69132102     235.81686     -204.9911      -230.50219    
    142000   284000         587.48266      130.35396      15416.34       15100.792      8473.9321      6626.8604      2901.2745      2818.3891      4932.5153      0             -4025.3185      0              0             -150.19903      165983.42      54.956817      54.956817      54.956817      0.67958869    -302.54067      318.36759      375.23498    
    143000   286000         596.19668      199.93611      15875.742      15389.861      8599.6242      6790.2373      2932.9124      2885.5675      4967.6748      0             -3995.9175      0              0             -149.61314      166633.43      55.028462      55.028462      55.028462      0.67693774     238.45318     -121.4737       482.82886    
    144000   288000         596.17989     -41.790664      15139.857      15241.638      8599.3822      6642.2563      2905.9917      2790.1059      4940.3476      0             -3994.1888      0              0             -149.28609      166998.48      55.068617      55.068617      55.068617      0.675458       361.64546     -259.0097      -228.00776    
    145000   290000         597.81131     -838.25521      13409.1        15408.652      8622.914       6785.7376      2930.825       2995.8797      4925.0805      0             -4066.0476      0              0             -152.42335      163561.23      54.688178      54.688178      54.688178      0.68965279    -1172.7062     -819.90044     -522.15897    
    146000   292000         594.76905     -487.28455      14022.454      15170.358      8579.0319      6591.3259      2949.3504      2852.4754      4914.2305      0             -4124.7304      0              0             -154.34224      161527.71      54.460591      54.460591      54.460591      0.69833501    -593.0536      -184.3717      -684.42835    
    147000   294000         597.09622     -253.03951      14652.487      15252.055      8612.5994      6639.4559      3017.2652      2835.0006      4896.5669      0             -4109.3768      0              0             -153.44656      162470.56      54.566349      54.566349      54.566349      0.69428242    -675.33238     -509.66235      425.87619    
    148000   296000         607.43632      270.48409      15915.63       15280.655      8761.7464      6518.9083      2939.1661      2830.4679      4908.8394      0             -4159.5651      0              0             -154.87916      160967.75      54.397586      54.397586      54.397586      0.70076432     610.55756     -234.18548      435.0802     
    149000   298000         599.78488     -333.43898      14449.754      15250.923      8651.3809      6599.542       2856.1533      2867.6998      4900.2145      0             -4024.5256      0              0             -151.32132      164752.39      54.820616      54.820616      54.820616      0.68466657    -642.99106     -240.35932     -116.96656    
    150000   300000         605.65122      15.430415      15348.474      15312.035      8735.9979      6576.0367      2938.3208      2937.7052      4833.1594      0             -4133.1487      0              0             -153.96085      161927.86      54.505524      54.505524      54.505524      0.69660933    -480.98621     -151.04326      678.32072    
    151000   302000         593.78434      614.14809      16764.646      15314.438      8564.8284      6749.6097      2925.9246      3005.2286      4947.5748      0             -4129.1183      0              0             -153.97517      161912.79      54.503834      54.503834      54.503834      0.69667416     1071.5516      379.77281      391.11991    
    152000   304000         613.39931      161.10947      15694.028      15312.324      8847.7575      6464.5668      2869.9909      2857.6611      4836.8299      0             -4099.9152      0              0             -153.46273      162453.45      54.564433      54.564433      54.564433      0.69435556    -20.862125      742.16546     -237.97491    
    153000   306000         604.85132      162.1489       15848.565      15459.954      8724.46        6735.494       3003.8687      2784.7568      5000.9529      0             -4054.0846      0              0             -151.70741      164333.1       54.774071      54.774071      54.774071      0.68641346     406.41833      64.057368      15.970992    
    154000   308000         599.50551      64.136735      15436.727      15283.86       8647.3513      6636.5089      2900.0074      2901.9331      4898.5248      0             -4063.9564      0              0             -152.5463       163429.39      54.673481      54.673481      54.673481      0.6902091      689.20447     -42.361558     -454.43271    
    155000   310000         583.75006     -299.65634      14504.215      15222.284      8420.0924      6802.1913      2982.5341      2914.0586      4967.5796      0             -4061.981       0              0             -151.72782      164311         54.771615      54.771615      54.771615      0.68650581    -221.71422     -765.16353      87.908728    
    156000   312000         596.4545      -553.66116      13813.301      15130.081      8603.3432      6526.7382      2957.5564      2702.646       4952.1493      0             -4085.6135      0              0             -152.87571      163077.25      54.634184      54.634184      54.634184      0.69169953    -1308.9552     -275.67286     -76.355466    
    157000   314000         591.3656      -579.52914      14002.532      15386.025      8529.9402      6856.0849      2943.1888      2905.2505      4999.5898      0             -3991.9442      0              0             -152.30216      163691.37      54.702679      54.702679      54.702679      0.68910446    -634.32758     -401.31193     -702.94792    
    158000   316000         597.97079     -308.39038      14714.302      15459.631      8625.2142      6834.4171      2954.4892      2839.3796      5084.2829      0             -4043.7345      0              0             -150.43895      165718.71      54.927586      54.927586      54.927586      0.68067422    -892.89369     -511.63717      479.35972    
    159000   318000         606.10221      142.31378      15823.552      15481.062      8742.503       6738.5594      2887.4852      2930.257       4946.671       0             -4025.8539      0              0             -151.08017      165015.36      54.849768      54.849768      54.849768      0.68357547    -620.94264      456.73601      591.14797    
    160000   320000         594.98965      15.952733      15423.93       15385.584      8582.2138      6803.3706      2943.889       2934.7331      4942.2764      0             -4017.5279      0              0             -151.26109      164817.99      54.827891      54.827891      54.827891      0.68439406    -233.86489      682.35084     -400.62775    
    161000   322000         604.47051      570.25097      16585.113      15221.378      8718.9672      6502.4112      2947.4259      2727.6214      4881.7296      0             -4054.3658      0              0             -152.03512      163978.88      54.734687      54.734687      54.734687      0.68789623     940.92337      59.521226      710.30833    
    162000   324000         579.45714     -105.7389       14554.037      14802.849      8358.1708      6444.6778      2843.3591      2881.832       4864.7145      0             -4145.2279      0              0             -154.5158       161346.28      54.440192      54.440192      54.440192      0.69912027    -102.97178      203.35771     -417.60265    
    163000   326000         600.73255     -223.97358      14631.923      15166.232      8665.0503      6501.1814      2949.9848      2885.0001      4797.8286      0             -4131.6321      0              0             -152.40959      163575.99      54.689823      54.689823      54.689823      0.68959055    -396.37085     -150.19906     -125.35082    
    164000   328000         598.94027      182.70406      15646.714      15212.579      8639.1982      6573.3805      2909.297       2804.7652      4930.1299      0             -4070.8115      0              0             -153.014        162929.86      54.617719      54.617719      54.617719      0.69232525    -153.04332      481.68947      219.46604    
    165000   330000         595.98667     -289.93221      14445.925      15135.591      8596.5951      6538.9957      2918.9655      2857.0891      4878.8256      0             -4115.8845      0              0             -152.84993      163104.75      54.637254      54.637254      54.637254      0.69158291     81.65896      -253.08221     -698.37338    
    166000   332000         604.96285     -100.74538      15326.858      15567.667      8726.0688      6841.5981      2991.1607      2884.7647      4981.8408      0             -4016.168       0              0             -152.11061      163897.5       54.725631      54.725631      54.725631      0.68823779    -694.53141      388.42439      3.8708858    
    167000   334000         614.46147      346.66355      16331.979      15496.338      8863.0782      6633.2595      2968.2424      2805.5826      4859.4399      0             -4000.0054      0              0             -150.83282      165285.97      54.879734      54.879734      54.879734      0.68245631     277.74905      791.06939     -28.827791    
    168000   336000         590.74457      262.10868      15781.766      15160.487      8520.9823      6639.5043      2887.4334      2921.9791      4926.2445      0             -4096.1527      0              0             -153.39189      162528.48      54.572831      54.572831      54.572831      0.69403503     393.48737      275.97976      116.85892    
    169000   338000         598.36257     -10.89635       15177.443      15203.471      8630.8654      6572.6055      2924.7885      2897.3728      4844.3333      0             -4093.8891      0              0             -152.21106      163789.34      54.71359       54.71359       54.71359       0.68869229     241.8539      -40.420303     -234.12265    
    170000   340000         598.43319     -475.14307      14193.086      15309.161      8631.8839      6677.277       3014.0036      2896.7794      4941.7244      0             -4175.2304      0              0             -154.78851      161062.02      54.408203      54.408203      54.408203      0.70035416    -332.78507     -640.54335     -452.1008     
    171000   342000         594.29251     -442.06135      14012.073      15067.183      8572.1582      6495.0245      2963.7085      2795.5647      4821.5515      0             -4085.8003      0              0             -152.33252      163658.75      54.699045      54.699045      54.699045      0.68924181    -276.81664     -142.02931     -907.33811    
    172000   344000         588.36258     -708.3524       13148.499      14815.264      8486.6241      6328.6402      2847.1335      2777.5768      4850.5885      0             -4146.6586      0              0             -154.51931      161342.61      54.43978       54.43978       54.43978       0.69913615    -1290.441      -434.76031     -399.85585    
    173000   346000         593.60336     -185.746        14584.341      15024.655      8562.2179      6462.4376      2833.2153      2896.2695      4837.2517      0             -4104.2989      0              0             -153.37851      162542.65      54.574418      54.574418      54.574418      0.69397451    -460.17061      38.128089     -135.19549    
    174000   348000         600.1016      -273.8782       14795.488      15461.457      8655.9494      6805.5079      2940.1768      2876.6464      4990.4409      0             -4001.7562      0              0             -149.5241       166732.65      55.039382      55.039382      55.039382      0.6765349     -127.54449     -660.42232     -33.667793    
    175000   350000         598.22119     -387.48389      14467.899      15400.874      8628.8261      6772.0484      3011.4176      2819.4482      4988.6664      0             -4047.4838      0              0             -151.00501      165097.5       54.858867      54.858867      54.858867      0.68323539    -632.42974     -279.92466     -250.09726    
    176000   352000         608.39949      242.69175      15884.228      15303.783      8775.6393      6528.1438      2866.6181      2842.8595      4859.1408      0             -4040.4746      0              0             -152.02041      163994.75      54.736453      54.736453      54.736453      0.68782965     225.39985      504.82366     -2.1482498    
    177000   354000         606.19454      482.55592      16365.712      15231.438      8743.8348      6487.603       2885.7229      2857.6168      4892.1371      0             -4147.8738      0              0             -154.68111      161173.85      54.420792      54.420792      54.420792      0.69986823     508.03396      507.04303      432.59078    
    178000   356000         590.71511     -249.54161      14492.541      15077.527      8520.5573      6556.9694      2924.0639      2904.5937      4866.7634      0             -4138.4516      0              0             -155.09763      160741.01      54.372032      54.372032      54.372032      0.70175281    -121.56694     -172.79141     -454.26647    
    179000   358000         591.18239      264.16913      15742.723      15100.004      8527.2974      6572.7066      2885.5329      2805.9281      4861.603       0             -3980.3574      0              0             -149.44067      166825.74      55.049623      55.049623      55.049623      0.67615739    -86.045913     -141.02807      1019.5814    
    180000   360000         596.29368      110.64524      15497.932      15238.824      8601.0235      6637.8008      2966.532       2895.4529      4929.5613      0             -4153.7453      0              0             -155.26002      160572.89      54.353069      54.353069      54.353069      0.70248755     191.36759      160.38091     -19.81277     
    181000   362000         586.91561     -386.40682      14004.084      14901.049      8465.7528      6435.2959      2890.64        2792.7538      4954.6197      0             -4202.7177      0              0             -156.63079      159167.62      54.194045      54.194045      54.194045      0.70868973    -756.93164     -419.78372      17.494917    
    182000   364000         588.10685     -290.71447      14325.458      15021.121      8482.9355      6538.1854      2917.6883      2756.1042      4934.7151      0             -4070.3222      0              0             -151.94127      164080.17      54.745955      54.745955      54.745955      0.68747158    -325.05706     -59.370957     -487.7154     
    183000   366000         595.35968      648.05386      16469.535      14938.54       8587.5512      6350.9891      2895.4444      2863.6509      4719.3175      0             -4127.4237      0              0             -153.9023       161989.45      54.512434      54.512434      54.512434      0.69634446     402.22277      1059.0901      482.84874    
    184000   368000         608.68844      236.20964      15700.866      15147.203      8779.8071      6367.3961      2807.18        2824.0825      4936.7289      0             -4200.5952      0              0             -155.11721      160720.72      54.369744      54.369744      54.369744      0.70184141    -338.40668      4.2765235      1042.7591    
    185000   370000         581.94842      0.9410851      14710.161      14707.948      8394.1054      6313.8428      2804.7158      2723.0936      4938.6104      0             -4152.577       0              0             -154.65362      161202.49      54.424016      54.424016      54.424016      0.69974386     505.56435     -830.99655      328.25546    
    186000   372000         584.82885     -590.51598      13511.112      14916.496      8435.6531      6480.8433      2844.1888      2900.5006      4865.5048      0             -4129.351       0              0             -152.77216      163187.77      54.646524      54.646524      54.646524      0.69123104    -803.39764     -507.67258     -460.47772    
    187000   374000         582.26288      318.48977      15857.625      15107.256      8398.6412      6708.6148      2898.5893      2845.0167      5078.7323      0             -4113.7235      0              0             -154.32211      161548.79      54.462959      54.462959      54.462959      0.69824389     971.15904     -268.5068       252.81707    
    188000   376000         594.19743      16.31725       14944.181      14905.508      8570.7868      6334.7207      2801.8936      2822.283       4833.6889      0             -4123.1448      0              0             -153.40548      162514.07      54.571219      54.571219      54.571219      0.69409654    -66.830638      68.052845      47.729542    
    189000   378000         586.26606      305.73624      15593.637      14864.697      8456.3836      6408.313       2840.342       2888.1803      4819.5484      0             -4139.7577      0              0             -152.49742      163481.78      54.679321      54.679321      54.679321      0.68998795     219.89889      432.34169      264.96814    
    190000   380000         592.36445      398.50818      16097.083      15143.918      8544.3477      6599.57        2885.2797      2870.9716      4891.6501      0             -4048.3314      0              0             -152.01168      164004.17      54.737501      54.737501      54.737501      0.68779017    -136.68859      33.256401      1298.9567    
    191000   382000         575.68295     -548.61774      13585.496      14905.596      8303.7313      6601.8651      2976.1529      2837.9274      4827.7314      0             -4039.9467      0              0             -151.10217      164991.34      54.847106      54.847106      54.847106      0.68367499    -717.15688     -896.97617     -31.720172    
    192000   384000         593.95061      160.90033      15322.983      14940.936      8567.2267      6373.7093      2837.9406      2746.5509      4904.8374      0             -4115.6196      0              0             -153.12544      162811.28      54.604466      54.604466      54.604466      0.69282947    -64.017471      77.99841       468.72005    
    193000   386000         590.50572      809.08511      17018.554      15109.576      8517.5371      6592.0385      2965.2984      2783.6703      4940.6737      0             -4097.6039      0              0             -154.09937      161782.29      54.489187      54.489187      54.489187      0.69723611     1881.748       324.06983      221.43751    
    194000   388000         585.26775     -380.21092      14159.458      15081.59       8441.9839      6639.6064      3072.1488      2710.7106      4865.2932      0             -4008.5462      0              0             -149.9129       166300.22      54.991759      54.991759      54.991759      0.67829407    -45.872618     -370.98529     -723.77483    
    195000   390000         588.30001      391.32497      15923.727      15012.271      8485.7216      6526.5497      2993.8281      2759.8723      4909.3377      0             -4136.4882      0              0             -156.10254      159706.24      54.255107      54.255107      54.255107      0.70629963     141.98105     -316.16221      1348.1561    
    196000   392000         587.26196      358.08402      15843.618      15001.612      8470.7486      6530.8638      2946.0396      2805.2169      4900.2233      0             -4120.616       0              0             -154.62426      161233.1       54.427461      54.427461      54.427461      0.69961101    -717.6089       1118.4218      673.43912    
    197000   394000         590.09629     -141.21029      14676.743      15012.553      8511.6314      6500.9214      2921.3192      2842.0071      4852.0059      0             -4114.4109      0              0             -152.89063      163061.33      54.632406      54.632406      54.632406      0.69176706    -505.41957      195.03803     -113.24933    
    198000   396000         591.04644     -3.7781095      14992.28       15001.132      8525.3366      6475.795       2952.6677      2800.1477      4893.4786      0             -4170.4991      0              0             -155.19383      160641.37      54.360795      54.360795      54.360795      0.70218808     371.79689     -354.00504     -29.12618     
    199000   398000         587.97398      210.01401      15354.272      14865.545      8481.019       6384.526       2828.3198      2917.0023      4822.7841      0             -4183.5802      0              0             -156.23908      159566.67      54.239298      54.239298      54.239298      0.70691741     1250.1005     -527.41272     -92.64576     
[...]
    458000   916000         557.47737     -288.07618      12978.55       13649.876      8041.1316      5608.7443      2662.0462      2625.2982      4552.6442      0             -4231.2443      0              0             -156.02045      159790.27      54.264621      54.264621      54.264621      0.70592819    -980.74359      339.74193     -223.22689    
    459000   918000         562.87283     -340.04151      13224.637      14022.852      8118.9564      5903.8953      2744.7524      2645.4761      4696.3059      0             -4182.6391      0              0             -154.88885      160957.67      54.396451      54.396451      54.396451      0.70080818    -284.81432     -243.66275     -491.64746    
    460000   920000         552.0847      -441.45672      12673.862      13700.747      7963.347       5737.4003      2662.5135      2674.0341      4658.0866      0             -4257.234       0              0             -156.30546      159498.9       54.231618      54.231618      54.231618      0.70721777     112.02199     -659.70956     -776.68258    
    461000   922000         560.91461     -129.01034      13514.54       13812.873      8090.7108      5722.1623      2696.5509      2651.1698      4621.5554      0             -4247.1138      0              0             -157.22804      158563         54.125338      54.125338      54.125338      0.71139204    -628.42527      690.74508     -449.35083    
    462000   924000         551.12692     -406.98871      12915.521      13863.171      7949.5317      5913.6392      2683.793       2729.8105      4720.6581      0             -4220.6224      0              0             -156.15012      159657.58      54.249596      54.249596      54.249596      0.70651489    -414.24182     -80.308182     -726.41613    
    463000   926000         566.98692     -343.15944      13164.471      13959.321      8178.2986      5781.0227      2705.8715      2639.6878      4707.7369      0             -4272.2736      0              0             -156.97057      158823.09      54.154915      54.154915      54.154915      0.71022708     70.644884     -612.34536     -487.77785    
    464000   928000         558.37722      11.860622      13899.304      13871.704      8054.1111      5817.5928      2680.8128      2734.1789      4653.5818      0             -4250.9807      0              0             -156.24729      159558.28      54.238348      54.238348      54.238348      0.70695456     579.09587     -221.71083     -321.80317    
    465000   930000         548.99831     -1.3579463      13754.849      13758.032      7918.8284      5839.2036      2614.2187      2794.8738      4621.2504      0             -4191.1393      0              0             -155.09933      160739.25      54.371833      54.371833      54.371833      0.70176051    -210.80362      183.02926      23.700521    
    466000   932000         543.79078      234.73328      14314.043      13769.681      7843.7143      5925.9672      2666.9937      2780.4085      4755.0391      0             -4276.4741      0              0             -156.7815       159014.61      54.176675      54.176675      54.176675      0.70937163     421.93822      98.54982       183.71182    
    467000   934000         544.76726     -95.691029      13335.322      13553.205      7857.7991      5695.4054      2687.3132      2686.7568      4630.316       0             -4308.9807      0              0             -159.68204      156126.2       53.846638      53.846638      53.846638      0.72249537     7.1985175     -157.6039      -136.66771    
    468000   936000         551.52368      257.68315      14242.684      13646.684      7955.2547      5691.4294      2665.6325      2693.6601      4575.7984      0             -4243.6616      0              0             -157.1981       158593.2       54.128773      54.128773      54.128773      0.71125659     360.62888      487.33509     -74.91452     
    469000   938000         554.75023      218.12879      14054.968      13555.416      8001.7949      5553.6207      2601.8539      2735.2657      4563.8898      0             -4347.3887      0              0             -158.75948      157033.46      53.950739      53.950739      53.950739      0.71832117     958.85535     -206.97658     -97.492407    
    470000   940000         548.27297     -94.322645      13512.261      13729.8        7908.366       5821.4341      2740.8643      2646.6876      4736.2106      0             -4302.3284      0              0             -157.64723      158141.38      54.077322      54.077322      54.077322      0.71328868    -351.54902     -481.33983      549.92092    
    471000   942000         555.66623     -14.547512      13599.962      13633.04       8015.0074      5618.0324      2737.8808      2687.2772      4584.5199      0             -4391.6455      0              0             -159.90206      155911.37      53.821929      53.821929      53.821929      0.7234909      125.65477     -261.77462      92.477312    
    472000   944000         550.15102      549.17224      14915.054      13652.175      7935.4553      5716.7192      2741.9952      2623.3572      4640.9017      0             -4289.5349      0              0             -158.10825      157680.25      54.024709      54.024709      54.024709      0.71537465     721.73236      576.06651      349.71784    
    473000   946000         552.51682     -501.13763      12662.899      13832.405      7969.5798      5862.8249      2717.2069      2653.6796      4683.4345      0             -4191.4961      0              0             -155.79823      160018.18      54.290409      54.290409      54.290409      0.70492274    -433.11217     -160.3877      -909.913      
    474000   948000         549.36217     -402.36953      12493.807      13423.529      7924.0768      5499.4527      2637.0947      2543.6411      4647.04        0             -4328.3232      0              0             -157.35461      158435.46      54.110822      54.110822      54.110822      0.71196471    -247.74486     -295.49102     -663.87271    
    475000   950000         555.94329     -364.23547      13024.494      13885.161      8019.0038      5866.1575      2780.4202      2607.1491      4653.8976      0             -4175.3094      0              0             -153.87025      162023.2       54.51622       54.51622       54.51622       0.69619942    -253.70222     -336.28239     -502.72178    
    476000   952000         541.3501       72.727721      13661.415      13493.353      7808.5096      5684.8439      2710.258       2584.3235      4663.1454      0             -4272.883       0              0             -157.34044      158449.73      54.112446      54.112446      54.112446      0.71190059    -18.472854     -490.83039      727.48641    
    477000   954000         555.2273       898.42416      15844.628      13752.092      8008.6762      5743.4162      2728.2608      2551.3442      4656.3461      0             -4192.535       0              0             -156.10486      159703.87      54.254839      54.254839      54.254839      0.7063101      1047.9165      626.66767      1020.6883    
    478000   956000         565.49976      206.9031       14454.607      13973.245      8156.8477      5816.3969      2747.5772      2688.862       4646.93        0             -4266.9722      0              0             -156.27955      159525.35      54.234616      54.234616      54.234616      0.7071005     -328.96725      597.01857      352.65796    
    479000   958000         549.05161     -386.59718      12767.465      13686.917      7919.5972      5767.3201      2710.7994      2594.8302      4581.301       0             -4119.6105      0              0             -152.8752       163077.78      54.634244      54.634244      54.634244      0.69169725     481.80373     -648.8073      -992.78797    
    480000   960000         559.85844     -213.92838      13374.94       13875.023      8075.4764      5799.547       2679.0358      2665.1781      4699.1824      0             -4243.8493      0              0             -155.53701      160286.93      54.320785      54.320785      54.320785      0.70374083     519.42935     -425.93754     -735.27695    
    481000   962000         544.84894      267.57307      14176.485      13565.241      7858.9773      5706.2639      2660.075       2671.3641      4688.2141      0             -4313.3893      0              0             -159.16073      156637.56      53.905363      53.905363      53.905363      0.72013668     225.42096      455.58459      121.71366    
    482000   964000         563.82949      402.29347      14561.22       13646.424      8132.7555      5513.6682      2647.0194      2629.6784      4605.1819      0             -4368.2115      0              0             -159.89181      155921.37      53.82308       53.82308       53.82308       0.72344451     210.23798     -7.6640457      1004.3065    
    483000   966000         557.61248      830.38988      15557.933      13633.057      8043.0803      5589.9766      2641.2816      2612.1967      4664.6479      0             -4328.1497      0              0             -156.8509       158944.26      54.168684      54.168684      54.168684      0.70968562     1243.7194      318.85281      928.59744    
    484000   968000         564.28206      77.138658      14099.589      13922.408      8139.2833      5783.1244      2673.5557      2687.9899      4659.0102      0             -4237.4314      0              0             -158.29347      157495.75      54.00363       54.00363       54.00363       0.71621267     232.76032      197.27327     -198.61761    
    485000   970000         551.39531      149.65205      14048.096      13701.619      7953.403       5748.2159      2700.2932      2646.5147      4659.0283      0             -4257.6204      0              0             -157.04219      158750.65      54.146681      54.146681      54.146681      0.71055113     589.75861     -738.42615      597.6237     
    486000   972000         554.85578     -62.904965      13636.026      13779.874      8003.3174      5776.5562      2689.5654      2676.5916      4738.1086      0             -4327.7094      0              0             -158.99793      156797.95      53.923755      53.923755      53.923755      0.71940008     905.12319     -791.06237     -302.77571    
    487000   974000         557.31247      73.737157      13828.235      13658.925      8038.753       5620.1719      2651.8907      2742.0109      4574.1517      0             -4347.8813      0              0             -158.34745      157442.06      53.997492      53.997492      53.997492      0.71645693    -294.42968      77.835796      437.80536    
    488000   976000         546.99212     -264.26822      12942.394      13550.321      7889.8908      5660.4299      2724.0572      2626.5117      4645.9389      0             -4336.0779      0              0             -158.05252      157735.85      54.031058      54.031058      54.031058      0.7151225      373.33677     -791.21967     -374.92176    
    489000   978000         560.58521     -122.07192      13444.611      13727.227      8085.9594      5641.2674      2614.241       2613.9136      4657.0991      0             -4243.9864      0              0             -157.04601      158746.79      54.146242      54.146242      54.146242      0.71056841    -486.20408     -21.131559      141.11987    
    490000   980000         544.21812     -200.59596      13184.78       13659.003      7849.8783      5809.1243      2642.3136      2688.7466      4645.5251      0             -4167.461       0              0             -153.79706      162100.3       54.524866      54.524866      54.524866      0.69586828    -241.54849      415.61866     -775.85806    
    491000   982000         556.78465     -180.83769      13230.383      13651.64       8031.1397      5620.5008      2572.9873      2675.9863      4607.868       0             -4236.3408      0              0             -156.08071      159728.58      54.257637      54.257637      54.257637      0.70620084    -418.10739      466.90075     -591.30642    
    492000   984000         554.08152     -298.07836      13047.503      13736.865      7992.1493      5744.7158      2708.2801      2620.8837      4699.5415      0             -4283.9895      0              0             -157.21393      158577.23      54.126957      54.126957      54.126957      0.71132819     410.02139     -449.96875     -854.28771    
    493000   986000         560.27987      618.31675      15121.987      13709.102      8081.5552      5627.5465      2612.2434      2624.503       4653.8473      0             -4263.0472      0              0             -159.11526      156682.33      53.910498      53.910498      53.910498      0.71993092     567.24041      486.74617      800.96367    
    494000   988000         558.36848     -63.198619      13645.31       13791.99       8053.985       5738.0046      2609.8054      2711.2611      4685.9686      0             -4269.0306      0              0             -156.65545      159142.56      54.191201      54.191201      54.191201      0.70880132     96.024821      284.85814     -570.47881    
    495000   990000         551.25992      375.2779       14628.768      13753.165      7951.4502      5801.7145      2747.5659      2635.6646      4660.2256      0             -4241.7417      0              0             -155.83075      159984.78      54.286631      54.286631      54.286631      0.70506989     288.95059      439.32987      397.55325    
    496000   992000         549.84059     -174.18983      13204.224      13604.828      7930.9775      5673.8508      2706.0276      2578.7086      4710.2497      0             -4321.1351      0              0             -158.094        157694.47      54.026333      54.026333      54.026333      0.71531013    -881.36359      184.61668      174.17744    
    497000   994000         542.5633      -634.66165      12173.978      13633.836      7826.0089      5807.8269      2736.3535      2568.0484      4757.9684      0             -4254.5433      0              0             -158.06631      157722.1       54.029488      54.029488      54.029488      0.71518485    -17.705989     -507.20495     -1379.074     
    498000   996000         543.62277      582.40557      14925.516      13586.207      7841.2908      5744.9159      2705.682       2666.5134      4657.6614      0             -4284.9409      0              0             -158.10747      157681.04      54.024798      54.024798      54.024798      0.7153711      1317.0049      211.44648      218.76534    
    499000   998000         545.03723      332.27688      14393.124      13616.778      7861.6933      5755.0852      2744.2814      2632.6602      4612.3522      0             -4234.2085      0              0             -155.61557      160206.01      54.311642      54.311642      54.311642      0.70409627     338.65469      346.67602      311.49992    
    500000   1000000        549.15486     -114.21363      13328.062      13596.783      7921.0865      5675.6967      2732.4306      2577.8901      4613.5976      0             -4248.2216      0              0             -154.53362      161327.67      54.4381        54.4381        54.4381        0.6992009      180.63044     -322.82678     -200.44453    
Loop time of 2037.35 on 1 procs for 500000 steps with 4840 atoms

Performance: 42.408 ns/day, 0.566 hours/ns, 245.417 timesteps/s, 1.188 Matom-step/s
99.7% CPU use with 1 MPI tasks x 1 OpenMP threads

MPI task timing breakdown:
Section |  min time  |  avg time  |  max time  |%varavg| %total
---------------------------------------------------------------
Pair    | 155.86     | 155.86     | 155.86     |   0.0 |  7.65
Bond    | 355.6      | 355.6      | 355.6      |   0.0 | 17.45
Neigh   | 1418.5     | 1418.5     | 1418.5     |   0.0 | 69.62
Comm    | 37.331     | 37.331     | 37.331     |   0.0 |  1.83
Output  | 5.4241     | 5.4241     | 5.4241     |   0.0 |  0.27
Modify  | 50.287     | 50.287     | 50.287     |   0.0 |  2.47
Other   |            | 14.39      |            |       |  0.71

Nlocal:           4840 ave        4840 max        4840 min
Histogram: 1 0 0 0 0 0 0 0 0 0
Nghost:          14563 ave       14563 max       14563 min
Histogram: 1 0 0 0 0 0 0 0 0 0
Neighs:              0 ave           0 max           0 min
Histogram: 1 0 0 0 0 0 0 0 0 0
FullNghs:  2.46954e+06 ave 2.46954e+06 max 2.46954e+06 min
Histogram: 1 0 0 0 0 0 0 0 0 0

Total # of neighbors = 2469540
Ave neighs/atom = 510.23554
Ave special neighs/atom = 5.9504132
Neighbor list builds = 20699
Dangerous builds = 0

# --- Cleanup ---
unfix npt_fix

undump dump_npt

# --- Write Output ---
write_dump all custom npt_cool_melt_last.dump id type mol x y z xu yu zu vx vy vz modify sort id
write_data /home/arz2/PolyJarvis/data/PE1/lammps/equil/npt_cool_melt/npt_cool_melt_out.data
System init for write_data ...
Generated 1 of 1 mixed pair_coeff terms from arithmetic mixing rule

print "STAGE COMPLETE: NPT T=620.0->550.0K P=1.0->1.0atm steps=500000"
STAGE COMPLETE: NPT T=620.0->550.0K P=1.0->1.0atm steps=500000
quit
 | 1418.5     | 1418.5     |   0.0 | 69.62
Comm    | 37.331     | 37.331     | 37.331     |   0.0 |  1.83
Output  | 5.4241     | 5.4241     | 5.4241     |   0.0 |  0.27
Modify  | 50.287     | 50.287     | 50.287     |   0.0 |  2.47
Other   |            | 14.39      |            |       |  0.71

Nlocal:           4840 ave        4840 max        4840 min
Histogram: 1 0 0 0 0 0 0 0 0 0
Nghost:          14563 ave       14563 max       14563 min
Histogram: 1 0 0 0 0 0 0 0 0 0
Neighs:              0 ave           0 max           0 min
Histogram: 1 0 0 0 0 0 0 0 0 0
FullNghs:  2.46954e+06 ave 2.46954e+06 max 2.46954e+06 min
Histogram: 1 0 0 0 0 0 0 0 0 0

Total # of neighbors = 2469540
Ave neighs/atom = 510.23554
Ave special neighs/atom = 5.9504132
Neighbor list builds = 20699
Dangerous builds = 0
System init for write_data ...


---------------------------------------------------------------------
      Device Time Info (average): 
---------------------------------------------------------------------
Data Transfer:   34.0812 s.
Neighbor copy:   93.1126 s.
Neighbor unpack: 0.0000 s.
Force calc:      248.1304 s.
Device Overhead: 15.7984 s.
CPU Cast/Pack:   25.7928 s.
CPU Driver_Time: 6.0530 s.
CPU Idle_Time:   0.9753 s.
Average split:   1.0000.
Max Mem / Proc:  14.59 MB.
Prefetch mode:   None.
Vector width:    32.
Lanes / atom:    4.
Pair block:      256.
Neigh block:     128.
Neigh mode:      Host.
---------------------------------------------------------------------


--------------------------------------------------------------------------
- Using acceleration for lj/cut:
-  with 1 proc(s) per device.
-  with 1 thread(s) per proc.
-  Horizontal vector operations: ENABLED
-  Shared memory system: No
--------------------------------------------------------------------------
Device 0: Quadro RTX 6000, 72 CUs, 23/24 GB, 1.8 GHZ (Mixed Precision)
--------------------------------------------------------------------------

Initializing Device and compiling on process 0...Done.
Initializing Device 0 on core 0...Done.

Generated 1 of 1 mixed pair_coeff terms from arithmetic mixing rule
STAGE COMPLETE: NPT T=620.0->550.0K P=1.0->1.0atm steps=500000
Cuda driver error 4 in call at file '/home/arz2/lammps/lib/gpu/geryon/nvd_timer.h' in line 98.
Cuda driver error 4 in call at file '/home/arz2/lammps/lib/gpu/geryon/nvd_timer.h' in line 99.
Cuda driver error 4 in call at file '/home/arz2/lammps/lib/gpu/geryon/nvd_timer.h' in line 98.
Cuda driver error 4 in call at file '/home/arz2/lammps/lib/gpu/geryon/nvd_timer.h' in line 99.
Cuda driver error 4 in call at file '/home/arz2/lammps/lib/gpu/geryon/nvd_timer.h' in line 98.
Cuda driver error 4 in call at file '/home/arz2/lammps/lib/gpu/geryon/nvd_timer.h' in line 99.
