LAMMPS (22 Jul 2025 - Update 3)
KOKKOS mode with Kokkos version 4.6.2 is enabled
  will use up to 1 GPU(s) per node
  using 1 OpenMP thread(s) per MPI task
Reading data file ...
  orthogonal box = (4.1902327 4.1902327 4.1902327) to (45.1309 45.1309 45.1309)
  1 by 1 by 1 MPI processor grid
  reading atoms ...
  7020 atoms
  reading velocities ...
  7020 velocities
  scanning bonds ...
  4 = max bonds/atom
  scanning angles ...
  10 = max angles/atom
  scanning dihedrals ...
  16 = max dihedrals/atom
  scanning impropers ...
  7 = max impropers/atom
  orthogonal box = (4.1902327 4.1902327 4.1902327) to (45.1309 45.1309 45.1309)
  1 by 1 by 1 MPI processor grid
  reading bonds ...
  7010 bonds
  reading angles ...
  13000 angles
  reading dihedrals ...
  14970 dihedrals
  reading impropers ...
  8000 impropers
Finding 1-2 1-3 1-4 neighbors ...
  special bond factors lj:    0        0        1       
  special bond factors coul:  0        0        1       
     4 = max # of 1-2 neighbors
     6 = max # of 1-3 neighbors
     8 = max # of special neighbors
  special bonds CPU = 0.004 seconds
  read_data CPU = 0.271 seconds
Finding SHAKE clusters ...
      10 = # of size 2 clusters
    1990 = # of size 3 clusters
      10 = # of size 4 clusters
       0 = # of frozen angles
  find clusters CPU = 0.002 seconds
PPPM Kokkos initialization ...
  using 12-bit tables for long-range coulomb
  G vector (1/distance) = 0.30326058
  grid = 30 30 30
  stencil order = 5
  estimated absolute RMS force accuracy = 0.00030314567
  estimated relative force accuracy = 9.1291418e-07
  using double precision cuFFT
  3d grid and FFT values/proc = 50653 27000
Generated 10 of 10 mixed pair_coeff terms from sixthpower/sixthpower mixing rule
Neighbor list info ...
  update: every = 1 steps, delay = 0 steps, check = yes
  max neighbors/atom: 4000, page size: 100000
  master list distance cutoff = 11.5
  ghost atom cutoff = 11.5
  binsize = 11.5, bins = 4 4 4
  1 neighbor lists, perpetual/occasional/extra = 1 0 0
  (1) pair lj/class2/coul/long/kk, perpetual
      attributes: full, newton off, kokkos_device
      pair build: full/bin/kk/device
      stencil: full/bin/3d
      bin: kk/device
Setting up Verlet run ...
  Unit style    : real
  Current step  : 0
  Time step     : 1
Per MPI rank memory allocation (min/avg/max) = 34.19 | 34.19 | 34.19 Mbytes
   Step          Time           Temp          Press         Enthalpy        TotEng         KinEng         PotEng         E_bond        E_angle        E_dihed        E_impro         E_vdwl         E_coul         E_long         E_tail         Volume           Lx             Ly             Lz          Density          Pxx            Pyy            Pzz      
         0   0              369.79973     -2240.4607      418.91556      2661.1343      6259.9774     -3598.8431      986.44874      5000.7872     -8519.0952     -54.480725     -3049.1482      6929.1957     -4892.5505     -467.81807      68622.219      40.940667      40.940667      40.940667      1.0665082     -2186.7937     -2671.6068     -1862.9817    
       100   100            303.69582      2003.6601      3510.5423      1524.8515      5140.9691     -3616.1175      968.0778       4938.0271     -8521.4261     -54.710423     -2993.5935      6940.8965     -4893.389      -472.42195      67953.477      40.80724       40.80724       40.80724       1.0770039      3233.4227      954.62998      1822.9276    
       200   200            297.8025       914.16771      2306.2529      1414.872       5041.2067     -3626.3348      1000.8322      4860.0866     -8449.4473     -49.503224     -3032.5042      6939.6069     -4895.4057     -480.15357      66859.263      40.587023      40.587023      40.587023      1.0946301      1172.5242      801.33723      768.64173    
       300   300            299.82674      3043.0851      4329.1893      1400.5248      5075.4731     -3674.9483      950.80162      4857.3153     -8465.1307     -51.586843     -3018.7807      6944.7443     -4892.3113     -486.47677      65990.23       40.410406      40.410406      40.410406      1.1090454      2551.9968      2585.0646      3992.194     
       400   400            296.78801      3550.7618      4779.9835      1386.2892      5024.0335     -3637.7443      956.91907      4963.1357     -8474.1869     -52.989721     -3054.6577      6920.5982     -4896.563      -489.85376      65535.301      40.31733       40.31733       40.31733       1.1167441      3831.856       4467.4056      2353.0237    
       500   500            298.29155      3820.5637      5020.7215      1378.3816      5049.4855     -3671.1038      962.30112      4917.2506     -8497.6337     -52.078287     -3042.4583      6936.7144     -4895.1996     -491.09397      65369.797      40.283362      40.283362      40.283362      1.1195715      2557.9776      4433.9042      4469.8092    
       600   600            301.27602      3105.8787      4327.6977      1364.4711      5100.0066     -3735.5356      959.75783      4851.3356     -8464.8882     -50.524022     -3068.8309      6930.5562     -4892.9422     -490.72395      65419.089      40.293485      40.293485      40.293485      1.1187279      4594.3817      2220.1671      2503.0872    
       700   700            297.36744      3675.3445      4821.9733      1312.8703      5033.842      -3720.9717      939.44564      4910.8166     -8462.139      -53.234923     -3085.8558      6924.3212     -4894.3253     -490.36512      65466.96       40.303311      40.303311      40.303311      1.1179099      3831.1911      3628.5963      3566.246     
       800   800            300.42191      2061.994       3252.3103      1281.8302      5085.5482     -3803.718       922.68787      4902.3114     -8484.7733     -50.36214      -3118.9667      6921.8176     -4896.4327     -489.92881      65525.262      40.315271      40.315271      40.315271      1.1169152      1937.221       1583.3133      2665.4477    
       900   900            300.52893      2422.3667      3651.1305      1338.0857      5087.3598     -3749.2741      975.55927      4885.2404     -8476.5626     -53.668037     -3107.2962      6922.7737     -4895.3206     -490.31307      65473.909      40.304737      40.304737      40.304737      1.1177912      2986.4918      1138.1999      3142.4083    
      1000   1000           302.05399      3506.9363      4766.783       1425.4847      5113.1761     -3687.6913      997.84315      4938.828      -8505.9846     -50.775021     -3086.3958      6915.5418     -4896.7489     -491.39447      65329.822      40.275149      40.275149      40.275149      1.1202565      3434.5145      3577.0105      3509.2838    
      1100   1100           303.87227      3265.0807      4550.494       1441.4385      5143.956      -3702.5174      988.12283      4937.7766     -8519.8702     -53.492726     -3090.3178      6929.8695     -4894.6056     -491.68061      65291.803      40.267335      40.267335      40.267335      1.1209089      2761.1891      3319.9079      3714.1449    
      1200   1200           296.34399      3008.2747      4175.7569      1307.3795      5016.5171     -3709.1377      975.76514      4947.9227     -8473.6671     -51.272004     -3133.4765      6920.3951     -4894.8049     -491.01961      65379.698      40.285396      40.285396      40.285396      1.1194019      3229.6024      1584.2785      4210.9432    
      1300   1300           300.50853      2096.2653      3264.6188      1264.8565      5087.0145     -3822.1579      924.87791      4824.8858     -8414.6167     -51.039839     -3129.1827      6918.7984     -4895.8808     -490.77849      65411.819      40.291992      40.291992      40.291992      1.1188522      1220.5154      2133.9838      2934.2967    
      1400   1400           302.61249      2824.1368      4021.9558      1336.1186      5122.6303     -3786.5117      961.72793      4874.1541     -8461.3571     -45.855365     -3140.7452      6918.974      -4893.4101     -492.29301      65210.582      40.250631      40.250631      40.250631      1.122305       3919.8511      2569.0477      1983.5115    
      1500   1500           304.38988      3333.0477      4586.2772      1425.0266      5152.7181     -3727.6915      973.77861      4881.0208     -8450.9426     -51.663163     -3129.9252      6942.2415     -4892.2015     -493.62852      65034.155      40.214299      40.214299      40.214299      1.1253496      2711.5855      2538.8543      4748.7034    
      1600   1600           307.71851      3729.274       5119.5102      1586.6241      5209.0652     -3622.4411      984.08596      4980.9516     -8479.5711     -49.928422     -3088.0813      6927.3683     -4897.2662     -494.21087      64957.522      40.198497      40.198497      40.198497      1.1266772      3257.6935      3446.7803      4483.3482    
      1700   1700           304.15759      3123.682       4505.9233      1538.596       5148.7858     -3610.1899      972.40044      5051.0539     -8496.2772     -55.073388     -3104.5281      6918.985      -4896.7506     -492.8548       65136.25       40.235332      40.235332      40.235332      1.1235857      3543.8663      2223.2261      3603.9534    
      1800   1800           301.45072      3794.0772      5072.0257      1451.5525      5102.9639     -3651.4114      967.3886       4957.2501     -8442.2399     -51.611126     -3104.5745      6919.272      -4896.8966     -490.63493      65430.959      40.295922      40.295922      40.295922      1.1185249      3119.2452      3386.0947      4876.8917    
      1900   1900           299.80804      2129.0259      3421.9336      1383.0551      5075.1565     -3692.1014      1009.3751      4949.5908     -8471.8148     -52.140014     -3154.2825      6925.7209     -4898.5509     -488.88558      65665.086      40.343927      40.343927      40.343927      1.1145369      2974.5738      611.04587      2801.458     
      2000   2000           293.95456      3262.3511      4445.7829      1318.9813      4976.0687     -3657.0874      994.88881      4997.4384     -8477.4044     -53.954896     -3148.6031      6928.7068     -4898.159      -488.48137      65719.422      40.355052      40.355052      40.355052      1.1136154      2806.0789      3619.3186      3361.6557    
      2100   2100           298.60082      2130.1537      3344.0562      1305.6651      5054.7207     -3749.0556      974.30289      4802.4724     -8431.3483     -51.433953     -3079.2728      6930.9376     -4894.7135     -489.26153      65614.628      40.333591      40.333591      40.333591      1.115394       2429.8957      2425.4355      1535.13      
      2200   2200           301.28718      3307.903       4546.6103      1390.1052      5100.1954     -3710.0903      1016.0977      4890.738      -8513.3331     -49.292779     -3092.5411      6933.3519     -4895.111      -490.64108      65430.138      40.295753      40.295753      40.295753      1.118539       4530.363       2383.044       3010.3021    
      2300   2300           298.93361      2727.3827      4097.563       1498.1658      5060.3542     -3562.1885      1005.2796      5073.3919     -8478.4919     -53.488071     -3138.6847      6929.1766     -4899.3719     -491.23699      65350.765      40.279453      40.279453      40.279453      1.1198975      1296.6063      2982.9737      3902.568     
      2400   2400           305.56496      2394.1229      3747.6151      1467.0223      5172.6099     -3705.5876      970.05911      4876.061      -8432.6376     -52.603168     -3108.4462      6939.8624     -4897.883      -491.49188      65316.875      40.272489      40.272489      40.272489      1.1204786      1658.4576      2416.3945      3107.5167    
      2500   2500           298.1237       2650.0156      3889.5322      1365.5309      5046.644      -3681.1132      974.5914       4907.0602     -8405.535      -53.273696     -3138.543       6929.3166     -4894.7296     -491.55992      65307.833      40.27063       40.27063       40.27063       1.1206337      1710.4656      2262.0662      3977.5148    
      2600   2600           298.86018      3711.493       4866.4725      1337.7463      5059.1112     -3721.3649      973.03436      4992.1074     -8541.5134     -53.591518     -3113.7883      6922.4763     -4900.0897     -492.43431      65191.87       40.246781      40.246781      40.246781      1.1226271      4657.1453      2453.0007      4024.3329    
      2700   2700           301.47112      2703.0399      3888.2592      1316.1115      5103.3092     -3787.1977      960.62569      4869.7675     -8443.3016     -50.559685     -3147.7919      6921.6879     -4897.6256     -492.01031      65248.051      40.258339      40.258339      40.258339      1.1216605      3880.5504      2660.5371      1568.0323    
      2800   2800           300.06192      2704.4624      3887.1847      1310.7716      5079.4543     -3768.6826      984.63977      4877.6848     -8462.943      -51.755261     -3131.5127      6913.6414     -4898.4377     -491.45423      65321.878      40.273517      40.273517      40.273517      1.1203928      3947.1935      2547.9216      1618.272     
      2900   2900           300.90917      2172.6289      3379.3513      1308.8249      5093.7964     -3784.9715      1010.9468      4886.6385     -8520.3906     -49.584369     -3136.6712      6922.0047     -4897.9154     -491.27246      65346.048      40.278483      40.278483      40.278483      1.1199784      2695.4473      2026.4028      1796.0365    
      3000   3000           302.77295      3453.6811      4623.6517      1337.1207      5125.3467     -3788.226       955.55586      4857.4037     -8458.5865     -51.452253     -3125.9805      6930.802      -4895.9684     -491.99664      65249.863      40.258711      40.258711      40.258711      1.1216293      5020.4266      3084.5961      2256.0207    
      3100   3100           301.40935      3360.0233      4560.4924      1367.0733      5102.2636     -3735.1903      979.11435      4929.4246     -8504.6531     -53.425204     -3116.637       6927.3751     -4896.3891     -492.61088      65168.503      40.241971      40.241971      40.241971      1.1230296      2622.6781      3571.3831      3886.0086    
      3200   3200           299.14042      3452.8332      4635.4431      1359.0771      5063.855      -3704.7779      1005.444       4897.0085     -8434.2255     -55.577778     -3148.1902      6925.4671     -4894.704      -493.40191      65064.024      40.220454      40.220454      40.220454      1.124833       4681.7243      3044.7918      2631.9833    
      3300   3300           298.86542      3873.8094      4945.5533      1273.8485      5059.1999     -3785.3513      987.25188      4838.7137     -8449.7697     -50.571976     -3149.3635      6934.1151     -4895.7268     -493.95585      64991.059      40.205414      40.205414      40.205414      1.1260958      4553.5698      3426.6229      3641.2355    
      3400   3400           292.6737       2643.3727      3748.3456      1236.5068      4954.3863     -3717.8795      955.16415      4904.0867     -8410.648      -56.943718     -3134.3783      6920.7721     -4895.9325     -492.70193      65156.46       40.239492      40.239492      40.239492      1.1232372      3712.9825      2405.0532      1812.0824    
      3500   3500           304.61303      3359.9117      4570.5486      1373.0135      5156.4956     -3783.4821      952.60384      4882.4262     -8466.7275     -54.542293     -3119.3836      6920.6749     -4898.5335     -491.96045      65254.664      40.259699      40.259699      40.259699      1.1215468      3568.788       4295.1808      2215.7664    
      3600   3600           304.21953      2631.2913      3940.5424      1433.0254      5149.8344     -3716.809       1006.6137      4911.7919     -8487.7748     -57.31196      -3117.0237      6923.7903     -4896.8945     -491.29536      65343.002      40.277858      40.277858      40.277858      1.1200306      1746.0836      2257.8845      3889.9056    
      3700   3700           304.57741      2515.7972      3796.6202      1394.4466      5155.8925     -3761.4459      1003.5873      4782.1486     -8428.7008     -51.286217     -3091.5622      6921.5271     -4897.1597     -490.33046      65471.588      40.304261      40.304261      40.304261      1.1178308      3203.8008      3264.5916      1078.9991    
      3800   3800           297.97098      2547.4262      3746.9654      1313.441       5044.0588     -3730.6177      992.88769      4952.6466     -8500.3986     -57.241808     -3137.4392      6918.1944     -4899.2668     -490.09869      65502.549      40.310613      40.310613      40.310613      1.1173025      2427.9283      2284.7719      2929.5783    
      3900   3900           290.91296      3437.9935      4545.8911      1270.0164      4924.5806     -3654.5642      988.00624      4982.5455     -8480.3092     -51.099907     -3141.5892      6942.868      -4894.9856     -491.35503      65335.067      40.276227      40.276227      40.276227      1.1201666      3789.9236      3111.5271      3412.5298    
      4000   4000           299.66324      4176.7478      5354.9135      1385.9827      5072.7055     -3686.7227      999.86067      4906.1852     -8476.5087     -55.224864     -3094.8663      6927.8457     -4894.0145     -492.69977      65156.745      40.239551      40.239551      40.239551      1.1232323      5117.4665      3085.671       4327.1058    
      4100   4100           299.84056      2521.3267      3897.9226      1503.3952      5075.7071     -3572.3119      983.8651       5034.5512     -8449.0862     -50.220999     -3133.2914      6934.473      -4892.6025     -492.97732      65120.062      40.231998      40.231998      40.231998      1.123865       2048.5421      2996.7454      2518.6925    
      4200   4200           306.57306      3531.3304      4824.7914      1471.7363      5189.675      -3717.9387      1010.848       4870.2768     -8439.1963     -53.377404     -3134.38        6924.047      -4896.1568     -493.07762      65106.815      40.22927       40.22927       40.22927       1.1240937      3429.2184      4082.3457      3082.427     
      4300   4300           301.55373      2554.685       3778.7853      1352.0161      5104.7077     -3752.6916      992.4442       4903.4736     -8457.0064     -52.833362     -3162.5155      6920.1143     -4896.3684     -492.86333      65135.123      40.235099      40.235099      40.235099      1.1236052      2524.6642      3337.5394      1801.8513    
      4400   4400           296.24087      3529.8526      4648.7906      1295.4129      5014.7714     -3719.3585      1002.3013      4842.9066     -8437.2621     -50.790302     -3098.2881      6921.6565     -4899.8824     -492.82386      65140.339      40.236173      40.236173      40.236173      1.1235152      3934.2192      3832.4551      2822.8834    
      4500   4500           298.17845      2481.4975      3691.7885      1332.4011      5047.5708     -3715.1697      1025.729       4950.6646     -8464.4198     -52.860969     -3186.8561      6912.1229     -4899.5494     -492.41606      65194.287      40.247278      40.247278      40.247278      1.1225855      3355.9793      2056.3898      2032.1233    
      4600   4600           301.54454      3405.7674      4650.3288      1415.3805      5104.5522     -3689.1717      1006.8214      4876.0848     -8469.6817     -53.833255     -3053.8047      6906.2328     -4900.991      -492.90733      65129.308      40.233902      40.233902      40.233902      1.1237055      4022.5718      2821.3534      3373.3771    
      4700   4700           302.46945      3500.3811      4789.913       1460.502       5120.2091     -3659.7071      1024.0381      4921.8468     -8444.208      -50.544955     -3132.6281      6920.3046     -4898.5154     -492.22713      65219.31       40.252426      40.252426      40.252426      1.1221548      3640.3893      3522.1565      3338.5975    
      4800   4800           300.21489      2327.2104      3670.4757      1451.7587      5082.0438     -3630.2851      1005.8816      4977.4976     -8465.7666     -51.605044     -3134.2663      6932.8165     -4894.8429     -491.07902      65371.788      40.283771      40.283771      40.283771      1.1195374      2111.9035      3133.9714      1735.7564    
      4900   4900           296.09015      2518.1299      3724.4571      1319.7054      5012.2201     -3692.5147      1002.3718      4900.471      -8424.9212     -53.053085     -3149.502       6929.5067     -4897.3878     -490.25895      65481.137      40.30622       40.30622       40.30622       1.1176678      3070.2332      2145.9236      2338.2328    
      5000   5000           295.07007      2158.8859      3314.8617      1257.9358      4994.9521     -3737.0163      984.26632      4905.1458     -8468.5877     -50.710642     -3137.6848      6925.2512     -4894.6965     -491.39268      65330.06       40.275198      40.275198      40.275198      1.1202524      2211.9364      2760.6302      1504.0909    
      5100   5100           296.46288      3734.3307      4854.9682      1316.6804      5018.5297     -3701.8493      1001.7403      4962.121      -8491.7954     -50.863573     -3162.944       6934.3792     -4894.4867     -494.12549      64968.746      40.200812      40.200812      40.200812      1.1264826      4159.4382      3600.7942      3442.7599    
      5200   5200           296.87824      3505.1638      4716.4625      1404.6425      5025.5608     -3620.9183      987.74611      5044.1531     -8488.7262     -54.37204      -3141.7687      6927.0671     -4895.0178     -495.51775      64786.203      40.163126      40.163126      40.163126      1.1296566      2392.1303      4357.2774      3766.0837    
      5300   5300           302.99268      2952.7712      4271.2136      1476.5768      5129.0662     -3652.4894      996.64215      4926.3502     -8436.6909     -51.594572     -3109.8282      6917.3362     -4894.7043     -494.6774       64896.261      40.185856      40.185856      40.185856      1.1277408      3125.9829      4162.3032      1570.0276    
      5400   5400           300.64432      3675.1607      4902.8274      1413.6028      5089.3131     -3675.7104      987.31996      4978.2764     -8494.8542     -51.692364     -3136.6269      6936.5536     -4894.6868     -493.13411      65099.357      40.227734      40.227734      40.227734      1.1242225      3288.5737      2406.1717      5330.7368    
      5500   5500           294.38522      2291.2341      3427.1246      1245.581       4983.359      -3737.778       989.91892      4897.4824     -8467.2275     -53.98472      -3145.4421      6933.8617     -4892.3868     -491.72603      65285.772      40.266095      40.266095      40.266095      1.1210124      1570.1573      2944.6524      2358.8927    
      5600   5600           289.79147      3148.8344      4258.8143      1260.7375      4905.5959     -3644.8584      986.69676      4983.5082     -8486.9093     -49.009692     -3125.5553      6941.3761     -4894.9651     -491.72773      65285.547      40.266049      40.266049      40.266049      1.1210163      3438.7053      2993.0171      3014.7807    
      5700   5700           298.28079      2274.9889      3523.6839      1358.319       5049.3033     -3690.9843      976.83861      4899.796      -8437.5094     -52.194049     -3122.9278      6935.5092     -4890.4969     -491.88753      65264.337      40.261688      40.261688      40.261688      1.1213806      1379.6632      3041.2773      2404.0264    
      5800   5800           300.9833       3500.9072      4749.7523      1424.5499      5095.0513     -3670.5015      1002.6175      4967.012      -8472.4876     -51.441663     -3162.5793      6940.7801     -4894.4026     -492.92421      65127.079      40.233443      40.233443      40.233443      1.1237439      4312.6645      3082.4462      3107.611     
      5900   5900           297.43029      3012.4635      4292.9549      1430.8918      5034.906      -3604.0142      1043.7459      4992.2806     -8469.724      -51.463677     -3157.1494      6930.8225     -4892.5261     -492.78812      65145.064      40.237146      40.237146      40.237146      1.1234337      3321.0739      3473.2688      2243.0477    
      6000   6000           297.82601      2894.233       4083.02        1329.8223      5041.6047     -3711.7824      988.08874      4955.142      -8465.6315     -50.49199      -3173.9729      6928.839      -4893.7558     -492.16838      65227.095      40.254028      40.254028      40.254028      1.1220208      3168.3391      2860.9101      2653.4497    
      6100   6100           293.19534      3717.9591      4756.9688      1224.3029      4963.2166     -3738.9137      984.05039      4865.6287     -8462.0722     -46.581745     -3123.7425      6937.103      -4893.2994     -492.74211      65151.148      40.238399      40.238399      40.238399      1.1233288      4272.1902      2228.9417      4652.7455    
      6200   6200           297.8041       1960.7073      3139.7539      1279.1101      5041.2338     -3762.1237      971.8954       4933.6403     -8471.3227     -52.831694     -3174.8382      6924.3656     -4893.0324     -493.36367      65069.067      40.221494      40.221494      40.221494      1.1247458      1104.9998      2255.5816      2521.5406    
      6300   6300           298.996        3466.0931      4663.9479      1385.5155      5061.4104     -3675.8949      1050.2966      4940.8734     -8512.24       -52.98404      -3148.2217      6936.9805     -4890.5997     -494.98453      64855.993      40.177543      40.177543      40.177543      1.128441       3127.9732      2744.1197      4526.1862    
      6400   6400           298.54763      3308.6124      4524.1552      1397.8121      5053.8203     -3656.0082      1024.6344      4887.6989     -8413.9667     -47.905296     -3134.6789      6922.719      -4894.5096     -495.48086      64791.026      40.164123      40.164123      40.164123      1.1295725      3104.9074      4453.0117      2367.9181    
      6500   6500           300.39111      3380.1616      4581.2731      1381.8153      5085.0267     -3703.2115      1001.2251      4891.1021     -8485.2635     -49.806387     -3106.7119      6941.0324     -4894.7894     -494.62801      64902.741      40.187194      40.187194      40.187194      1.1276282      3923.868       3292.2256      2924.3912    
      6600   6600           298.9218       2985.0007      4157.3644      1322.412       5060.1544     -3737.7424      1046.5496      4834.1376     -8439.6012     -53.683632     -3160.9772      6931.5489     -4895.7165     -492.96523      65121.659      40.232327      40.232327      40.232327      1.1238375      3232.3503      3302.0053      2420.6464    
      6700   6700           296.59667      3173.7597      4191.9467      1171.061       5020.7944     -3849.7334      976.82305      4870.3866     -8517.5436     -51.676712     -3168.2716      6934.67       -4894.1211     -491.87797      65265.605      40.261949      40.261949      40.261949      1.1213588      2805.6665      3435.7508      3279.8617    
      6800   6800           292.35379      3051.6156      4037.7126      1131.4302      4948.9709     -3817.5407      987.67102      4853.799      -8524.9534     -50.668169     -3131.5347      6941.8567     -4893.7112     -491.59749      65302.842      40.269604      40.269604      40.269604      1.1207194      3514.8614      2540.6326      3099.3529    
      6900   6900           296.83304      2614.3521      3727.3463      1233.8846      5024.7957     -3790.9111      973.44624      4876.7644     -8510.8073     -50.949258     -3117.886       6932.1113     -4893.5904     -490.88414      65397.74       40.289101      40.289101      40.289101      1.1190931      3204.6129      2588.4961      2049.9473    
      7000   7000           302.71144      2793.2353      3982.4484      1317.9772      5124.3054     -3806.3282      1009.3028      4811.3742     -8470.3526     -50.668095     -3145.3857      6933.8974     -4894.4961     -490.81082      65407.509      40.291107      40.291107      40.291107      1.1189259      4143.4691      1451.4736      2784.7633    
      7100   7100           298.8754       3457.5169      4664.0196      1370.4588      5059.3688     -3688.91        1026.2771      4940.734      -8510.8019     -50.952111     -3136.6574      6936.4031     -4893.9127     -491.49178      65316.888      40.272491      40.272491      40.272491      1.1204784      3740.7187      4498.5298      2133.3022    
      7200   7200           303.46192      2390.703       3705.4265      1429.242       5137.0095     -3707.7675      1011.1618      4895.51       -8444.7323     -50.649097     -3158.3178      6931.2188     -4891.959      -491.7403       65283.877      40.265706      40.265706      40.265706      1.1210449      3580.6048      2628.2088      963.29545    
      7300   7300           303.9955       2682.494       3991.8358      1445.3316      5146.0419     -3700.7103      1055.9464      4815.1361     -8422.6784     -51.536834     -3134.1077      6929.3145     -4892.7844     -493.18743      65092.319      40.226284      40.226284      40.226284      1.124344       1925.0342      4048.5432      2073.9045    
      7400   7400           299.37066      4359.4175      5444.3627      1314.1001      5067.7526     -3753.6524      989.43261      4936.0613     -8526.2939     -48.71642      -3149.5927      6936.7784     -4891.3217     -494.16097      64964.081      40.19985       40.19985       40.19985       1.1265634      4639.728       4428.2342      4010.2904    
      7500   7500           298.8489       1537.6786      2715.0239      1256.6047      5058.9202     -3802.3154      1021.0746      4802.5292     -8437.7602     -49.743784     -3172.2964      6929.3193     -4895.4381     -493.62918      65034.068      40.214281      40.214281      40.214281      1.1253511      1468.3876      1204.4039      1940.2442    
      7600   7600           301.60453      2992.1178      4136.8123      1296.9561      5105.5676     -3808.6115      1014.8443      4881.3679     -8511.2633     -52.457564     -3188.8453      6939.3953     -4891.6528     -493.28734      65079.136      40.223568      40.223568      40.223568      1.1245718      2775.645       4232.5655      1968.1428    
      7700   7700           305.18857      3001.9761      4254.4152      1404.3067      5166.2382     -3761.9316      992.66771      4896.5484     -8487.2297     -53.558072     -3153.0364      6933.8984     -4891.2218     -493.13231      65099.595      40.227783      40.227783      40.227783      1.1242184      4541.5925      2196.7904      2267.5454    
      7800   7800           304.20584      2685.7464      3997.7113      1448.697       5149.6027     -3700.9057      1012.1462      4854.7661     -8434.2048     -50.105021     -3125.2682      6934.3522     -4892.5922     -493.29915      65077.577      40.223247      40.223247      40.223247      1.1245987      3484.2984      3031.8061      1541.1347    
      7900   7900           300.57444      3223.6706      4352.7069      1297.3827      5088.1302     -3790.7476      975.12713      4941.8541     -8498.3804     -51.013664     -3200.0658      6934.5368     -4892.8059     -493.98185      64987.639      40.204709      40.204709      40.204709      1.1261551      1979.9526      3236.6771      4454.382     
      8000   8000           297.152        2473.853       3577.1301      1233.6368      5030.195      -3796.5583      989.25074      4849.8316     -8466.36       -51.427339     -3160.226       6934.1942     -4891.8214     -494.22853      64955.201      40.198018      40.198018      40.198018      1.1267175      2623.5601      1796.2808      3001.7181    
      8100   8100           301.68364      3520.5052      4620.9319      1286.6914      5106.9068     -3820.2154      979.60025      4896.3363     -8480.3775     -51.503824     -3193.9271      6923.5695     -4893.9131     -494.33994      64940.562      40.194998      40.194998      40.194998      1.1269715      3113.1976      3096.5466      4351.7715    
      8200   8200           302.08113      2676.3441      3921.8823      1386.8684      5113.6355     -3726.7671      980.71511      4990.9317     -8533.1092     -52.386777     -3159.1005      6937.3268     -4891.1442     -494.28706      64947.509      40.196432      40.196432      40.196432      1.1268509      3335.0927      1880.7631      2813.1766    
      8300   8300           302.67498      2105.5199      3391.3462      1395.6538      5123.6881     -3728.0343      1016.2145      4968.5477     -8496.1893     -53.440064     -3213.3147      6939.8253     -4889.6778     -493.95045      64991.77       40.20556       40.20556       40.20556       1.1260835      1711.4207      2668.2788      1936.8602    
      8400   8400           294.38738      3092.1593      4234.5758      1309.6671      4983.3955     -3673.7284      1022.5783      4911.0049     -8471.3666     -50.21134      -3120.2688      6926.6597     -4892.1244     -494.95666      64859.646      40.178297      40.178297      40.178297      1.1283774      2696.6172      3532.0515      3047.809     
      8500   8500           298.94891      3829.9692      4823.0194      1200.8302      5060.6132     -3859.7831      981.07246      4848.8944     -8548.3505     -52.186454     -3138.6299      6939.4466     -4890.0297     -495.0417       64848.504      40.175996      40.175996      40.175996      1.1285713      3330.8156      4300.1298      3858.9622    
      8600   8600           298.65501      2656.3694      3726.5867      1208.944       5055.638      -3846.694       983.4185       4821.7188     -8432.6466     -50.631823     -3204.7369      6930.2663     -4894.0822     -493.98301      64987.485      40.204677      40.204677      40.204677      1.1261578      3501.7638      2509.1036      1958.2409    
      8700   8700           299.94052      3369.3727      4448.9346      1249.8276      5077.3992     -3827.5717      1016.0593      4779.8114     -8492.2594     -50.135888     -3127.0542      6935.0274     -4889.0202     -493.1033       65103.425      40.228572      40.228572      40.228572      1.1241522      2373.466       4815.0575      2919.5944    
      8800   8800           296.99226      2425.8553      3622.8525      1312.764       5027.4911     -3714.7271      1060.6472      4793.8331     -8409.553      -52.284352     -3147.906       6930.9551     -4890.4192     -491.64758      65296.19       40.268237      40.268237      40.268237      1.1208335      4426.4442      1223.5985      1627.5233    
      8900   8900           297.88145      3010.6994      4252.7601      1387.2695      5042.5433     -3655.2738      998.2851       4927.875      -8430.327      -51.391299     -3143.4957      6937.9575     -4894.1774     -491.91045      65261.297      40.261063      40.261063      40.261063      1.1214328      1469.6526      4136.0285      3426.4171    
      9000   9000           301.72536      3545.6811      4793.6365      1424.2201      5107.613      -3683.3929      1035.4458      4948.6397     -8526.7691     -54.983492     -3119.4491      6928.5962     -4894.8729     -492.67737      65159.708      40.240161      40.240161      40.240161      1.1231812      4183.9913      3115.2223      3337.8297    
      9100   9100           297.32994      2570.9689      3779.6125      1338.5019      5033.2072     -3694.7053      1012.7866      4891.3268     -8459.4941     -50.060242     -3126.1963      6933.0148     -4896.0829     -493.09092      65105.059      40.228908      40.228908      40.228908      1.124124       904.74728      3424.3864      3383.7729    
      9200   9200           296.20028      3255.512       4307.3044      1220.7388      5014.0844     -3793.3456      1015.1917      4814.4009     -8501.8373     -52.613126     -3122.5911      6941.3565     -4887.2532     -493.81177      65010.021      40.209324      40.209324      40.209324      1.1257674      2817.4418      4128.2652      2820.829     
      9300   9300           297.26031      3811.5719      4854.4795      1241.5178      5032.0286     -3790.5108      984.22195      4863.7798     -8503.5086     -50.577046     -3136.546       6944.5211     -4892.402      -493.92202      64995.51       40.206332      40.206332      40.206332      1.1260187      3758.9022      3978.7859      3697.0275    
      9400   9400           301.10893      2610.3175      3782.4723      1306.9194      5097.178      -3790.2586      974.9589       4867.7353     -8487.8203     -51.255171     -3144.8188      6941.0069     -4890.0654     -493.6723       65028.387      40.21311       40.21311       40.21311       1.1254494      2834.6619      2588.6835      2407.6071    
      9500   9500           302.82628      2715.7181      3954.4902      1375.2124      5126.2493     -3751.0369      976.14806      4956.0368     -8517.5765     -53.159357     -3153.3298      6934.4119     -4893.568      -492.95153      65123.469      40.2327        40.2327        40.2327        1.1238062      3453.0554      2437.4236      2256.6754    
      9600   9600           305.51091      3732.8598      4962.9916      1415.2363      5171.6949     -3756.4586      994.12485      4882.0636     -8517.0232     -51.347001     -3114.4505      6940.0955     -4889.9218     -492.61276      65168.254      40.24192       40.24192       40.24192       1.1230339      4026.775       3264.9569      3906.8476    
      9700   9700           298.41632      2927.7795      3994.1147      1205.2414      5051.5976     -3846.3562      969.18971      4882.1286     -8512.5731     -48.944925     -3180.0366      6936.6841     -4892.8041     -491.50418      65315.24       40.272153      40.272153      40.272153      1.1205066      2427.5621      1924.7558      4431.0206    
      9800   9800           297.80442      3692.9086      4695.4736      1181.8733      5041.2393     -3859.366       948.35645      4874.6635     -8529.6139     -48.771097     -3137.8118      6927.3122     -4893.5014     -492.07787      65239.092      40.256496      40.256496      40.256496      1.1218145      5545.3982      3354.8938      2178.4338    
      9900   9900           296.8188       3148.5515      4274.5856      1284.8546      5024.5547     -3739.7001      1018.6342      4873.3559     -8465.3068     -48.790945     -3162.0891      6933.8089     -4889.3123     -493.05608      65109.659      40.229856      40.229856      40.229856      1.1240446      3814.4524      2945.0622      2686.14      
     10000   10000          300.16652      3652.6063      4845.9395      1386.515       5081.2249     -3694.7098      1013.8193      4925.6507     -8456.8036     -52.537536     -3171.7649      6938.6384     -4891.7121     -494.32963      64941.917      40.195278      40.195278      40.195278      1.1269479      3509.9708      5166.8409      2281.0071    
     10100   10100          302.42252      3185.9847      4417.9823      1407.2582      5119.4145     -3712.1563      1031.851       4921.433      -8527.0536     -53.371798     -3120.4002      6926.2364     -4890.8512     -495.43919      64796.476      40.165249      40.165249      40.165249      1.1294775      2104.8901      3220.779       4232.2851    
     10200   10200          297.77182      3120.5031      4251.4614      1300.7066      5040.6875     -3739.9809      1038.087       4876.7369     -8482.6615     -50.916862     -3169.7965      6938.7045     -4890.1344     -495.11848      64838.448      40.173919      40.173919      40.173919      1.1287463      2584.7437      3310.7013      3466.0643    
     10300   10300          301.6148       2707.6989      3784.0948      1221.3732      5105.7415     -3884.3683      989.29187      4894.8216     -8538.8844     -53.73369      -3210.2208      6927.3587     -4893.0015     -494.67113      64897.083      40.186026      40.186026      40.186026      1.1277265      2527.8278      3339.654       2255.615     
     10400   10400          295.92411      2852.4611      3944.5526      1246.3826      5009.4093     -3763.0268      994.97089      4902.6831     -8502.9175     -50.909247     -3158.1677      6939.9994     -4888.6857     -494.95767      64859.514      40.17827       40.17827       40.17827       1.1283797      3209.7623      2776.4412      2571.1798    
     10500   10500          300.71886      2064.7283      3260.1167      1306.2316      5090.575      -3784.3434      1023.9535      4875.5856     -8494.4365     -52.704577     -3171.1986      6926.044      -4891.5869     -494.74514      64887.376      40.184022      40.184022      40.184022      1.1278952      1581.4191      1818.6016      2794.1642    
     10600   10600          303.31847      2754.0831      3939.51        1337.1955      5134.5812     -3797.3857      959.27247      4971.5372     -8501.9167     -50.477358     -3213.6942      6928.8066     -4890.9137     -495.49         64789.831      40.163876      40.163876      40.163876      1.1295933      2898.8087      3609.1989      1754.2417    
     10700   10700          297.26971      3219.7998      4374.3349      1339.3425      5032.1877     -3692.8453      997.32763      4996.403      -8475          -50.967166     -3182.903       6915.7117     -4893.4175     -496.69398      64632.782      40.131398      40.131398      40.131398      1.1323381      2713.7728      2978.7959      3966.8308    
     10800   10800          299.36902      3660.2796      4764.3912      1310.9506      5067.7248     -3756.7741      994.07954      4972.1972     -8524.0848     -52.104365     -3174.8266      6922.5403     -4894.5754     -496.22644      64693.678      40.143997      40.143997      40.143997      1.1312722      3339.0357      3728.6157      3913.1872    
     10900   10900          298.82692      2307.0534      3423.6713      1239.5001      5058.5481     -3819.048       1031.4346      4783.0174     -8430.9772     -49.577167     -3191.3535      6930.502      -4892.0941     -494.52539      64916.209      40.189973      40.189973      40.189973      1.1273942      1887.675       2240.8763      2792.6088    
     11000   11000          301.54897      4019.5111      5032.5991      1223.6754      5104.6271     -3880.9517      942.93275      4852.3179     -8516.057      -50.182674     -3147.2172      6930.8479     -4893.5934     -494.07012      64976.027      40.202314      40.202314      40.202314      1.1263563      3960.869       4924.7672      3172.897     
     11100   11100          298.47843      1824.6535      2985.2343      1250.6492      5052.6489     -3801.9997      1000.2439      4871.864      -8485.9202     -51.332678     -3177.1059      6934.0146     -4893.7634     -492.49568      65183.746      40.245109      40.245109      40.245109      1.122767       2868.1536      1398.9967      1206.8103    
     11200   11200          303.97071      2680.2488      3924.016       1375.5873      5145.6224     -3770.0351      993.52133      4960.8254     -8539.8058     -53.38949      -3170.1646      6929.0138     -4890.0358     -492.40252      65196.079      40.247647      40.247647      40.247647      1.1225546      1513.8268      3505.08        3021.8396    
     11300   11300          303.23717      2668.3791      3932.8551      1403.3139      5133.205      -3729.8911      1033.0538      4971.5055     -8499.1892     -49.984635     -3212.9776      6920.7006     -4892.9996     -493.88223      65000.747      40.207412      40.207412      40.207412      1.125928       1877.4         2204.1942      3923.5429    
     11400   11400          303.13289      3961.7698      5092.1197      1354.4527      5131.4397     -3776.987       1020.5497      4898.9498     -8517.0396     -54.227073     -3145.0331      6914.8245     -4895.0111     -496.25656      64689.751      40.143185      40.143185      40.143185      1.1313409      4317.956       3918.9181      3648.4352    
     11500   11500          297.31971      3396.6366      4456.5125      1259.201       5033.034      -3773.8329      995.0795       4889.1879     -8455.3819     -49.56847      -3176.4867      6919.6795     -4896.3427     -497.3725       64544.609      40.11314       40.11314       40.11314       1.1338849      3843.4723      2879.5556      3466.8818    
     11600   11600          298.05671      2715.1136      3794.2635      1239.4777      5045.5101     -3806.0324      985.55375      4910.8713     -8466.7629     -50.98824      -3210.8811      6922.328      -4896.1532     -497.56651      64519.442      40.107926      40.107926      40.107926      1.1343272      2830.2306      2827.2166      2487.8935    
     11700   11700          300.72245      4209.4359      5222.0334      1264.2279      5090.6357     -3826.4078      936.54727      4881.6974     -8461.67       -54.208051     -3156.8074      6921.3843     -4893.3514     -497.95154      64469.554      40.097585      40.097585      40.097585      1.135205       4265.318       4657.0775      3705.9121    
     11800   11800          304.60532      2321.8853      3498.2213      1311.1386      5156.365      -3845.2264      981.92091      4834.5627     -8473.1845     -51.880805     -3162.4767      6920.5763     -4894.7442     -497.04212      64587.511      40.122026      40.122026      40.122026      1.1331318      2817.8172      2661.8803      1485.9584    
     11900   11900          301.94461      2918.3166      4110.9519      1355.3521      5111.3244     -3755.9723      1013.9306      4991.3248     -8515.6877     -51.270458     -3229.7602      6926.5047     -4891.014      -495.83125      64745.24       40.15466       40.15466       40.15466       1.1303713      4048.6498      2982.4582      1723.8419    
     12000   12000          307.73717      1819.7745      3177.5389      1454.1188      5209.3811     -3755.2623      996.98173      4898.7445     -8447.245      -50.055809     -3188.0416      6925.257      -4890.9031     -494.36082      64937.82       40.194433      40.194433      40.194433      1.127019       2221.4139      2181.7804      1056.1291    
     12100   12100          303.14772      4051.2987      5340.852       1496.4379      5131.6907     -3635.2528      1003.2548      4924.8286     -8483.4327     -52.644062     -3060.8251      6928.0794     -4894.5137     -493.38022      65066.884      40.221044      40.221044      40.221044      1.1247835      3867.8391      5201.4104      3084.6465    
     12200   12200          299.26882      1956.1271      3271.8286      1409.3356      5066.0287     -3656.693       999.15017      4952.4033     -8480.7781     -50.370692     -3127.68        6939.7886     -4889.2064     -491.72249      65286.242      40.266192      40.266192      40.266192      1.1210043      2353.5772      1902.6106      1612.1936    
     12300   12300          298.2448       2403.9664      3588.8315      1295.8182      5048.694      -3752.8758      979.181        4921.0966     -8457.9142     -53.194432     -3188.0926      6937.0235     -4890.9756     -490.83944      65403.696      40.290324      40.290324      40.290324      1.1189912      2044.1486      2247.9967      2919.7538    
     12400   12400          298.90864      1936.0707      3142.838       1299.9347      5059.9315     -3759.9969      971.34978      4915.1281     -8476.1289     -49.418391     -3169.2988      6938.5263     -4890.155      -491.8541       65268.773      40.2626        40.2626        40.2626        1.1213044      2057.9078      1292.0357      2458.2687    
     12500   12500          299.43531      3367.6568      4550.7825      1362.926       5068.847      -3705.9209      965.30606      5034.3384     -8581.9404     -51.689118     -3116.7029      6935.0411     -4890.2741     -494.59156      64907.524      40.188181      40.188181      40.188181      1.1275451      2939.5115      3930.7202      3232.7386    
     12600   12600          303.06933      4265.5552      5515.8904      1487.7712      5130.3638     -3642.5926      1023.142       4977.3438     -8478.8795     -52.250727     -3148.9941      6925.1207     -4888.0748     -495.78215      64751.653      40.155985      40.155985      40.155985      1.1302593      3722.53        4018.8076      5055.328     
     12700   12700          303.53027      2395.6048      3770.3777      1508.7537      5138.1666     -3629.4129      974.34294      4913.6601     -8426.7128     -52.055506     -3079.7788      6930.8143     -4889.6831     -495.92089      64733.537      40.15224       40.15224       40.15224       1.1305756      2138.4161      1740.554       3307.8444    
     12800   12800          303.71025      3955.0282      5104.0731      1363.5669      5141.2133     -3777.6464      985.44781      4877.0144     -8487.0168     -49.606612     -3147.6569      6935.3945     -4891.2228     -495.03606      64849.243      40.176149      40.176149      40.176149      1.1285584      4671.7421      4359.4731      2833.8694    
     12900   12900          296.07486      1849.2574      3063.5391      1311.0639      5011.9612     -3700.8974      1024.694       4932.9005     -8471.8711     -51.321098     -3175.0363      6931.4629     -4891.7263     -494.04115      64979.838      40.2031        40.2031        40.2031        1.1262903      636.18625      2533.2871      2378.2989    
     13000   13000          296.73403      3695.7854      4809.2004      1307.6156      5023.1196     -3715.504       988.18277      4862.1493     -8444.1273     -53.91844      -3117.3147      6941.5707     -4892.0463     -494.15105      64965.386      40.200119      40.200119      40.200119      1.1265408      3397.9232      3858.0808      3831.352     
     13100   13100          301.57751      3408.4485      4607.6447      1376.2884      5105.1103     -3728.8218      1008.8836      4957.4021     -8531.2762     -50.392976     -3162.2031      6940.9102     -4892.1455     -493.84371      65005.817      40.208457      40.208457      40.208457      1.1258402      3261.3946      2733.5598      4230.3911    
     13200   13200          303.34619      3240.1275      4515.6755      1438.8608      5135.0504     -3696.1895      985.12755      4962.2473     -8489.1536     -54.081833     -3146.5372      6937.2793     -4891.0712     -493.03574      65112.346      40.230409      40.230409      40.230409      1.1239982      2198.5305      3446.5277      4075.3243    
     13300   13300          312.67139      3168.3144      4541.2537      1534.4196      5292.9077     -3758.4881      993.90214      4811.4011     -8440.153      -51.471358     -3112.9543      6934.0894     -4893.302      -493.32877      65073.67       40.222442      40.222442      40.222442      1.1246662      2389.8193      3522.2379      3592.8859    
     13400   13400          307.59635      2861.3121      4205.1465      1488.5         5206.9973     -3718.4973      991.33712      4994.6633     -8514.6325     -52.24703      -3170.5569      6923.9835     -4891.0449     -493.11671      65101.655      40.228207      40.228207      40.228207      1.1241828      1517.284       3989.3331      3077.3192    
     13500   13500          298.84764      2405.8168      3613.9106      1328.132       5058.8989     -3730.7668      980.6616       4941.4717     -8523.0555     -51.90489      -3129.9507      6941.3555     -4889.3446     -492.77201      65147.193      40.237585      40.237585      40.237585      1.123397       1442.884       1714.0077      4060.5587    
     13600   13600          298.09547      2253.5499      3412.3249      1268.9588      5046.1661     -3777.2073      1010.4867      4926.9415     -8499.4896     -52.686558     -3191.4715      6922.8011     -4893.7889     -492.2531       65215.868      40.251719      40.251719      40.251719      1.122214       1706.4742      3991.2383      1062.9373    
     13700   13700          296.46562      3822.5935      4951.1332      1323.0184      5018.5761     -3695.5577      1015.4132      4910.0807     -8501.7227     -52.930849     -3116.1348      6936.3248     -4886.588      -493.28138      65079.922      40.22373       40.22373       40.22373       1.1245582      3514.8636      4062.1544      3890.7623    
     13800   13800          303.30273      2708.3263      3975.429       1404.3722      5134.3148     -3729.9426      1006.4976      4954.3893     -8484.5843     -53.811297     -3184.0385      6926.6693     -4895.0648     -493.18169      65093.077      40.22644       40.22644       40.22644       1.1243309      2156.4955      2947.5328      3020.9505    
     13900   13900          303.03459      2911.9475      4153.5683      1391.6761      5129.7757     -3738.0996      1028.6007      4934.3621     -8551.5027     -50.771127     -3138.3702      6931.4642     -4891.8825     -493.62194      65035.022      40.214478      40.214478      40.214478      1.1253346      3154.0515      3317.4638      2264.3271    
     14000   14000          301.18436      3380.6844      4433.2182      1224.7338      5098.4549     -3873.7211      936.85955      4802.152      -8453.436      -52.317008     -3142.9303      6932.4233     -4896.4727     -493.31272      65075.787      40.222878      40.222878      40.222878      1.1246297      5076.9845      2112.8795      2952.1891    
     14100   14100          300.84732      3002.2854      4074.6         1224.0396      5092.7495     -3868.7099      984.27987      4818.4228     -8464.3705     -48.801872     -3195.504       6934.106      -4896.8422     -493.10495      65103.207      40.228527      40.228527      40.228527      1.124156       3236.6635      2518.3215      3251.871     
     14200   14200          302.67548      2724.0173      3895.3924      1312.0532      5123.6967     -3811.6435      1013.2003      4885.4593     -8520.0648     -50.791345     -3180.7306      6935.3602     -4894.0766     -493.6806       65027.295      40.212885      40.212885      40.212885      1.1254683      2214.9848      2823.1082      3133.9588    
     14300   14300          300.72665      2781.8729      4031.0588      1395.9196      5090.7068     -3694.7872      1028.9287      4839.7156     -8435.7409     -47.089427     -3123.4638      6935.6609     -4892.7983     -494.25531      64951.682      40.197292      40.197292      40.197292      1.1267785      2906.5478      3591.1207      1847.95      
     14400   14400          306.23234      3239.9213      4479.7147      1414.7277      5183.9073     -3769.1796      993.49173      4895.5891     -8490.6587     -54.927555     -3141.2731      6924.2343     -4895.6354     -494.90685      64866.174      40.179645      40.179645      40.179645      1.1282639      3673.0608      2533.9848      3512.7181    
     14500   14500          298.12887      2924.4112      4113.9338      1345.3814      5046.7315     -3701.3502      996.73903      4887.2967     -8429.5877     -50.73124      -3155.9234      6940.4085     -4889.552      -494.54215      64914.009      40.189519      40.189519      40.189519      1.1274324      3508.0975      1674.8353      3590.3007    
     14600   14600          296.26445      3026.0697      4078.9537      1213.1794      5015.1705     -3801.9911      970.84314      4816.4308     -8419.1287     -50.790663     -3151.6385      6926.5068     -4894.214      -494.37282      64936.243      40.194107      40.194107      40.194107      1.1270464      2330.2412      2948.882       3799.086     
     14700   14700          296.76524      4218.7784      5216.1196      1226.098       5023.6479     -3797.5499      998.64561      4862.3361     -8518.0387     -49.014927     -3136.6048      6939.0238     -4893.8971     -495.02724      64850.398      40.176387      40.176387      40.176387      1.1285383      3499.7787      4145.9232      5010.6332    
     14800   14800          298.84993      2054.1113      3276.6761      1330.7817      5058.9376     -3728.1559      1001.0701      4826.335      -8407.2524     -49.773852     -3145.1652      6938.7944     -4892.1639     -494.22231      64956.019      40.198187      40.198187      40.198187      1.1267033      1222.4198      3293.2223      1646.6918    
     14900   14900          297.60032      3253.5135      4439.3823      1346.7084      5037.7842     -3691.0758      981.7997       4907.9704     -8418.7691     -52.492612     -3150.9856      6932.8399     -4891.4385     -492.5339       65178.689      40.244068      40.244068      40.244068      1.1228541      3820.8943      3197.7207      2741.9255    
     15000   15000          298.90157      2834.7653      4068.1315      1368.1391      5059.8119     -3691.6728      979.5133       4890.3315     -8441.5124     -49.229703     -3118.9468      6935.8454     -4887.674      -491.55509      65308.476      40.270762      40.270762      40.270762      1.1206227      1627.8355      4130.0618      2746.3985    
     15100   15100          306.57165      2192.2359      3479.7962      1390.4903      5189.6512     -3799.1609      957.51959      4945.5228     -8528.5619     -55.663265     -3168.048       6942.174      -4892.1041     -491.25037      65348.986      40.279087      40.279087      40.279087      1.119928       2209.9025      2768.8682      1597.937     
     15200   15200          299.03953      2262.1032      3507.2223      1352.5689      5062.1473     -3709.5784      1017.0452      4930.0047     -8525.931      -53.938939     -3110.2192      6926.978      -4893.5172     -491.53293      65311.42       40.271367      40.271367      40.271367      1.1205722      2364.6558      1996.5231      2425.1307    
     15300   15300          297.64063      3754.4365      4843.5409      1274.4672      5038.4666     -3763.9994      954.51114      4893.1724     -8455.1637     -53.023233     -3149.1813      6937.9364     -4892.2511     -492.50074      65183.077      40.244971      40.244971      40.244971      1.1227785      3574.6657      3624.4627      4064.1809    
     15400   15400          297.62695      2804.3097      3925.1039      1265.3163      5038.2351     -3772.9187      990.22308      4852.338      -8458.4781     -51.022212     -3154.555       6940.1902     -4891.6147     -493.62444      65034.693      40.21441       40.21441       40.21441       1.1253403      2570.5697      1967.2601      3875.0993    
     15500   15500          303.46431      3089.4913      4333.8476      1414.3091      5137.05       -3722.7409      968.99383      5035.14       -8509.2793     -51.083135     -3203.035       6929.7596     -4893.2369     -495.43924      64796.469      40.165248      40.165248      40.165248      1.1294776      3757.2464      3833.9291      1677.2984    
     15600   15600          304.52512      3949.5191      5184.5671      1463.4084      5155.0074     -3691.5991      970.766        4876.0425     -8409.7802     -54.547402     -3123.1829      6941.2891     -4892.1862     -496.91678      64603.803      40.125399      40.125399      40.125399      1.132846       3378.0896      3262.5946      5207.8732    
     15700   15700          300.60172      2952.062       4176.3068      1391.4641      5088.592      -3697.1278      1058.6875      4834.3097     -8445.7957     -52.201904     -3130.1244      6930.2227     -4892.2257     -496.2979       64684.363      40.14207       40.14207       40.14207       1.1314351      4050.388       2369.8593      2435.9386    
     15800   15800          301.03732      3063.4083      4211.2942      1315.8822      5095.9659     -3780.0837      1008.4592      4803.3503     -8392.1532     -51.497141     -3195.5441      6937.9704     -4890.6692     -495.34998      64808.146      40.16766       40.16766       40.16766       1.1292741      3369.9885      3069.1224      2751.1139    
     15900   15900          300.10573      3500.0086      4589.1739      1281.1198      5080.1958     -3799.076       999.57199      4866.1979     -8476.5478     -54.380772     -3169.6032      6929.4806     -4893.7947     -495.35224      64807.849      40.167599      40.167599      40.167599      1.1292793      4843.8871      1925.2504      3730.8882    
     16000   16000          299.31892      2627.4233      3769.1347      1285.7383      5066.8768     -3781.1385      949.80067      4893.6934     -8450.6945     -50.413426     -3169.5126      6939.0428     -4893.0549     -495.33797      64809.717      40.167985      40.167985      40.167985      1.1292467      3772.7215      2343.9159      1765.6323    
     16100   16100          298.4332       2851.1274      4002.694       1307.193       5051.8832     -3744.6902      995.12444      4933.6908     -8503.9429     -56.844149     -3146.1363      6929.3517     -4895.9338     -495.2161       64825.666      40.171279      40.171279      40.171279      1.1289689      2896.3181      3352.7174      2304.3468    
     16200   16200          302.40815      3014.3024      4209.1933      1358.687       5119.1712     -3760.4843      1004.0371      4894.7263     -8482.4009     -49.18677      -3170.6715      6936.3324     -4893.3208     -495.08806      64842.432      40.174742      40.174742      40.174742      1.128677       3403.9006      1872.0529      3766.9538    
     16300   16300          303.70025      3241.8168      4532.1197      1467.1333      5141.044      -3673.9107      1014.8001      4908.3271     -8482.0149     -53.598011     -3106.8282      6935.791      -4890.3878     -495.19648      64828.234      40.17181       40.17181       40.17181       1.1289242      1711.2376      3656.3519      4357.8608    
     16400   16400          307.74728      2191.4189      3582.8751      1506.53        5209.5521     -3703.0221      1023.6971      4939.05       -8471.5026     -52.23328      -3200.985       6947.2031     -4888.2515     -494.13261      64967.81       40.200619      40.200619      40.200619      1.1264988      3667.4177      1296.4037      1610.4353    
     16500   16500          300.48859      2333.431       3595.5262      1382.2101      5086.677      -3704.4669      992.92943      4932.953      -8431.4966     -49.752687     -3197.8198      6941.6896     -4892.9699     -493.59319      65038.81       40.215258      40.215258      40.215258      1.125269       2494.9436      2161.795       2343.5546    
     16600   16600          301.19165      3815.3097      4914.7618      1299.3654      5098.5784     -3799.2129      990.76688      4903.7322     -8519.4689     -52.179323     -3169.6767      6943.5667     -4895.9537     -494.07345      64975.589      40.202224      40.202224      40.202224      1.1263639      3627.532       4018.0146      3800.3826    
     16700   16700          298.97994      2772.3794      3913.915       1288.6057      5061.1384     -3772.5327      977.46359      4874.8354     -8468.7735     -50.533065     -3138.5541      6928.4185     -4895.3896     -494.41294      64930.974      40.19302       40.19302       40.19302       1.1271379      3084.7664      1898.0818      3334.29      
     16800   16800          303.19986      4755.3222      5840.2707      1340.2851      5132.5735     -3792.2884      964.40693      4832.2416     -8468.097      -50.527957     -3125.4132      6947.2792     -4892.178      -494.75075      64886.64       40.18387       40.18387       40.18387       1.127908       4126.45        5773.2256      4366.2911    
     16900   16900          299.33271      1934.1972      3288.2788      1452.3757      5067.1102     -3614.7345      1026.793       4982.8134     -8445.8034     -50.553621     -3179.8478      6943.1621     -4891.2982     -493.25176      65083.83       40.224535      40.224535      40.224535      1.1244907      2617.3121      1563.0999      1622.1798    
     17000   17000          301.61242      3126.9326      4430.3959      1460.9915      5105.7012     -3644.7097      1012.0293      4959.5333     -8442.7398     -52.458184     -3154.7381      6928.1335     -4894.4697     -493.02258      65114.084      40.230767      40.230767      40.230767      1.1239682      1970.5656      4158.0094      3252.2229    
     17100   17100          300.79929      3717.8813      4898.8254      1375.4401      5091.9364     -3716.4963      1055.389       4819.692      -8462.3768     -51.68942      -3110.4587      6928.5491     -4895.6016     -494.02966      64981.349      40.203411      40.203411      40.203411      1.1262641      4393.1907      3953.895       2806.5582    
     17200   17200          299.05367      2735.7162      3917.438       1325.3748      5062.3866     -3737.0118      1010.1846      4914.057      -8484.1211     -49.864763     -3163.156       6930.3933     -4894.5048     -494.13213      64967.873      40.200632      40.200632      40.200632      1.1264977      1776.3685      3810.8631      2619.917     
     17300   17300          301.08403      3224.4552      4372.2231      1320.636       5096.7566     -3776.1206      992.25838      4828.4497     -8431.7854     -50.724641     -3170.3165      6944.2507     -4888.2529     -494.70717      64892.356      40.18505       40.18505       40.18505       1.1278086      2964.8711      3502.6246      3205.8697    
     17400   17400          297.14365      2987.6545      4104.5395      1280.46        5030.0537     -3749.5937      989.88594      4961.8335     -8481.8131     -54.810812     -3195.7388      6924.9162     -4893.8666     -495.30315      64814.273      40.168926      40.168926      40.168926      1.1291673      3783.2373      1976.8007      3202.9256    
     17500   17500          295.44642      3919.7852      4962.7129      1269.7359      5001.3231     -3731.5872      990.06425      4904.3748     -8475.4139     -49.86165      -3148.3505      6937.4345     -4889.8346     -496.93925      64600.882      40.124794      40.124794      40.124794      1.1328972      4245.2721      5121.3954      2392.688     
     17600   17600          299.08991      2791.112       3963.6285      1333.4309      5063          -3729.5691      1027.371       4834.4871     -8406.8311     -52.598552     -3174.6443      6933.0431     -4890.3963     -496.82854      64615.277      40.127774      40.127774      40.127774      1.1326448      3903.9541      2670.5656      1798.8163    
     17700   17700          302.87304      2263.5772      3582.1668      1444.9728      5127.0409     -3682.0681      974.45427      4991.209      -8441.2503     -52.467827     -3196.7864      6934.4599     -4891.6868     -495.87132      64740.008      40.153578      40.153578      40.153578      1.1304626      2264.1747      2154.454       2372.1027    
     17800   17800          301.57028      3011.0775      4271.9113      1425.184       5104.9878     -3679.8038      1034.8224      4893.5114     -8444.8785     -50.461249     -3148.2775      6928.3506     -4892.8709     -495.2149       64825.824      40.171312      40.171312      40.171312      1.1289661      3863.841       2971.1087      2198.2828    
     17900   17900          301.84514      2082.5087      3312.0367      1340.1182      5109.6406     -3769.5224      985.58017      4884.9823     -8445.3593     -52.892711     -3183.2063      6933.2744     -4891.901      -494.44218      64927.135      40.192228      40.192228      40.192228      1.1272045      2384.1277      1568.2231      2295.1753    
     18000   18000          297.95681      2654.1076      3830.6994      1315.23        5043.8189     -3728.5889      987.31648      4890.5799     -8464.2514     -51.791016     -3143.2424      6939.2623     -4886.4628     -493.98884      64986.719      40.204519      40.204519      40.204519      1.126171       2691.884       3120.2293      2150.2097    
     18100   18100          302.75795      3311.34        4480.5818      1344.5061      5125.0927     -3780.5866      966.07636      4853.3591     -8459.9821     -51.278783     -3144.8003      6945.0305     -4888.9914     -494.35037      64939.192      40.194716      40.194716      40.194716      1.1269952      4318.6114      2788.578       2826.8305    
     18200   18200          304.2474       3467.7315      4640.7224      1361.8291      5150.3062     -3788.4771      986.24381      4861.8029     -8497.6999     -51.517406     -3145.969       6945.8445     -4887.182      -495.14889      64834.466      40.173097      40.173097      40.173097      1.1288156      2724.1031      4801.7168      2877.3746    
     18300   18300          296.73369      4058.5335      5111.9627      1280.1651      5023.1139     -3742.9488      970.04485      4932.9158     -8488.1066     -53.440727     -3157.019       6940.4523     -4887.7954     -495.88871      64737.739      40.153109      40.153109      40.153109      1.1305022      4528.4307      3477.8262      4169.3437    
     18400   18400          299.05698      2519.879       3563.2357      1187.7361      5062.4427     -3874.7066      973.80164      4810.581      -8478.6374     -51.051649     -3172.9525      6934.81       -4891.2576     -496.64074      64639.71       40.132831      40.132831      40.132831      1.1322167      3239.5901      3279.8118      1040.2351    
     18500   18500          297.85799      3436.4917      4481.389       1240.8812      5042.1461     -3801.2649      992.0933       4835.1587     -8477.3109     -51.836942     -3158.9174      6946.7352     -4887.1869     -496.5007       64657.943      40.136604      40.136604      40.136604      1.1318974      4461.0792      3127.2887      2721.1071    
     18600   18600          305.05693      2320.4281      3540.3125      1349.0494      5164.0099     -3814.9605      987.10266      4917.5774     -8462.06       -51.270195     -3257.3139      6941.4172     -4890.4136     -495.78255      64751.601      40.155975      40.155975      40.155975      1.1302602      1723.4865      2173.3625      3064.4353    
     18700   18700          303.06105      3093.2608      4275.262       1357.4741      5130.2237     -3772.7496      955.19432      4893.5529     -8439.6945     -54.912921     -3169.5784      6937.0808     -4894.3918     -496.34134      64678.702      40.140899      40.140899      40.140899      1.1315341      2764.9935      3986.2757      2528.5133    
     18800   18800          301.14872      2924.922       4074.594       1317.0417      5097.8517     -3780.8099      985.56881      4898.1861     -8482.2352     -54.372376     -3170.7098      6935.654      -4892.9014     -496.60166      64644.797      40.133884      40.133884      40.133884      1.1321276      2299.2196      1907.3763      4568.1701    
     18900   18900          295.18915      3040.3526      4106.1407      1239.8877      4996.9678     -3757.0802      987.45305      4871.3064     -8450.4586     -51.371549     -3175.9459      6950.8857     -4888.9492     -496.62327      64641.985      40.133302      40.133302      40.133302      1.1321769      2928.2154      2764.8589      3427.9835    
     19000   19000          299.32105      2808.2287      3867.4268      1218.4931      5066.9128     -3848.4197      1009.6357      4853.2467     -8488.9134     -49.975128     -3207.2419      6925.8481     -4891.0198     -496.33972      64678.913      40.140943      40.140943      40.140943      1.1315304      2520.3712      1819.9617      4084.3533    
     19100   19100          303.75259      3106.516       4268.1282      1338.8386      5141.9301     -3803.0914      1014.837       4863.9733     -8459.9999     -50.737579     -3217.0601      6938.4277     -4892.532      -496.51105      64656.595      40.136325      40.136325      40.136325      1.131921       3202.5006      3289.5551      2827.4922    
     19200   19200          303.28611      3168.6982      4382.8629      1394.9613      5134.0334     -3739.0721      978.43066      4936.3399     -8456.8777     -50.605192     -3191.2545      6935.0713     -4890.1766     -496.51483      64656.102      40.136223      40.136223      40.136223      1.1319297      2932.9589      2241.2844      4331.8515    
     19300   19300          301.03348      2612.7985      3787.7326      1321.3946      5095.9009     -3774.5063      1032.8152      4853.7404     -8452.8914     -52.408908     -3195.8373      6932.4622     -4892.3865     -495.98776      64724.81       40.150436      40.150436      40.150436      1.1307281      3366.4323      1480.4361      2991.5272    
     19400   19400          295.92822      4026.895       5064.6924      1260.098       5009.4789     -3749.3809      1031.0703      4805.551      -8472.7044     -51.920908     -3109.298       6939.52       -4891.599      -495.54098      64783.166      40.162499      40.162499      40.162499      1.1297095      4409.128       4142.2508      3529.3062    
     19500   19500          297.57625      1651.103       2816.5032      1251.7246      5037.3768     -3785.6522      1015.1808      4908.702      -8476.2836     -50.027283     -3222.7712      6934.5484     -4895.0014     -494.01359      64983.463      40.203847      40.203847      40.203847      1.1262275      2240.5158      122.34751      2590.4458    
     19600   19600          300.02478      3361.719       4502.3792      1319.0266      5078.8256     -3759.799       953.18926      5029.127      -8557.3371     -56.558313     -3169.7412      6933.3616     -4891.8402     -494.41802      64930.307      40.192882      40.192882      40.192882      1.1271495      3842.1158      3781.8779      2461.1632    
     19700   19700          299.53412      2797.9947      4032.4067      1389.1628      5070.5197     -3681.3569      983.46615      5002.6933     -8453.7472     -49.737993     -3210.5238      6938.3817     -4891.889      -495.59543      64776.049      40.161028      40.161028      40.161028      1.1298336      3280.941       2873.5652      2239.4778    
     19800   19800          303.69232      3394.3272      4595.4997      1398.4068      5140.9097     -3742.503       1023.065       4840.6193     -8438.731      -50.655267     -3167.9505      6942.0207     -4890.8712     -497.06831      64584.108      40.121321      40.121321      40.121321      1.1331915      2521.9943      3443.2332      4217.7542    
     19900   19900          299.60362      2970.2641      4081.4187      1286.3322      5071.6961     -3785.3639      995.05982      4884.1398     -8447.9731     -54.81519      -3198.4473      6927.6794     -4891.0073     -497.52792      64524.447      40.108963      40.108963      40.108963      1.1342392      3560.4138      3110.4723      2239.9062    
     20000   20000          295.33922      3325.8453      4338.6157      1208.8222      4999.5083     -3790.6861      1013.6449      4918.8701     -8528.6568     -54.049762     -3184.4002      6935.1134     -4891.2077     -497.5125       64526.447      40.109377      40.109377      40.109377      1.1342041      2954.7046      3412.4484      3610.3829    
     20100   20100          294.39663      3122.5312      4191.1123      1248.0964      4983.5521     -3735.4557      995.9504       4978.5477     -8483.3212     -54.66166      -3211.9991      6933.0632     -4893.035      -496.74306      64626.395      40.130076      40.130076      40.130076      1.13245        2728.358       3303.6965      3335.539     
     20200   20200          298.78204      2853.2167      4013.1271      1318.8409      5057.7884     -3738.9474      986.73755      4948.1077     -8494.3285     -55.29413      -3169.2594      6936.2599     -4891.1705     -495.80246      64749.001      40.155437      40.155437      40.155437      1.1303056      1621.9296      3322.6912      3615.0293    
     20300   20300          296.32229      2567.3341      3782.4244      1353.5201      5016.1497     -3662.6296      1010.6732      5007.051      -8490.3212     -55.976389     -3166.4642      6928.5509     -4896.143      -494.86827      64871.23       40.180689      40.180689      40.180689      1.1281759      1974.472       3147.0429      2580.4873    
     20400   20400          300.00558      2830.0075      4034.6742      1359.5679      5078.5005     -3718.9326      1025.9667      4981.9479     -8542.1793     -51.020338     -3182.5183      6942.0083     -4893.1376     -495.29527      64815.304      40.169139      40.169139      40.169139      1.1291494      1355.2214      3121.3244      4013.4767    
     20500   20500          298.70215      2900.5934      4071.9825      1331.2952      5056.436      -3725.1407      1006.2966      4922.2691     -8469.8105     -53.487026     -3177.2102      6938.2634     -4891.4621     -495.50155      64788.321      40.163564      40.163564      40.163564      1.1296196      3882.47        3777.2521      1042.0583    
     20600   20600          295.22614      2618.3525      3693.0272      1218.1602      4997.594      -3779.4339      1014.7751      4863.5681     -8431.3538     -53.018423     -3212.9415      6933.0808     -4893.5442     -495.32916      64810.87       40.168223      40.168223      40.168223      1.1292266      2152.2536      2043.7382      3659.0658    
     20700   20700          295.5995       2273.5136      3285.0502      1139.6639      5003.9143     -3864.2503      1034.3381      4859.2518     -8532.0376     -47.231007     -3223.4469      6939.0435     -4894.1683     -496.14625      64704.135      40.14616       40.14616       40.14616       1.1310894      2730.4975      1653.511       2436.5324    
     20800   20800          296.27039      3501.1915      4521.4534      1223.565       5015.2712     -3791.7062      1024.8195      4859.2072     -8514.1989     -49.720597     -3148.6586      6928.6564     -4891.8112     -497.0471       64586.864      40.121892      40.121892      40.121892      1.1331431      3377.7609      2418.596       4707.2177    
     20900   20900          297.12069      3368.4169      4482.1479      1307.7271      5029.6651     -3721.938       1007.9892      4869.8126     -8434.4941     -51.205832     -3156.2586      6934.7832     -4892.5645     -496.797        64619.379      40.128623      40.128623      40.128623      1.1325729      3429.5502      2805.2083      3870.4921    
     21000   21000          298.09035      3111.7449      4268.2545      1332.1079      5046.0796     -3713.9717      1029.9078      4974.3212     -8483.8306     -53.48608      -3221.3031      6930.1482     -4889.729      -496.18529      64699.044      40.145107      40.145107      40.145107      1.1311784      3143.4093      1390.458       4801.3675    
     21100   21100          297.53045      3795.6339      4923.9776      1338.9999      5036.6016     -3697.6017      995.25258      4979.1007     -8517.8491     -52.588898     -3148.4048      6934.6353     -4887.7474     -495.69608      64762.895      40.158309      40.158309      40.158309      1.1300631      4771.7444      3277.6712      3337.4861    
     21200   21200          301.82793      3277.1015      4474.6576      1370.5766      5109.3493     -3738.7727      987.56001      4875.1502     -8459.8685     -53.629753     -3143.0709      6942.8514     -4887.7651     -494.28164      64948.222      40.196579      40.196579      40.196579      1.1268385      3787.4978      2446.2228      3597.5839    
     21300   21300          304.36027      1699.5655      3087.1307      1475.2896      5152.2168     -3676.9272      1028.7997      4994.2141     -8495.3257     -53.466887     -3198.8061      6939.4385     -4891.7808     -493.66615      65029.198      40.213277      40.213277      40.213277      1.1254354      1613.7291      1214.3946      2270.5729    
     21400   21400          305.10766      3331.985       4643.9391      1489.7194      5164.8686     -3675.1492      1018.4426      4964.3142     -8523.4465     -49.999679     -3128.7141      6937.0751     -4892.8207     -494.5711       64910.209      40.188735      40.188735      40.188735      1.1274984      2911.9673      3227.0592      3856.9285    
     21500   21500          297.88458      3566.5041      4730.8595      1353.9779      5042.5963     -3688.6184      1004.2349      4900.2433     -8487.8417     -50.776232     -3107.6338      6942.2965     -4889.1415     -494.4752       64922.798      40.191333      40.191333      40.191333      1.1272798      3595.0055      2716.687       4387.8197    
[...]
    495100   495100         298.94105      2418.9084      3643.5944      1365.1599      5060.4802     -3695.3203      1048.1521      4878.5951     -8446.7482     -51.310909     -3172.3054      6938.2709     -4889.9739     -497.0505       64586.422      40.1218        40.1218        40.1218        1.1331509      2735.1929      2733.3997      1788.1327    
    495200   495200         298.35806      4464.8077      5518.9251      1310.2747      5050.6113     -3740.3366      1027.3321      4862.2483     -8506.3181     -51.893136     -3112.5942      6935.5183     -4894.6298     -496.681        64634.471      40.131747      40.131747      40.131747      1.1323085      5249.3025      3508.9762      4636.1444    
    495300   495300         297.42827      2169.3611      3253.6921      1201.8194      5034.8717     -3833.0523      1055.2839      4880.8914     -8506.7409     -49.592295     -3260.8271      6940.7934     -4892.8608     -494.99301      64854.882      40.177313      40.177313      40.177313      1.1284603      3656.1174      1649.8007      1202.1651    
    495400   495400         298.33873      2149.3561      3249.6771      1211.7588      5050.2841     -3838.5253      1013.6614      4883.1807     -8519.1853     -53.696802     -3203.1188      6931.1358     -4890.5023     -493.78652      65013.346      40.210009      40.210009      40.210009      1.1257098      3227.5244      1346.0431      1874.5007    
    495500   495500         298.92696      2682.9749      3874.2145      1330.3117      5060.2417     -3729.93        986.75487      4962.4334     -8474.7431     -53.220086     -3196.8198      6934.6994     -4889.0347     -493.78027      65014.169      40.210179      40.210179      40.210179      1.1256955      2851.5707      1923.1833      3274.1706    
    495600   495600         305.42725      3356.9787      4555.8009      1380.4652      5170.2788     -3789.8136      970.07494      4864.2034     -8456.939      -51.62122      -3160.3706      6936.2487     -4891.4098     -494.96738      64858.241      40.178007      40.178007      40.178007      1.1284019      3137.986       2846.2399      4086.7103    
    495700   495700         299.80184      3274.5875      4423.6233      1336.5308      5075.0517     -3738.5209      990.16364      4890.109      -8470.2869     -54.76432      -3126.6711      6928.1425     -4895.2137     -496.62045      64642.351      40.133378      40.133378      40.133378      1.1321704      3634.8383      2583.6231      3605.3011    
    495800   495800         299.45388      2707.5311      3841.3296      1291.302       5069.1614     -3777.8593      975.71109      5018.0438     -8520.4291     -52.538216     -3222.185       6916.634      -4893.096      -497.10281      64579.627      40.120393      40.120393      40.120393      1.1332701      2159.0039      2345.126       3618.4634    
    495900   495900         298.06417      2520.4492      3660.4254      1284.8299      5045.6363     -3760.8064      1030.2757      4865.3912     -8428.7679     -51.007878     -3211.4196      6926.2655     -4891.5435     -496.73307      64627.695      40.130345      40.130345      40.130345      1.1324272      1902.9636      3194.2936      2464.0903    
    496000   496000         300.55034      4495.1572      5507.7165      1272.2843      5087.7223     -3815.438       973.86075      4928.9787     -8508.6191     -52.144773     -3186.553       6924.3182     -4895.2787     -496.89517      64606.612      40.12598       40.12598       40.12598       1.1327967      4705.1452      3139.8342      5640.4922    
    496100   496100         292.48117      2840.8229      3863.8949      1183.8439      4951.1271     -3767.2832      1010.087       4838.201      -8428.7414     -51.219396     -3167.4999      6924.0384     -4892.1489     -496.27083      64687.892      40.1428        40.1428        40.1428        1.1313734      2618.2974      3355.8417      2548.3296    
    496200   496200         297.82897      4147.7452      5073.0705      1160.1033      5041.6548     -3881.5516      940.73698      4839.8795     -8463.2983     -50.809392     -3185.8557      6934.3705     -4896.5751     -496.27624      64687.186      40.142654      40.142654      40.142654      1.1313857      4058.0885      3960.9019      4424.2451    
    496300   496300         303.61196      2961.9009      4053.2558      1259.7823      5139.5494     -3879.767       991.07555      4859.1243     -8519.6619     -50.711438     -3183.1315      6918.9922     -4895.4542     -496.41353      64669.296      40.138953      40.138953      40.138953      1.1316987      3133.2496      3007.343       2745.1101    
    496400   496400         301.35417      3860.6651      4990.5734      1347.6227      5101.3295     -3753.7068      972.62357      4844.8431     -8406.7976     -49.517841     -3150.1827      6930.57       -4895.2454     -496.16539      64701.639      40.145644      40.145644      40.145644      1.131133       3501.4727      2953.7375      5126.785     
    496500   496500         302.62552      2733.1705      3941.4443      1360.0853      5122.8509     -3762.7657      969.80711      4951.2651     -8490.6936     -51.125361     -3178.3207      6927.9973     -4891.6955     -495.71944      64759.844      40.157678      40.157678      40.157678      1.1301164      2377.3127      3349.1644      2473.0345    
    496600   496600         302.75747      2772.8053      3942.9207      1318.8398      5125.0846     -3806.2448      1022.9685      4860.7199     -8464.1834     -52.4133       -3197.3301      6919.8067     -4895.8133     -494.72037      64890.624      40.184693      40.184693      40.184693      1.1278387      1859.5747      3018.2474      3440.5939    
    496700   496700         298.37441      2757.0854      3789.7064      1178.2608      5050.888      -3872.6272      998.83327      4892.2356     -8542.8424     -53.823967     -3203.7746      6928.6711     -4891.9262     -494.29573      64946.371      40.196197      40.196197      40.196197      1.1268707      3898.6957      1134.1034      3238.4571    
    496800   496800         294.81538      2615.7339      3622.1745      1146.6867      4990.6408     -3843.9541      983.46593      4877.3865     -8533.6446     -51.28599      -3151.2857      6926.6549     -4895.245      -494.70967      64892.028      40.184982      40.184982      40.184982      1.1278143      2324.6875      3015.4582      2507.0559    
    496900   496900         296.35293      3201.5926      4268.6217      1238.8854      5016.6684     -3777.783       1010.1173      4869.4809     -8484.4405     -51.762931     -3155.1254      6929.7442     -4895.7966     -494.74211      64887.773      40.184104      40.184104      40.184104      1.1278883      4437.637       2859.9511      2307.1897    
    497000   497000         299.64745      3722.6305      4820.1773      1304.0359      5072.4381     -3768.4022      1018.2337      4879.3462     -8462.1398     -54.154571     -3185.5785      6929.8367     -4893.946      -495.67981      64765.022      40.158749      40.158749      40.158749      1.130026       2633.148       5173.236       3361.5075    
    497100   497100         306.00675      2050.059       3270.8278      1339.161       5180.0885     -3840.9274      998.77254      4832.258      -8497.9943     -50.379269     -3148.8783      6917.7596     -4892.4658     -496.88033      64608.542      40.12638       40.12638       40.12638       1.1327629      1830.8482      2901.0898      1418.2391    
    497200   497200         302.60242      3426.2751      4516.0125      1290.3682      5122.4599     -3832.0917      977.96738      4812.5794     -8401.8404     -54.171978     -3191.1933      6922.0916     -4897.5244     -497.30564      64553.287      40.114938      40.114938      40.114938      1.1337325      2832.0797      3014.6781      4432.0675    
    497300   497300         294.77642      3186.7812      4160.1136      1162.5491      4989.9813     -3827.4322      990.23185      4831.2332     -8453.3323     -53.76071      -3168.3918      6922.5182     -4895.9306     -497.73861      64497.133      40.103302      40.103302      40.103302      1.1347196      3196.8732      3592.262       2771.2083    
    497400   497400         297.23831      2856.9021      3839.168       1149.8528      5031.6562     -3881.8034      1009.9153      4783.3135     -8468.0195     -50.401982     -3175.6723      6915.809      -4896.7474     -497.3605       64546.166      40.113463      40.113463      40.113463      1.1338576      2881.1204      1520.9677      4168.6182    
    497500   497500         298.40303      3843.27        4831.457       1209.2399      5051.3725     -3842.1326      992.95154      4858.2581     -8487.7406     -52.569782     -3178.9286      6920.0056     -4894.1089     -496.75707      64624.573      40.129698      40.129698      40.129698      1.1324819      4305.7264      3874.7373      3349.3463    
    497600   497600         295.88605      2922.4975      4015.6827      1257.1428      5008.765      -3751.6223      1041.1496      4859.5301     -8477.4719     -52.369911     -3155.4552      6926.4498     -4893.4547     -496.01238      64721.598      40.149771      40.149771      40.149771      1.1307842      3393.9776      2677.9672      2695.5477    
    497700   497700         301.05197      1823.2072      3036.6148      1314.8482      5096.2139     -3781.3657      1017.2387      4770.0595     -8393.6361     -49.664145     -3171.5831      6936.9197     -4890.7003     -495.76904      64753.364      40.156339      40.156339      40.156339      1.1302295      2150.6282      1805.3966      1513.5968    
    497800   497800         302.85185      3386.5153      4578.7188      1380.0576      5126.6822     -3746.6245      1058.3264      4892.9976     -8497.6419     -52.157464     -3185.4174      6929.8847     -4892.6166     -495.6812       64764.841      40.158711      40.158711      40.158711      1.1300292      4577.4363      3327.8356      2254.2739    
    497900   497900         304.3465       3350.8385      4539.5769      1371.325       5151.9837     -3780.6587      1004.3219      4889.885      -8489.5976     -52.767643     -3176.4105      6935.7112     -4891.8012     -495.1667       64832.133      40.172615      40.172615      40.172615      1.1288563      3795.6587      2594.739       3662.1178    
    498000   498000         293.2404       2149.4882      3225.1629      1190.9132      4963.9795     -3773.0663      1006.4147      4950.0281     -8489.9915     -54.817153     -3214.011       6921.225      -4891.9146     -494.70744      64892.321      40.185043      40.185043      40.185043      1.1278093      1924.7442      2069.6391      2454.0812    
    498100   498100         295.18545      3133.7558      4144.4444      1183.419       4996.9053     -3813.4863      959.26156      4914.086      -8494.2228     -51.982841     -3189.3501      6940.0046     -4891.2829     -495.49656      64788.973      40.163699      40.163699      40.163699      1.1296083      4575.5886      2611.3262      2214.3526    
    498200   498200         298.41317      3580.0311      4674.5702      1299.1181      5051.5442     -3752.4262      978.07061      4910.6025     -8479.7165     -53.566748     -3142.6568      6930.3853     -4895.5444     -496.56086      64650.109      40.134983      40.134983      40.134983      1.1320346      3644.8978      2975.1318      4120.0637    
    498300   498300         299.85235      3530.58        4684.7821      1358.8408      5075.9066     -3717.0658      1032.355       4915.1162     -8470.9546     -51.908768     -3169.4923      6921.5415     -4893.7228     -496.99166      64594.069      40.123383      40.123383      40.123383      1.1330167      4993.1153      3257.0496      2341.575     
    498400   498400         300.05994      3057.0271      4237.0787      1356.4688      5079.4208     -3722.9519      1038.6668      4941.7038     -8469.0496     -52.853371     -3214.1414      6926.064      -4893.3421     -496.85822      64611.417      40.126975      40.126975      40.126975      1.1327125      2369.8866      2777.0312      4024.1635    
    498500   498500         300.54247      3684.0971      4755.5749      1282.0692      5087.589      -3805.5198      1001.5027      4872.7243     -8463.6429     -52.106444     -3184.5791      6914.5759     -4893.9943     -496.57024      64648.888      40.134731      40.134731      40.134731      1.132056       3793.0731      3392.0377      3867.1807    
    498600   498600         295.70736      1887.2877      2938.5496      1156.7047      5005.7401     -3849.0354      1009.3961      4835.96       -8441.8751     -52.071987     -3231.6827      6924.8298     -4893.5916     -495.89056      64737.498      40.153059      40.153059      40.153059      1.1305065      1466.1606      1728.9618      2466.7406    
    498700   498700         297.82277      2257.3628      3334.2958      1203.2238      5041.5499     -3838.3261      1035.4074      4823.7651     -8483.5446     -51.433757     -3179.5523      6912.4329     -4895.4008     -495.93056      64732.275      40.151979      40.151979      40.151979      1.1305977      1196.0514      3191.1641      2384.8729    
    498800   498800         302.40428      2488.6946      3628.6607      1277.5535      5119.1057     -3841.5523      1010.6737      4845.7919     -8471.2628     -50.884118     -3208.491       6926.9049     -4894.2849     -495.58347      64777.612      40.161351      40.161351      40.161351      1.1298064      3187.5895      3010.5272      1267.9672    
    498900   498900         302.10543      3134.0165      4270.229       1310.7556      5114.0468     -3803.2913      1014.32        4866.7449     -8487.4082     -50.385978     -3163.3171      6913.0964     -4896.3413     -495.79764      64749.629      40.155567      40.155567      40.155567      1.1302947      2226.1365      4628.457       2547.4559    
    499000   499000         299.21446      3327.2015      4441.6956      1298.8873      5065.1085     -3766.2212      1066.3578      4808.8436     -8475.0904     -48.887819     -3164.253       6939.3418     -4892.5332     -495.65427      64768.359      40.159438      40.159438      40.159438      1.1299678      2451.3254      3414.717       4115.5622    
    499100   499100         299.16046      2921.1521      4012.2838      1257.2356      5064.1943     -3806.9586      995.22832      4892.558      -8490.8843     -53.272448     -3192.4047      6931.7451     -4889.9286     -496.41238      64669.447      40.138985      40.138985      40.138985      1.1316961      3547.0957      2553.2376      2663.1229    
    499200   499200         294.68111      3192.3629      4133.5831      1124.6284      4988.3677     -3863.7394      976.76954      4786.6199     -8430.7958     -46.037723     -3197.6652      6939.1579     -4891.7879     -496.72297      64629.01       40.130617      40.130617      40.130617      1.1324042      3609.7164      2923.57        3043.8023    
    499300   499300         297.013        4075.2803      4992.7305      1153.5243      5027.842      -3874.3178      990.22574      4872.694      -8527.2749     -51.930875     -3184.329       6920.9517     -4894.6545     -496.97401      64596.363      40.123858      40.123858      40.123858      1.1329765      5171.0752      3341.3854      3713.3803    
    499400   499400         297.6346       1579.5182      2737.8186      1247.2714      5038.3646     -3791.0932      1061.1784      4823.0966     -8449.2682     -48.319673     -3219.416       6931.5183     -4889.8826     -496.13121      64706.095      40.146565      40.146565      40.146565      1.1310551      1928.0934      1447.0146      1363.4467    
    499500   499500         300.30876      2948.6714      4068.5421      1284.2521      5083.6328     -3799.3807      988.83025      4906.1373     -8446.5596     -51.889596     -3223.2487      6921.4876     -4894.138      -495.82629      64745.889      40.154794      40.154794      40.154794      1.1303599      3084.1086      2188.2435      3573.6621    
    499600   499600         303.21285      2826.9662      4009.716       1340.0849      5132.7933     -3792.7085      1001.722       4812.4189     -8405.0368     -50.526425     -3189.638       6933.4188     -4895.067      -495.7777       64752.234      40.156106      40.156106      40.156106      1.1302492      2599.8078      3955.3921      1925.6986    
    499700   499700         305.3203       2324.138       3542.9223      1352.5911      5168.4682     -3815.877       1007.0567      4751.8374     -8422.497      -53.229264     -3126.1648      6918.9803     -4891.8605     -496.78648      64620.747      40.128906      40.128906      40.128906      1.132549       2106.3729      1462.254       3403.7871    
    499800   499800         299.81397      3955.9965      4991.1436      1272.8477      5075.257      -3802.4093      1024.9168      4836.5757     -8505.4227     -51.952344     -3141.2658      6928.107      -4893.368      -498.11495      64448.405      40.0932        40.0932        40.0932        1.1355775      4586.9796      4338.6133      2942.3965    
    499900   499900         298.83059      3432.7051      4397.0023      1163.584       5058.6103     -3895.0263      953.86629      4819.1184     -8448.6037     -51.717077     -3203.4224      6927.4638     -4891.7316     -497.04103      64587.653      40.122055      40.122055      40.122055      1.1331293      3111.5273      2958.6937      4227.8944    
    500000   500000         293.81526      2960.8586      3991.8118      1195.5468      4973.7106     -3778.1638      998.71711      4912.1715     -8485.0876     -54.243778     -3195.673       6939.4034     -4893.4515     -495.74344      64756.709      40.15703       40.15703       40.15703       1.1301711      3465.4693      2018.0546      3399.052     
Loop time of 1135.8 on 1 procs for 500000 steps with 7020 atoms

Performance: 38.035 ns/day, 0.631 hours/ns, 440.217 timesteps/s, 3.090 Matom-step/s
99.9% CPU use with 1 MPI tasks x 1 OpenMP threads

MPI task timing breakdown:
Section |  min time  |  avg time  |  max time  |%varavg| %total
---------------------------------------------------------------
Pair    | 134.06     | 134.06     | 134.06     |   0.0 | 11.80
Bond    | 113.31     | 113.31     | 113.31     |   0.0 |  9.98
Kspace  | 476.28     | 476.28     | 476.28     |   0.0 | 41.93
Neigh   | 73.212     | 73.212     | 73.212     |   0.0 |  6.45
Comm    | 14.141     | 14.141     | 14.141     |   0.0 |  1.25
Output  | 6.3761     | 6.3761     | 6.3761     |   0.0 |  0.56
Modify  | 287.38     | 287.38     | 287.38     |   0.0 | 25.30
Other   |            | 31.05      |            |       |  2.73

Nlocal:           7020 ave        7020 max        7020 min
Histogram: 1 0 0 0 0 0 0 0 0 0
Nghost:          20131 ave       20131 max       20131 min
Histogram: 1 0 0 0 0 0 0 0 0 0
Neighs:              0 ave           0 max           0 min
Histogram: 1 0 0 0 0 0 0 0 0 0
FullNghs:  4.83796e+06 ave 4.83796e+06 max 4.83796e+06 min
Histogram: 1 0 0 0 0 0 0 0 0 0

Total # of neighbors = 4837958
Ave neighs/atom = 689.16781
Ave special neighs/atom = 5.7008547
Neighbor list builds = 14535
Dangerous builds = 0
System init for write_data ...
PPPM Kokkos initialization ...
  using 12-bit tables for long-range coulomb
  G vector (1/distance) = 0.30483868
  grid = 30 30 30
  stencil order = 5
  estimated absolute RMS force accuracy = 0.00028604431
  estimated relative force accuracy = 8.6141394e-07
  using double precision cuFFT
  3d grid and FFT values/proc = 50653 27000
Generated 10 of 10 mixed pair_coeff terms from sixthpower/sixthpower mixing rule
STAGE COMPLETE: NPT T=300.0->300.0K P=3000.0->3000.0atm steps=500000
