LAMMPS data file via write_data, version 22 Jul 2025, timestep = 2000000, units = real

6020 atoms
6 atom types
6010 bonds
9 bond types
11200 angles
17 angle types
15110 dihedrals
22 dihedral types
6800 impropers
14 improper types

4.487488005215898 43.55549453478061 xlo xhi
4.487488005215898 43.55549453478061 ylo yhi
4.487488005215898 43.55549453478061 zlo zhi

Masses

1 12.01115
2 12.01115
3 12.01115
4 1.00797
5 15.9994
6 15.9994

Pair Coeffs # lj/class2/coul/long/gpu

1 0.054 4.01
2 0.054 4.01
3 0.12 3.81
4 0.02 2.995
5 0.267 3.3
6 0.24 3.42

Bond Coeffs # class2

1 1.53 299.67 -501.77 679.81
2 1.53 299.67 -501.77 679.81
3 1.5202 253.707 -423.037 396.9
4 1.101 345 -691.89 844.6
5 1.43 326.727 -608.531 689.033
6 1.5202 253.707 -423.037 396.9
7 1.101 345 -691.89 844.6
8 1.202 851.14 -1918.49 2160.77
9 1.3683 367.148 -794.791 1055.23

Angle Coeffs # class2

1 112.67 39.516 -7.443 -9.5583
2 112.67 39.516 -7.443 -9.5583
3 108.53 51.9747 -9.4851 -10.9985
4 110.77 41.453 -10.604 5.129
5 112.67 39.516 -7.443 -9.5583
6 108.53 51.9747 -9.4851 -10.9985
7 110.77 41.453 -10.604 5.129
8 123.145 55.5431 -17.2123 0.1348
9 100.318 38.8631 -3.8323 -7.9802
10 113.288 61.2868 -28.9786 7.9929
11 110.77 41.453 -10.604 5.129
12 123.145 55.5431 -17.2123 0.1348
13 100.318 38.8631 -3.8323 -7.9802
14 107.734 40.6099 -28.8121 0
15 107.66 39.641 -12.921 -2.4318
16 107.688 65.4801 -10.3498 5.8866
17 120.797 95.3446 -32.2869 6.3778

BondBond Coeffs

1 0 1.53 1.53
2 0 1.53 1.53
3 5.4199 1.53 1.5202
4 3.3872 1.53 1.101
5 0 1.53 1.53
6 5.4199 1.53 1.5202
7 3.3872 1.53 1.101
8 46.0685 1.5202 1.202
9 19.1069 1.5202 1.3683
10 45.4503 1.43 1.3683
11 3.3872 1.53 1.101
12 46.0685 1.5202 1.202
13 19.1069 1.5202 1.3683
14 0.7115 1.5202 1.101
15 5.3316 1.101 1.101
16 5.6454 1.101 1.43
17 121.488 1.202 1.3683

BondAngle Coeffs

1 8.016 8.016 1.53 1.53
2 8.016 8.016 1.53 1.53
3 18.1678 15.8758 1.53 1.5202
4 20.754 11.421 1.53 1.101
5 8.016 8.016 1.53 1.53
6 18.1678 15.8758 1.53 1.5202
7 20.754 11.421 1.53 1.101
8 34.9982 37.1298 1.5202 1.202
9 1.3435 4.6978 1.5202 1.3683
10 41.9116 46.4608 1.43 1.3683
11 20.754 11.421 1.53 1.101
12 34.9982 37.1298 1.5202 1.202
13 1.3435 4.6978 1.5202 1.3683
14 12.4632 9.1765 1.5202 1.101
15 18.103 18.103 1.101 1.101
16 8.6864 57.4975 1.101 1.43
17 76.2614 71.8761 1.202 1.3683

Dihedral Coeffs # class2

1 0 0 0.0514 0 -0.143 0
2 0 0 0.0514 0 -0.143 0
3 0.0972 0 0.0722 0 -0.2581 0
4 0 0 0.0316 0 -0.1681 0
5 0 0 0.0514 0 -0.143 0
6 0.0972 0 0.0722 0 -0.2581 0
7 0 0 0.0316 0 -0.1681 0
8 0.0442 0 0.0292 0 0.0562 0
9 1.8341 0 2.0603 0 -0.0195 0
10 0 0 0.0316 0 -0.1681 0
11 0.0442 0 0.0292 0 0.0562 0
12 1.8341 0 2.0603 0 -0.0195 0
13 -2.5594 0 2.2013 0 0.0325 0
14 -2.5594 0 2.2013 0 0.0325 0
15 0 0 2.2089 0 0 0
16 0.0972 0 0.0722 0 -0.2581 0
17 -0.0228 0 0.028 0 -0.1863 0
18 -0.0228 0 0.028 0 -0.1863 0
19 0 0 0 0 -0.1932 0
20 -0.1432 0 0.0617 0 -0.1083 0
21 -0.1804 0 0.0012 0 0.0371 0
22 -0.6359 0 1.4807 0 -0.0438 0

AngleAngleTorsion Coeffs

1 -22.045 112.67 112.67
2 -22.045 112.67 112.67
3 -0.3801 112.67 108.53
4 -16.164 112.67 110.77
5 -22.045 112.67 112.67
6 -0.3801 112.67 108.53
7 -16.164 112.67 110.77
8 -8.019 108.53 123.145
9 0 108.53 100.318
10 -16.164 112.67 110.77
11 -8.019 108.53 123.145
12 0 108.53 100.318
13 0 100.318 113.288
14 0 113.288 100.318
15 0 113.288 120.797
16 -0.3801 112.67 108.53
17 -5.3624 108.53 110.77
18 -5.3624 108.53 110.77
19 0 113.288 107.688
20 -12.564 110.77 110.77
21 -15.3496 107.734 123.145
22 0 107.734 100.318

EndBondTorsion Coeffs

1 -0.0732 0 0 -0.0732 0 0 1.53 1.53
2 -0.0732 0 0 -0.0732 0 0 1.53 1.53
3 0.0062 -0.0002 0.0036 0.0055 0.006 -0.0009 1.53 1.5202
4 0.2486 0.2422 -0.0925 0.0814 0.0591 0.2219 1.53 1.101
5 -0.0732 0 0 -0.0732 0 0 1.53 1.53
6 0.0062 -0.0002 0.0036 0.0055 0.006 -0.0009 1.53 1.5202
7 0.2486 0.2422 -0.0925 0.0814 0.0591 0.2219 1.53 1.101
8 0.2654 0.0503 0.1046 -0.281 0.0816 -0.1522 1.53 1.202
9 0 0 0 0 0 0 1.53 1.3683
10 0.2486 0.2422 -0.0925 0.0814 0.0591 0.2219 1.53 1.101
11 0.2654 0.0503 0.1046 -0.281 0.0816 -0.1522 1.53 1.202
12 0 0 0 0 0 0 1.53 1.3683
13 0 0 0 0 0 0 1.5202 1.43
14 0 0 0 0 0 0 1.43 1.5202
15 0 0 0 0 0 0 1.43 1.202
16 0.0062 -0.0002 0.0036 0.0055 0.006 -0.0009 1.53 1.5202
17 -0.0204 0.3628 -0.4426 -0.0097 -0.0315 -0.0755 1.5202 1.101
18 -0.0204 0.3628 -0.4426 -0.0097 -0.0315 -0.0755 1.5202 1.101
19 0 0 0 0 0 0 1.3683 1.101
20 0.213 0.312 0.0777 0.213 0.312 0.0777 1.101 1.101
21 1.2143 0.2831 0.3916 -0.2298 0.0354 0.3853 1.101 1.202
22 0 0 0 0 0 0 1.101 1.3683

MiddleBondTorsion Coeffs

1 -17.787 -7.1877 0 1.53
2 -17.787 -7.1877 0 1.53
3 -1.5945 0.2267 -0.6911 1.53
4 -14.879 -3.6581 -0.3138 1.53
5 -17.787 -7.1877 0 1.53
6 -1.5945 0.2267 -0.6911 1.53
7 -14.879 -3.6581 -0.3138 1.53
8 0.3388 -0.1096 0.1219 1.5202
9 -17.328 -5.79 -3.2114 1.5202
10 -14.879 -3.6581 -0.3138 1.53
11 0.3388 -0.1096 0.1219 1.5202
12 -17.328 -5.79 -3.2114 1.5202
13 1.3445 3.5515 -4.9202 1.3683
14 1.3445 3.5515 -4.9202 1.3683
15 4.26 0 0 1.3683
16 -1.5945 0.2267 -0.6911 1.53
17 -3.5039 1.2458 -0.761 1.53
18 -3.5039 1.2458 -0.761 1.53
19 0 0 0 1.43
20 -14.261 -0.5322 -0.4864 1.53
21 0.2359 0.9139 0.9594 1.5202
22 -13.7686 -2.5959 1.1934 1.5202

BondBond13 Coeffs

1 0 1.53 1.53
2 0 1.53 1.53
3 0 1.53 1.5202
4 0 1.53 1.101
5 0 1.53 1.53
6 0 1.53 1.5202
7 0 1.53 1.101
8 0 1.53 1.202
9 0 1.53 1.3683
10 0 1.53 1.101
11 0 1.53 1.202
12 0 1.53 1.3683
13 0 1.5202 1.43
14 0 1.43 1.5202
15 0 1.43 1.202
16 0 1.53 1.5202
17 0 1.5202 1.101
18 0 1.5202 1.101
19 0 1.3683 1.101
20 0 1.101 1.101
21 0 1.101 1.202
22 0 1.101 1.3683

AngleTorsion Coeffs

1 0.3886 -0.3139 0.1389 0.3886 -0.3139 0.1389 112.67 112.67
2 0.3886 -0.3139 0.1389 0.3886 -0.3139 0.1389 112.67 112.67
3 -0.2607 0.3203 -0.2283 0.0515 -0.0674 -0.0474 112.67 108.53
4 -0.2454 0 -0.1136 0.3113 0.4516 -0.1988 112.67 110.77
5 0.3886 -0.3139 0.1389 0.3886 -0.3139 0.1389 112.67 112.67
6 -0.2607 0.3203 -0.2283 0.0515 -0.0674 -0.0474 112.67 108.53
7 -0.2454 0 -0.1136 0.3113 0.4516 -0.1988 112.67 110.77
8 0.0885 -1.3703 -0.5452 0.675 0.5965 0.6725 108.53 123.145
9 0 0 0 0 0 0 108.53 100.318
10 -0.2454 0 -0.1136 0.3113 0.4516 -0.1988 112.67 110.77
11 0.0885 -1.3703 -0.5452 0.675 0.5965 0.6725 108.53 123.145
12 0 0 0 0 0 0 108.53 100.318
13 0 0 0 0 0 0 100.318 113.288
14 0 0 0 0 0 0 113.288 100.318
15 0 0 0 0 0 0 113.288 120.797
16 -0.2607 0.3203 -0.2283 0.0515 -0.0674 -0.0474 112.67 108.53
17 -0.7466 -0.9448 -0.6321 0.0162 1.4211 -1.4092 108.53 110.77
18 -0.7466 -0.9448 -0.6321 0.0162 1.4211 -1.4092 108.53 110.77
19 0 0 0 0 0 0 113.288 107.688
20 -0.8085 0.5569 -0.2466 -0.8085 0.5569 -0.2466 110.77 110.77
21 9.1299 -0.4847 0.3582 -1.4946 0.7308 -0.2083 107.734 123.145
22 0 0 0 0 0 0 107.734 100.318

Improper Coeffs # class2

1 0 0
2 0 0
3 0 0
4 0 0
5 0 0
6 0 0
7 0 0
8 0 0
9 0 0
10 0 0
11 0 0
12 0 0
13 46.9264 0
14 46.9264 0

AngleAngle Coeffs

1 -0.1729 -0.1729 -0.1729 112.67 112.67 112.67
2 0 0 0 112.67 108.53 108.53
3 -1.3199 -1.3199 0.1184 112.67 110.77 110.77
4 -1.3199 -1.3199 0.1184 112.67 110.77 110.77
5 0.2738 -0.4825 0.2738 110.77 110.77 107.66
6 0.2738 -0.4825 0.2738 110.77 110.77 107.66
7 -0.3157 -0.3157 -0.3157 107.66 107.66 107.66
8 0 0 0 107.66 107.688 107.688
9 0 0 0 112.67 108.53 108.53
10 -1.3199 -1.3199 0.1184 112.67 110.77 110.77
11 2.0403 -1.8202 1.0827 108.53 110.77 107.734
12 1.0827 -1.8202 2.0403 110.77 108.53 107.734
13 0 0 0 100.318 123.145 120.797
14 0 0 0 100.318 123.145 120.797

Atoms # full

5338 9 1 0.066 6.861102555065502 9.04212140955703 5.843875017759572 0 1 1
5337 9 6 -0.396 6.184934132927031 7.809726224395098 5.464493744219234 0 1 1
5333 9 4 0.053 5.9903191630867845 5.234978057730965 5.113435611634382 0 1 1
3320 6 5 -0.531 9.009307795803196 5.6685984783345 8.776173460077995 0 1 0
3310 6 4 0.053 5.210984515769033 6.364306435514892 9.29136530076096 0 1 0
5339 9 4 0.053 7.057994179137743 9.723695810529748 4.9397622309055995 0 1 1
5340 9 4 0.053 7.759074025802006 8.71190502355207 6.365197730955768 0 1 1
5341 9 4 0.053 6.247428995629173 9.637741185404472 6.463641510260951 0 1 1
3307 6 1 0.066 6.111377210940802 6.718249778482192 9.820320369140383 0 1 0
3308 6 4 0.053 6.881285800683822 6.855400715390551 9.079414534466146 0 1 0
3309 6 4 0.053 5.926182751680554 7.606483771504353 10.396176930608863 0 1 0
5335 9 3 0.702 5.014057444362708 8.014597033415887 4.767475880948448 0 1 1
5331 9 1 -0.159 4.881989563585189 5.455551612365141 5.192722202970225 0 1 1
3306 6 6 -0.396 6.559029518216846 5.6578433240828785 10.6549612094744 0 1 0
5334 9 4 0.053 4.657831625626651 5.7969263064381655 6.160952850469468 0 1 1
1608 3 4 0.053 7.703750509557289 11.072095916058998 8.99824898070059 0 0 0
1533 3 4 0.053 4.9231315515472405 13.025081966839553 17.847239469645977 0 0 0
3059 6 1 0 14.245061660676447 4.594468056910424 22.2563055581474 0 1 0
3045 6 1 -0.159 17.357099116796572 5.428021509787059 21.152968873207524 0 1 0
2389 4 4 0.053 10.456120915642135 6.026069681462937 5.723004825269715 1 0 1
2388 4 1 0.066 11.286251642562451 6.23489825601037 5.060635049829299 1 0 1
3319 6 3 0.702 9.986793608727858 5.439601642268977 9.423819454718206 0 1 0
2390 4 4 0.053 12.227214260944649 6.228163715882513 5.549186913304434 1 0 1
3324 6 4 0.053 10.515036409686894 8.068610865582007 8.893642842303034 0 1 0
4579 8 1 -0.159 13.18166071724927 9.214119947192838 5.6418755770560685 0 0 0
4580 8 4 0.053 13.95363849724685 8.542845607881803 5.567584487658689 0 0 0
4582 8 4 0.053 12.513837572881684 8.907356344229573 6.564234828805035 0 0 0
3322 6 1 0.066 11.236691553396131 7.3000136788220615 8.556659281047168 0 1 0
4600 8 6 -0.396 15.177622848792808 8.041748322145835 8.518019698057364 0 0 0
4603 8 4 0.053 14.95961669200941 6.312548372898672 7.529566324650139 0 0 0
3323 6 4 0.053 12.27300017908461 7.671180268392661 8.762197337098808 0 1 0
3325 6 4 0.053 11.244104239885136 7.070451822951311 7.514719611473784 0 1 0
3321 6 6 -0.396 11.103516363027978 6.160641183059427 9.449605380395077 0 1 0
4565 8 4 0.053 10.578237873775038 10.27167754446798 5.928258918091482 0 0 0
4595 8 4 0.053 14.647739423254254 10.060798696640482 9.643871741449857 0 0 0
4601 8 1 0.066 14.997570247793966 6.671715879731968 8.554019623605427 0 0 0
4604 8 4 0.053 13.986067297559446 6.455300170343962 9.125808005900222 0 0 0
4592 8 4 0.053 13.53301389596089 10.439625418029756 7.8519204376542175 0 0 0
4367 8 4 0.053 8.556157208020611 23.91505782358048 10.320183474371541 0 0 0
5815 10 4 0.053 15.535699949293544 4.803909481753245 16.515409518634353 0 1 0
5803 10 5 -0.531 17.656929140847158 5.461272105373053 11.091400429004963 0 1 0
4602 8 4 0.053 15.744787408157963 6.104872304149939 9.088308309632149 0 0 0
4598 8 3 0.702 15.774248510247144 8.731673514074856 7.519479929003634 0 0 0
4599 8 5 -0.531 16.226838535660516 8.205930373739928 6.520931428640713 0 0 0
4609 8 1 -0.159 18.9263009874866 9.401138168895198 8.329489829755202 0 0 0
4610 8 4 0.053 18.97517892204562 8.715787257788595 7.450608543489817 0 0 0
4611 8 4 0.053 19.928824714474786 9.319889591029682 8.840238262121886 0 0 0
4612 8 4 0.053 18.350512269540854 8.940178762308168 9.175348894199658 0 0 0
5776 10 4 0.053 20.51830327404871 5.4787964911658795 6.57073695292151 0 1 0
4649 8 4 0.053 20.105034639425636 7.439933031596543 5.378391386160665 0 0 0
5775 10 1 0.066 21.372620840287865 5.714045853259666 7.1292824628044364 0 1 0
5774 10 6 -0.396 21.483560850143586 4.763242099834854 8.246461219960395 0 1 0
4593 8 1 0 15.732218122124367 10.301969467683623 7.813538449987044 0 0 0
4607 8 4 0.053 17.13844830782869 10.900807320571747 6.198358524141637 0 0 0
4622 8 4 0.053 19.536323619431606 10.542128124339188 5.902238354989757 0 0 0
3185 6 5 -0.531 7.974232539884024 4.8775343290730655 23.34982119839498 0 1 0
4242 8 4 0.053 22.370330493949552 13.025739694923207 14.32892617704254 0 0 0
4681 8 4 0.053 22.854642116100628 16.2489343248467 4.546214826658699 0 0 0
3383 6 4 0.053 18.349498907472256 5.0944963086002435 7.586900727728771 0 1 0
4643 8 3 0.702 21.528688288391308 9.779075078182233 4.818719296002529 0 0 0
5777 10 4 0.053 21.316356759408464 6.7184417875575155 7.52326701767615 0 1 0
5778 10 4 0.053 22.204865017716585 5.44523591632777 6.478394467541932 0 1 0
5773 10 5 -0.531 23.140081797745953 5.80898173431779 9.285765315987787 0 1 0
5772 10 3 0.702 22.39516544035919 4.915980077276849 9.2109630244334 0 1 0
4644 8 5 -0.531 22.063375277532625 9.384124056765769 5.841751815252344 0 0 0
1609 3 4 0.053 7.467383978293324 12.807409468571162 8.624051833994212 0 0 0
1607 3 4 0.053 9.043665233845124 11.978036096128216 8.098501830337195 0 0 0
1606 3 1 0.066 8.268710335608773 12.08971299177151 8.866288847616126 0 0 0
4494 8 5 -0.531 6.015300483569943 13.640391498634138 6.850215189085837 0 0 0
4492 8 4 0.053 5.0827071616065655 14.131452766647188 9.72666961257459 0 0 0
4551 8 4 0.053 8.456791961099118 13.477405505221814 5.1648143289092445 0 0 0
4491 8 4 0.053 5.907763197352621 15.400754541242959 8.777413701483825 0 0 0
4489 8 1 -0.159 4.879077029650264 15.02663893750082 9.087908921164953 0 0 0
4493 8 3 0.702 4.840493205412221 13.785991633810518 6.825574690158993 0 0 0
3189 6 4 0.053 6.662233308362013 7.213880601382209 23.650565554999435 0 1 0
4532 8 4 0.053 7.8833000033728515 15.93045602133334 5.268843448920561 0 0 0
4517 8 4 0.053 6.271659239371066 15.966439555952737 6.288949697885735 0 0 0
5336 9 5 -0.531 4.5060555911248255 9.056214410869437 4.626818102756796 0 1 1
5494 10 1 -0.106 12.4525577775895 23.856089351582984 22.05731800385607 0 0 0
4400 8 4 0.053 4.493451918887718 20.72967461711312 16.50272591460145 0 0 0
4578 8 1 0 13.741725305322364 10.709243027818665 5.735752642041272 0 0 0
4566 8 4 0.053 9.69059368402081 11.681883069149997 6.0594810981700675 0 0 0
1630 3 4 0.053 11.809657279793665 15.083932783942476 7.61133510111065 0 0 0
4590 8 1 -0.106 14.337948330609073 10.893739510590184 7.177921924238165 0 0 0
4546 8 4 0.053 10.056198051604971 15.567369757526563 5.11860686957568 0 0 0
4576 8 4 0.053 12.174909480471502 11.84959818398974 6.6465365902084965 0 0 0
4562 8 4 0.053 10.873471026910256 13.821684738314717 5.417774001049872 0 0 0
4591 8 4 0.053 14.318980698181111 12.012549496728777 7.410029600224087 0 0 0
4575 8 1 -0.106 12.668861563780208 11.906427870334348 5.655885097897733 0 0 0
4577 8 4 0.053 13.09662335098261 12.91118910127117 5.688777055196352 0 0 0
1616 3 4 0.053 11.451286560112987 13.004542310686343 8.954923703101894 0 0 0
1634 3 5 -0.531 14.783347766320354 16.050061441141054 8.174810424844917 0 0 0
1636 3 1 0.066 16.226897083936635 15.247412484285066 10.338478880026363 0 0 0
1633 3 3 0.702 14.190777404828621 15.956040318416893 9.190790531639742 0 0 0
1615 3 4 0.053 13.14566405959975 13.396014277201852 9.150579937676898 0 0 0
1635 3 6 -0.396 14.865198557566139 15.564046046125139 10.308024222353607 0 0 0
4583 8 3 0.702 14.87110877962262 11.06409512653341 4.665050789522785 0 0 0
1638 3 4 0.053 16.942330661656044 16.01959450428354 10.018680110235774 0 0 0
1637 3 4 0.053 16.426213608355248 14.362008459966491 9.656467840064888 0 0 0
1614 3 1 -0.159 12.27654955558995 12.992074879702303 9.607249298661309 0 0 0
5794 10 1 -0.106 19.97042712788761 4.569661523499778 12.619299131374222 0 1 0
4564 8 1 -0.159 10.251291778461674 11.112715351980228 5.322333085904446 0 0 0
4214 7 4 0.053 23.761497020242896 14.883842250010472 15.366761993012307 0 0 0
4389 8 5 -0.531 4.895922854360803 20.01696049621539 12.299717087761573 0 0 0
4581 8 4 0.053 12.611999206515373 9.100142922363784 4.7376866784659235 0 0 0
4793 8 3 0.702 16.306228979040185 24.021039011703905 14.766246217241822 0 0 0
3078 6 4 0.053 11.085418055756895 4.737172261230515 22.326387107103695 0 1 0
4596 8 4 0.053 15.276434580706393 11.633677854791475 9.48370909417485 0 0 0
4594 8 1 -0.159 15.498286444439728 10.59867947772483 9.291994369614308 0 0 0
1639 3 4 0.053 16.452244331561367 14.87551160905589 11.376055469342209 0 0 0
4621 8 4 0.053 20.525892574466223 10.903193885034238 7.263120169311454 0 0 0
4608 8 1 0 18.514322325310943 10.888705767604375 7.844341713035042 0 0 0
4605 8 1 -0.106 17.015688079577096 11.105803433247702 7.3149031688115 0 0 0
4620 8 1 -0.106 19.608044718289694 11.220365419927376 6.807212971176016 0 0 0
4606 8 4 0.053 16.823583252934274 12.207099322220607 7.429966944778723 0 0 0
4623 8 1 0 20.07864444022908 12.550952464595428 6.1602677057976765 0 0 0
4627 8 4 0.053 19.494780785089098 13.962856821965675 7.770870449010122 0 0 0
4628 8 3 0.702 19.078236276149703 13.238573213966836 5.101140283881205 0 0 0
4613 8 3 0.702 18.69592626013496 11.773136924465245 9.252642142128312 0 0 0
4624 8 1 -0.159 20.363835256573484 13.69779186573536 7.11038060670459 0 0 0
4629 8 5 -0.531 17.907927965552844 12.885334732445108 4.830096618744466 0 0 0
4614 8 5 -0.531 17.747417548427336 12.22203936123262 9.832499971008069 0 0 0
4626 8 4 0.053 20.632718633335312 14.59879725550293 6.553295612226851 0 0 0
4717 8 4 0.053 21.774722125390262 16.123363359244166 10.120987182207704 0 0 0
4719 8 5 -0.531 19.30676551889909 16.204047672371317 8.846870334231077 0 0 0
3652 7 5 -0.531 22.689397383450682 18.255332947290132 22.337839227593655 0 0 0
4567 8 4 0.053 9.481868387649628 10.724775816160516 4.629242472897832 0 0 0
4635 8 1 -0.106 21.474940707141133 12.292959800319982 5.563839655663106 0 0 0
4625 8 4 0.053 21.079730478182544 13.343077742913833 7.886180211036938 0 0 0
4637 8 4 0.053 21.844121279723545 13.270343653192374 5.19557609353052 0 0 0
4636 8 4 0.053 22.2599416189932 11.946955870869235 6.307866681901791 0 0 0
4716 8 4 0.053 21.966052080224888 15.941335445790614 8.327476783540552 0 0 0
3205 6 4 0.053 4.52097467619943 6.931529720793545 19.399633708482256 0 1 0
3315 6 1 -0.159 10.730349253704027 4.54626196236461 11.720101636289227 0 1 0
4503 8 1 0 4.510538867254996 17.219253189369176 6.614375196733189 0 0 0
3489 6 4 0.053 23.939760209818463 12.964101786858626 7.23208889308242 0 1 0
4516 8 4 0.053 5.245056165816338 16.0519622873246 4.8484808667589565 0 0 0
4520 8 4 0.053 7.13674772346009 19.049925724382256 6.754304377150236 0 0 0
4519 8 1 -0.159 7.64991882066116 18.453226007336486 6.012929905880609 0 0 0
4515 8 1 -0.106 5.645007942827073 16.69607422149422 5.651949712822439 0 0 0
4522 8 4 0.053 8.46307409886842 17.89062979738003 6.467535455176741 0 0 0
1654 3 4 0.053 9.454611752198431 20.089690546793094 7.57311642799777 0 0 0
1653 3 4 0.053 9.723009604031283 21.60265677365206 8.349633144207672 0 0 0
4521 8 4 0.053 8.244152770172029 19.24925504279532 5.533698188000263 0 0 0
4518 8 1 0 6.7906154731589075 17.66195407979944 5.019576663598464 0 0 0
4505 8 4 0.053 5.850946078291965 17.4462488564478 8.2116152728615 0 0 0
1651 3 1 0.066 9.492898787105528 20.592643202705016 8.52606773871021 0 0 0
4371 8 4 0.053 6.635446668446749 21.47913235867291 10.191024349853471 0 0 0
502 1 4 0.053 6.792095551965458 21.785171853568343 6.555275882244251 0 0 1
525 1 4 0.053 10.523196356143309 22.423410854026343 6.278682349142993 0 0 1
4507 8 4 0.053 5.257222404817609 18.969143729792258 7.590869934237612 0 0 0
4647 8 4 0.053 21.807134613215876 7.268194744869529 4.755087037250087 0 0 0
3631 7 1 0 18.926659060860764 17.8528756567376 22.32542254394231 0 0 0
3032 6 4 0.053 19.00062535715351 7.652015838743953 23.165994927026787 0 1 0
1629 3 1 -0.159 11.882167797043477 16.087302156114635 8.099141447343385 0 0 0
4535 8 4 0.053 10.42613144718515 17.7293354160551 5.0725403034930725 0 0 0
1632 3 4 0.053 12.342293286313538 16.789133611702482 7.396998826814349 0 0 0
1628 3 1 0 12.6136136932583 16.26084677222886 9.416012229332747 0 0 0
1649 3 5 -0.531 11.511557794089823 19.370679538711038 7.360774689939751 0 0 0
1658 3 1 0 14.527990473787883 20.58623982633003 7.490771113231677 0 0 0
1656 3 4 0.053 14.350006734803317 18.44166452635976 7.797260307133706 0 0 0
1663 3 3 0.702 14.108011377959352 20.154382727336674 6.030688955974744 0 0 0
1655 3 1 -0.106 14.194848851627034 19.338984259128722 8.48907257608882 0 0 0
1648 3 3 0.702 11.619697041286507 19.49982243470157 8.520640167618446 0 0 0
1665 3 6 -0.396 14.869905602963993 19.172262319965846 5.573297343993836 0 0 0
1657 3 4 0.053 15.014524085713308 19.148266382652864 9.249517321551119 0 0 0
1643 3 1 0 12.867104854424884 19.172056590833186 9.40994615428942 0 0 0
1659 3 1 -0.159 13.82577729443585 21.888287917652455 7.9558145684714034 0 0 0
1662 3 4 0.053 12.715984379000968 21.840478410674592 7.9105978443384 0 0 0
1670 3 1 -0.106 16.0971768564201 20.77151553688337 7.709087955037301 0 0 0
1650 3 6 -0.396 10.498306658212902 19.841399769205253 9.272781730057321 0 0 0
1664 3 5 -0.531 13.193190229983465 20.697692654578017 5.494147866517507 0 0 0
524 1 4 0.053 10.806832757281523 20.87690663371455 5.447815482169623 0 0 1
522 1 1 0.066 10.769050983451056 21.96928919860982 5.357267895179697 0 0 1
1631 3 4 0.053 10.80668888987298 16.351022463481748 8.30853303050067 0 0 0
1671 3 4 0.053 16.237025769351877 20.90862845503157 8.8103607890598 0 0 0
1984 4 4 0.053 23.254176860036488 6.578486985915166 21.02514882547157 0 0 0
3644 7 4 0.053 20.267237207665392 19.112427802853865 23.25185183950184 0 0 0
4208 7 6 -0.396 23.66868260687344 17.61015668222165 13.540685153899883 0 0 0
4722 8 4 0.053 17.183895480071413 17.473779812943484 7.413795147201925 0 0 0
4724 8 4 0.053 18.090263879266335 16.10076007647725 6.568956941111674 0 0 0
1672 3 4 0.053 16.52954137078153 19.71033022381748 7.590845461893824 0 0 0
4723 8 4 0.053 17.665854845683494 17.580070207421613 5.755354589504268 0 0 0
1686 3 4 0.053 17.32995183071248 21.245448652040885 5.065987211904634 0 0 0
4721 8 1 0.066 17.95805364736398 17.188131195487003 6.723253992800418 0 0 0
4720 8 6 -0.396 19.187118235213116 17.816514983216095 7.2772254593771315 0 0 0
4718 8 3 0.702 19.75237344594885 17.14143100187593 8.282532883442405 0 0 0
4712 8 4 0.053 20.796994293766552 19.75034018978765 7.7015055384020155 0 0 0
4699 8 1 -0.159 21.1736669967592 17.994348157589254 5.376861662856369 0 0 0
1675 3 4 0.053 18.72385676867564 20.623726961751395 6.689597916801695 0 0 0
4713 8 1 0 21.080503383387164 17.81069817580439 8.828252060182933 0 0 0
4702 8 4 0.053 20.238748520111606 18.593390007068773 5.476784020050879 0 0 0
1676 3 4 0.053 18.63902562682096 21.04830155136632 8.346894715391338 0 0 0
4701 8 4 0.053 20.987721614109393 16.942353184599853 5.6887057397647 0 0 0
1674 3 1 -0.159 18.47162787176365 21.448460243056854 7.373778915376573 0 0 0
4726 8 4 0.053 20.33272860948592 19.65409068165483 9.791510319379274 0 0 0
4710 8 1 -0.106 21.617676097063104 18.93416383619466 7.76998957853621 0 0 0
4499 8 4 0.053 5.413075943558515 11.700889596550276 5.489234291215371 0 0 0
1986 4 4 0.053 23.64995257191779 4.993008189164646 21.724940854591864 0 0 0
1262 3 4 0.053 20.56533264307517 11.777194087682705 23.83974727480678 0 0 0
4714 8 1 -0.159 22.01374700957734 16.681074946428105 9.194907428853737 0 0 0
4704 8 5 -0.531 23.02403963914832 21.037046968578128 6.163821198295128 0 0 0
4703 8 3 0.702 22.36352944415548 20.20152839849243 5.64971832535757 0 0 0
4698 8 1 0 22.207245037025675 18.706424091430527 6.29952100381103 0 0 0
4711 8 4 0.053 22.462243685559212 19.48730066338191 8.24375567972402 0 0 0
4715 8 4 0.053 23.04451701822186 17.029705107476808 9.236051802681805 0 0 0
4695 8 1 -0.106 23.556628853963726 17.999184940005712 6.376963447932492 0 0 0
4696 8 4 0.053 23.258168198305068 17.108934019317672 6.961948316079505 0 0 0
506 1 6 -0.396 7.894908538170542 24.00717968741603 7.1660788447131285 0 0 1
4370 8 4 0.053 6.764973252465067 22.97249644640897 9.323632833339436 0 0 0
500 1 1 -0.159 5.88229995014507 22.430601213148137 6.328994656591923 0 0 1
499 1 1 0 6.295531533757256 23.606324328957342 5.395309986229247 0 0 1
4199 7 4 0.053 23.564627857253626 18.07904276042716 15.811730425948408 0 0 0
4369 8 1 -0.159 6.2511540649352275 22.450994448992223 10.161038642854486 0 0 0
503 1 4 0.053 5.451688366657356 22.76213667162809 7.32939315436514 0 0 1
4372 8 4 0.053 5.236588857528904 22.39293767778941 9.960827889093352 0 0 0
5521 10 4 0.053 19.628450195945796 23.51866178464564 19.44826816606563 0 0 0
5820 10 1 0.066 14.50230102168651 4.5098222577498746 11.508082630062741 0 1 0
3219 6 4 0.053 5.049304345322344 5.485205796411176 16.633783447592066 0 1 0
1687 3 4 0.053 15.707480238121924 21.863313096130387 5.237894052812677 0 0 0
1660 3 4 0.053 14.194797426628359 22.289310243466943 8.901944883004354 0 0 0
1661 3 4 0.053 14.016524425201181 22.62665007620292 7.136402839225588 0 0 0
5442 10 3 0.702 4.963908892906446 24.00617885697551 21.972189619397863 0 0 0
4752 8 4 0.053 21.483202599790708 22.927804147503068 9.133362146860469 0 0 0
3070 6 4 0.053 11.719140693895007 8.121787508878839 23.19765559954625 0 1 0
1673 3 1 0 17.008655434967707 21.923281227674178 7.0524707509238755 0 0 0
1685 3 1 -0.106 16.751914807990232 22.06773614787761 5.4758846280003635 0 0 0
1677 3 4 0.053 19.175625757301326 22.274394621655357 7.2650731474585974 0 0 0
1678 3 3 0.702 16.733117616741477 23.27218908550783 7.821093160000762 0 0 0
1680 3 6 -0.396 16.980795744143467 23.04352067272869 9.17408144068518 0 0 0
1691 3 4 0.053 19.33849433611578 23.09286385179595 4.811414046419103 0 0 0
5780 10 4 0.053 23.308347152840348 4.980706379685261 11.63899622498947 0 1 0
4751 8 1 0.066 21.02863379739186 23.488716569215548 9.916682443569194 0 0 0
5515 10 4 0.053 16.099990087477266 23.1457951017876 23.872810731684453 0 0 0
4220 8 4 0.053 23.991714125245753 9.762352465889744 19.459819376850948 0 0 0
3653 7 6 -0.396 23.375307226308504 16.353967700759483 23.147743542056013 0 0 0
3316 6 4 0.053 10.156286113918473 5.318980699737273 12.28516468758901 0 1 0
1594 3 4 0.053 8.863639775205101 8.358485765482577 10.56898588507282 0 0 0
3303 6 4 0.053 7.952020268268255 5.063232495739275 12.52807173794247 0 1 0
1579 3 4 0.053 6.542378117960897 7.792988355877429 15.285111701382865 0 0 0
1592 3 4 0.053 7.401480339089906 8.568561938891627 11.75210413928472 0 0 0
1593 3 4 0.053 8.56178630454316 7.235426455737871 11.860925465349364 0 0 0
1591 3 1 0.066 8.454505959396506 8.283452690655261 11.648066195440624 0 0 0
1590 3 6 -0.396 9.247410253298533 9.038295172161932 12.574615514276061 0 0 0
1576 3 1 0.066 7.577740573595474 7.375291807769868 15.054724794788715 0 0 0
1574 3 5 -0.531 10.180328647101248 6.759703498047701 15.081051627482733 0 0 0
1573 3 3 0.702 9.827831516431498 7.795469270446295 15.562217675577877 0 0 0
1575 3 6 -0.396 8.518646983419291 8.234255390918221 15.573686261119073 0 0 0
1577 3 4 0.053 7.631242198879708 7.423263576915162 13.967650745064502 0 0 0
1582 3 4 0.053 9.664101260063143 10.417657195329202 14.995837131976904 0 0 0
5444 10 6 -0.396 5.232242787107462 23.75961444971495 23.29036062621247 0 0 0
5642 10 4 0.053 23.44952069362923 5.247460689275812 17.374414779275668 0 1 0
1588 3 3 0.702 10.60743366412792 8.83750629045306 12.591352917224036 0 0 0
1589 3 5 -0.531 11.105441655513033 7.872437017865034 12.051794906243664 0 0 0
1580 3 1 -0.106 10.678619293708124 10.043256651794158 15.036132640188006 0 0 0
1583 3 1 0 11.285156448095716 9.84873058993766 13.534483913217056 0 0 0
1584 3 1 -0.159 12.82012074764116 9.475545454413286 13.59315151999517 0 0 0
1587 3 4 0.053 13.308232715208277 9.745467593608222 12.585503051736811 0 0 0
1586 3 4 0.053 12.868271445252427 8.37832783550553 13.697144465693466 0 0 0
5818 10 5 -0.531 14.781310678598164 5.696952122417854 13.995398724238578 0 1 0
1571 3 4 0.053 12.633004773083956 7.798531884158762 15.616518568757371 0 0 0
4383 8 1 0 4.586166260337895 22.42493994761104 12.847250898646418 0 0 0
5807 10 4 0.053 15.66149076306924 7.282292680307802 11.430369883456061 0 1 0
5808 10 4 0.053 16.2748239515494 8.79775664333007 11.940053705638785 0 1 0
1585 3 4 0.053 13.340369279655485 9.889230619356809 14.501337444817176 0 0 0
1568 3 1 0 10.811899067652302 8.879958807581678 16.134330810828523 0 0 0
3318 6 4 0.053 11.639756653527092 5.04001627990552 11.57261071355369 0 1 0
5821 10 4 0.053 14.386603796882321 5.570364891642544 11.440280684420642 0 1 0
4597 8 4 0.053 16.388852471410424 10.454692466178109 9.889828472810922 0 0 0
5806 10 4 0.053 17.11684325120136 7.975263899698517 10.501950994456163 0 1 0
5805 10 1 0.066 16.54070905838072 7.887231908237783 11.461412817762444 0 1 0
5802 10 3 0.702 17.90343122230721 5.960925547372867 12.13873395746015 0 1 0
5804 10 6 -0.396 17.35837378244362 7.115947629251787 12.53268374399973 0 1 0
5786 10 4 0.053 20.117177763267094 7.1653711538052685 11.674100067440573 0 1 0
5784 10 4 0.053 20.48619781507377 6.183883498784233 10.286052257626451 0 1 0
5797 10 1 0 18.743455284017628 5.358077936637982 13.310110519325658 0 1 0
5798 10 1 -0.159 19.00203987391587 6.3126313189883 14.516421804855401 0 1 0
5783 10 1 -0.159 20.89652957206635 6.512348937449981 11.252963995805175 0 1 0
5782 10 1 0 21.183648169801444 5.348931582930563 12.205417943019839 0 1 0
4563 8 1 0 11.419045675199119 11.856679808806538 4.67632119478733 0 0 0
5799 10 4 0.053 19.682865478138666 7.119378246182514 14.326461038997536 0 1 0
4257 8 4 0.053 17.759468333607053 9.38438705324888 14.059202968149673 0 0 0
4256 8 1 0.066 17.966003582866914 10.415202434902154 14.247979027065718 0 0 0
5800 10 4 0.053 18.017761544595412 6.72524092152194 14.788646893062316 0 1 0
5785 10 4 0.053 21.755098391139608 7.169163531859957 11.102915975948212 0 1 0
5787 10 3 0.702 21.851929081164045 5.884862061138481 13.532697051631494 0 1 0
5791 10 4 0.053 22.987362986072643 7.151786946528279 15.592602823489472 0 1 0
5788 10 5 -0.531 22.072098367765065 5.188748382836929 14.463801852690864 0 1 0
3516 6 6 -0.396 23.73575206023935 9.19308060455415 11.835321535749506 0 1 0
5792 10 4 0.053 21.24345781002169 7.635604228057 15.535255596435299 0 1 0
509 1 4 0.053 9.345612614573886 24.017416306880474 8.558392522816572 0 0 1
5789 10 6 -0.396 22.1008120649907 7.247806390761234 13.700877877899146 0 1 0
3517 6 1 0.066 22.656394457461225 10.15387957998652 11.9275184387593 0 1 0
3520 6 4 0.053 21.979824737714633 10.073851294168733 12.793810859964195 0 1 0
5790 10 1 0.066 22.247241010677424 7.724356074424968 15.072215479125722 0 1 0
3518 6 4 0.053 22.058347918020914 10.054906069945805 10.995212872405181 0 1 0