units real
atom_style full
boundary p p p

# --- Force Field Styles ---
pair_style lj/cut 14.0
dielectric 1.000000
bond_style harmonic
angle_style harmonic
dihedral_style multi/harmonic
improper_style none
special_bonds lj 0 0 0
pair_modify mix arithmetic tail yes
neighbor 2.0 bin
neigh_modify delay 0 every 1 check yes
neigh_modify one 4000
package gpu 1 neigh yes

read_data /home/arz2/PolyJarvis/data/PE2/lammps/equil/npt_production/npt_production_out.data
Reading data file ...
  orthogonal box = (2.5061911 2.5061911 2.5061911) to (53.272181 53.272181 53.272181)
  1 by 1 by 1 MPI processor grid
  reading atoms ...
  4840 atoms
  reading velocities ...
  4840 velocities
  scanning bonds ...
  2 = max bonds/atom
  scanning angles ...
  1 = max angles/atom
  scanning dihedrals ...
  2 = max dihedrals/atom
  orthogonal box = (2.5061911 2.5061911 2.5061911) to (53.272181 53.272181 53.272181)
  1 by 1 by 1 MPI processor grid
  reading bonds ...
  4820 bonds
  reading angles ...
  4800 angles
  reading dihedrals ...
  4780 dihedrals
Finding 1-2 1-3 1-4 neighbors ...
  special bond factors lj:    0        0        0       
  special bond factors coul:  0        0        0       
     2 = max # of 1-2 neighbors
     2 = max # of 1-3 neighbors
     4 = max # of 1-4 neighbors
     6 = max # of special neighbors
  special bonds CPU = 0.001 seconds
  read_data CPU = 0.065 seconds


# --- Thermo Output ---
thermo_style custom step time temp press enthalpy etotal ke pe ebond eangle edihed eimp evdwl ecoul elong etail vol lx ly lz density pxx pyy pzz
thermo_modify flush yes
thermo 100

# --- Trajectory ---
dump dump_npt all custom 1000 /home/arz2/PolyJarvis/data/PE2/lammps/mechanical/bm_series/bm_P1000/bm_P1000.dump id type mol x y z ix iy iz vx vy vz

# --- Restart Checkpointing ---
restart 10000 npt_1.rst npt_2.rst

# --- Initial Velocities (optional) ---
# Velocities read from data file


# --- NPT Thermostat + Barostat (Nose-Hoover) ---
# T_damp = 100.0 fs  (heat bath coupling)
# P_damp = 1000.0 fs  (pressure bath coupling, ~10x T_damp typical)
# Ramp: T=300.0->300.0K  P=1000.0->1000.0atm
timestep 1.0
fix npt_fix all npt temp 300.0 300.0 100.0 iso 1000.0 1000.0 1000.0

run 500000

CITE-CITE-CITE-CITE-CITE-CITE-CITE-CITE-CITE-CITE-CITE-CITE-CITE

Your simulation uses code contributions which should be cited:

- GPU package (short-range, long-range and three-body potentials): doi:10.1016/j.cpc.2010.12.021, doi:10.1016/j.cpc.2011.10.012, doi:10.1016/j.cpc.2013.08.002, doi:10.1016/j.commatsci.2014.10.068, doi:10.1016/j.cpc.2016.10.020, doi:10.3233/APC200086

@Article{Brown11,
 author = {W. M. Brown and P. Wang and S. J. Plimpton and A. N. Tharrington},
 title = {Implementing Molecular Dynamics on Hybrid High Performance Computers---Short Range Forces},
 journal = {Comput.\ Phys.\ Commun.},
 year =    2011,
 volume =  182,
 pages =   {898--911},
 doi =     {10.1016/j.cpc.2010.12.021}
}

@Article{Brown12,
 author = {W. M. Brown and A. Kohlmeyer and S. J. Plimpton and A. N. Tharrington},
 title = {Implementing Molecular Dynamics on Hybrid High Performance Computers - Particle-Particle Particle-Mesh},
 journal = {Comput.\ Phys.\ Commun.},
 year =    2012,
 volume =  183,
 doi =     {10.1016/j.cpc.2011.10.012},
 pages =   {449--459}
}

@Article{Brown13,
 author = {W. M. Brown and Y. Masako},
 title = {Implementing Molecular Dynamics on Hybrid High Performance Computers---Three-Body Potentials},
 journal = {Comput.\ Phys.\ Commun.},
 year =    2013,
 volume =  184,
 pages =   {2785--2793},
 doi =     {10.1016/j.cpc.2013.08.002},
}

@Article{Trung15,
 author = {T. D. Nguyen and S. J. Plimpton},
 title = {Accelerating Dissipative Particle Dynamics Simulations for Soft Matter Systems},
 journal = {Comput.\ Mater.\ Sci.},
 year =    2015,
 doi =     {10.1016/j.commatsci.2014.10.068},
 volume =  100,
 pages =   {173--180}
}

@Article{Trung17,
 author = {T. D. Nguyen},
 title = {{GPU}-Accelerated {T}ersoff Potentials for Massively Parallel
    Molecular Dynamics Simulations},
 journal = {Comput.\ Phys.\ Commun.},
 year =    2017,
 doi =     {10.1016/j.cpc.2016.10.020},
 volume =  212,
 pages =   {113--122}
}

@inproceedings{Nikolskiy19,
 author = {V. Nikolskiy and V. Stegailov},
 title = {{GPU} Acceleration of Four-Site Water Models in {LAMMPS}},
 booktitle = {Proceedings of the International Conference on Parallel
    Computing (ParCo 2019), Prague, Czech Republic},
 doi =     {10.3233/APC200086},
 year =    2019
}

CITE-CITE-CITE-CITE-CITE-CITE-CITE-CITE-CITE-CITE-CITE-CITE-CITE

Generated 1 of 1 mixed pair_coeff terms from arithmetic mixing rule
Per MPI rank memory allocation (min/avg/max) = 15.03 | 15.03 | 15.03 Mbytes
   Step          Time           Temp          Press         Enthalpy        TotEng         KinEng         PotEng         E_bond        E_angle        E_dihed        E_impro         E_vdwl         E_coul         E_long         E_tail         Volume           Lx             Ly             Lz          Density          Pxx            Pyy            Pzz      
         0   0              301.48309      20.234638      4216.2766      4177.6675      4348.6342     -170.96676      1459.5162      1408.3707      2711.3368      0             -5750.1904      0              0             -190.5519       130833.38      50.76599       50.76599       50.76599       0.86216875     30.623021      141.5533      -111.47241    
       100   100            303.14086      761.84649      5568.9769      4126.0328      4372.5462     -246.51339      1409.7613      1396.7769      2699.3673      0             -5752.4188      0              0             -191.96661      129869.19      50.640974      50.640974      50.640974      0.86856976     880.55314      552.49825      852.48806    
       200   200            297.62878      1267.8231      6441.9824      4071.8703      4293.0392     -221.16892      1454.1356      1409.3811      2703.1362      0             -5787.8218      0              0             -194.49011      128184.15      50.420999      50.420999      50.420999      0.87998752     1361.4639      1654.4409      787.56449    
       300   300            299.18133      1025.0439      5951.4376      4052.8635      4315.4334     -262.56984      1402.6783      1449.4311      2722.2489      0             -5836.9282      0              0             -196.30107      127001.6       50.265468      50.265468      50.265468      0.8881814      558.81081      1234.9447      1281.3763    
       400   400            298.5677       1411.2912      6670.8502      4070.4035      4306.5823     -236.17883      1456.4874      1463.9368      2680.5746      0             -5837.1777      0              0             -197.32241      126344.24      50.178593      50.178593      50.178593      0.89280251     992.10368      1138.6702      2103.0997    
       500   500            301.99197      571.30341      5146.6366      4091.3338      4355.9744     -264.64057      1447.9329      1426.0534      2712.6132      0             -5851.24        0              0             -196.8328       126658.51      50.220164      50.220164      50.220164      0.89058726     281.26118      848.8605       583.78856    
       600   600            301.82117      1443.4771      6738.2758      4071.9082      4353.5107     -281.60252      1470.3346      1387.819       2717.3155      0             -5857.0717      0              0             -196.83287      126658.47      50.220158      50.220158      50.220158      0.89058758     823.43139      1639.9581      1867.0418    
       700   700            298.08405      1249.3111      6288.311       3980.0433      4299.606      -319.56269      1421.5403      1416.4663      2688.3891      0             -5845.9585      0              0             -196.78508      126689.23      50.224223      50.224223      50.224223      0.89037134     1919.1105      537.5122       1291.3106    
       800   800            296.27244      1081.6109      5938.0988      3934.1289      4273.4751     -339.34615      1414.6571      1424.4355      2663.9942      0             -5842.4329      0              0             -196.24003      127041.1       50.270679      50.270679      50.270679      0.8879052      1384.2647      867.69952      992.86833    
       900   900            295.98112      1466.6994      6699.8668      3983.2219      4269.273      -286.05109      1441.7081      1413.7084      2696.1089      0             -5837.5765      0              0             -196.29805      127003.55      50.265726      50.265726      50.265726      0.8881677      1391.2696      1238.5462      1770.2822    
      1000   1000           302.6603       734.02487      5488.465       4126.484       4365.6144     -239.13043      1432.3839      1466.3243      2701.6811      0             -5839.5198      0              0             -195.95099      127228.5       50.295384      50.295384      50.295384      0.88659741     1006.6961      629.21877      566.15969    
      1100   1100           302.24872      227.16371      4547.5509      4126.7149      4359.6778     -232.96286      1439.879       1393.5432      2727.3319      0             -5793.717       0              0             -196.26094      127027.57      50.268894      50.268894      50.268894      0.88799981     538.42445      665.70636     -522.63967    
      1200   1200           303.1374       1270.7216      6440.8154      4094.9805      4372.4962     -277.51571      1441.9604      1452.5292      2678.6371      0             -5850.6424      0              0             -196.95214      126581.76      50.210019      50.210019      50.210019      0.89112721     1520.8788      1059.2822      1232.0037    
      1300   1300           297.34618      871.31619      5610.771       4003.8289      4288.9629     -285.13398      1437.1181      1410.1455      2732.5916      0             -5864.9892      0              0             -197.14389      126458.65      50.193735      50.193735      50.193735      0.89199479     1294.4962      346.08035      973.372      
      1400   1400           300.74396      1160.2003      6083.4403      3951.4075      4337.973      -386.56548      1377.5018      1412.5607      2712.1664      0             -5888.7944      0              0             -197.85491      126004.2       50.133536      50.133536      50.133536      0.89521187     1183.9409      1472.0066      824.65337    
      1500   1500           301.39091      1113.024       6022.2206      3979.512       4347.3047     -367.79263      1410.8944      1414.2995      2681.0525      0             -5874.039       0              0             -198.10976      125842.1       50.112029      50.112029      50.112029      0.89636498     1090.0183      997.56835      1251.4855    
      1600   1600           298.46336      1219.308       6242.0329      4001.8922      4305.0772     -303.18501      1428.7076      1465.9071      2682.4815      0             -5880.2813      0              0             -197.90003      125975.47      50.129726      50.129726      50.129726      0.89541601     1583.9303      930.05704      1143.9366    
      1700   1700           299.1052       1069.3797      6029.0233      4063.1382      4314.3352     -251.19706      1425.1632      1513.8053      2693.923       0             -5884.0885      0              0             -197.77962      126052.16      50.139897      50.139897      50.139897      0.89487124     1219.1022      1492.0167      497.02018    
      1800   1800           303.82893      1082.8418      6092.8553      4097.5626      4382.471      -284.90836      1406.6636      1465.5367      2709.4737      0             -5866.5823      0              0             -197.31776      126347.22      50.178988      50.178988      50.178988      0.89278147     1274.3923      805.22103      1168.9122    
      1900   1900           304.5724       825.46642      5690.2986      4165.4137      4393.1948     -227.7811       1445.6953      1478.4551      2721.0503      0             -5872.9818      0              0             -196.82039      126666.5       50.22122       50.22122       50.22122       0.8905311      961.67896      861.29232      653.42797    
      2000   2000           298.3698       942.97092      5963.8186      4223.2304      4303.7277     -80.49726       1465.5301      1533.7285      2768.3949      0             -5848.1507      0              0             -196.97451      126567.39      50.208118      50.208118      50.208118      0.89122842     864.28702      1416.4504      548.17533    
      2100   2100           303.14385      458.41383      5008.0369      4162.284       4372.5893     -210.30531      1433.737       1484.0773      2709.2489      0             -5837.3686      0              0             -197.07066      126505.64      50.199951      50.199951      50.199951      0.89166347     895.36221      238.35927      241.52001    
      2200   2200           299.80588      848.44593      5620.2036      4055.8235      4324.4419     -268.61839      1444.2813      1444.8178      2708.4888      0             -5866.2063      0              0             -197.19216      126427.69      50.189639      50.189639      50.189639      0.8922132      992.89202      910.73423      641.71155    
      2300   2300           297.70373      1100.9701      6066.572       4034.8575      4294.1202     -259.26269      1406.1748      1476.501       2698.8823      0             -5840.8208      0              0             -197.02466      126535.17      50.203857      50.203857      50.203857      0.89145535     1273.138       1335.5664      694.206      
      2400   2400           303.8342       970.92815      5838.5102      4047.0088      4382.5469     -335.53807      1434.0979      1404.0824      2722.2171      0             -5895.9355      0              0             -197.05056      126518.54      50.201657      50.201657      50.201657      0.89157254     1116.5007      829.18833      967.09544    
      2500   2500           306.00538      978.84166      5852.385       4047.2476      4413.8644     -366.61682      1409.4572      1431.4881      2647.5161      0             -5855.0783      0              0             -197.15596      126450.9       50.19271       50.19271       50.19271       0.89204943     883.65713      730.07026      1322.7976    
      2600   2600           299.22864      1226.6146      6279.8959      4021.7516      4316.1157     -294.36418      1441.3379      1440.9053      2683.9924      0             -5860.5997      0              0             -197.49866      126231.49      50.163662      50.163662      50.163662      0.89359999     988.51015      1660.1658      1031.1678    
      2700   2700           298.93524      1020.9131      5857.752       3977.5362      4311.8836     -334.34745      1406.2002      1435.5336      2684.2978      0             -5860.3791      0              0             -197.41893      126282.47      50.170414      50.170414      50.170414      0.89323923     1236.0596      1028.4173      798.26222    
      2800   2800           296.65736      597.87948      5038.6997      3934.8188      4279.0272     -344.2084       1449.1101      1459.3164      2624.7846      0             -5877.4195      0              0             -196.92425      126599.69      50.212389      50.212389      50.212389      0.89100102     310.61754      1173.1343      309.8866     
      2900   2900           303.6957       652.35291      5164.8802      3959.6622      4380.5492     -420.887        1393.8174      1403.0985      2665.4728      0             -5883.2756      0              0             -196.79985      126679.72      50.222967      50.222967      50.222967      0.89043815     773.55613      503.69324      679.80937    
      3000   3000           296.47505      576.74134      5138.2307      4074.5926      4276.3976     -201.80499      1486.0996      1513.1082      2679.3823      0             -5880.3951      0              0             -197.14916      126455.26      50.193287      50.193287      50.193287      0.89201866     1337.2565     -192.10465      585.07216    
      3100   3100           300.30526      432.61129      4914.6805      4117.2358      4331.6451     -214.40928      1492.5858      1414.6683      2742.239       0             -5863.9024      0              0             -197.24457      126394.1       50.185193      50.185193      50.185193      0.89245034     578.55578      51.988926      667.28917    
      3200   3200           300.89444      924.83546      5763.2701      4060.293       4340.1435     -279.85056      1419.3731      1458.652       2671.8226      0             -5829.6983      0              0             -197.45284      126260.78      50.167542      50.167542      50.167542      0.89339268     610.7719       1327.1472      836.5873     
      3300   3300           302.11455      923.65348      5708.9842      4005.8342      4357.7426     -351.90837      1429.5747      1444.1812      2665.8758      0             -5891.54        0              0             -197.18047      126435.18      50.19063       50.19063       50.19063       0.89216033     1489.8663      115.97703      1165.1171    
      3400   3400           297.14693      964.98164      5757.8675      3977.1104      4286.0888     -308.97847      1417.8685      1482.8698      2623.2766      0             -5832.9933      0              0             -197.02535      126534.73      50.203799      50.203799      50.203799      0.89145844     862.49092      908.09192      1124.3621    
      3500   3500           297.94627      1182.601       6171.1809      3988.6779      4297.6187     -308.9408       1454.0476      1447.7718      2622.8252      0             -5833.5854      0              0             -197.0113       126543.75      50.204992      50.204992      50.204992      0.8913949      906.07148      1577.2233      1064.5083    
      3600   3600           302.78227      872.12829      5642.9878      4030.7257      4367.3737     -336.64803      1461.2376      1416.8483      2662.443       0             -5877.1769      0              0             -196.6765       126759.17      50.233464      50.233464      50.233464      0.88988007     1130.3932      824.73796      661.25372    
      3700   3700           302.89053      1220.984       6343.639       4090.6577      4368.9353     -278.27765      1448.6565      1426.6906      2710.638       0             -5864.2628      0              0             -197.0426       126523.65      50.202334      50.202334      50.202334      0.89153651     1549.0566      547.71387      1566.1815    
      3800   3800           301.83747      1003.2491      5989.1812      4139.8275      4353.7459     -213.91834      1436.1424      1480.9563      2719.1928      0             -5850.2098      0              0             -197.2407       126396.58      50.185521      50.185521      50.185521      0.89243282     1499.9784      731.05367      778.71515    
      3900   3900           299.89387      1110.3043      6139.1057      4091.9702      4325.7111     -233.74093      1450.3675      1494.819       2680.3606      0             -5859.288       0              0             -197.1983       126423.75      50.189118      50.189118      50.189118      0.89224098     1475.9923      793.89262      1061.028     
      4000   4000           296.7558       1178.6254      6155.6694      3979.0919      4280.4471     -301.35523      1429.1         1432.5987      2711.4248      0             -5874.4787      0              0             -196.88354      126625.87      50.215849      50.215849      50.215849      0.89081683     940.30147      1068.5911      1526.9837    
      4100   4100           298.35962      499.57885      4880.3088      3958.1317      4303.5808     -345.44913      1378.0619      1467.3524      2682.1317      0             -5872.9952      0              0             -196.96881      126571.05      50.208602      50.208602      50.208602      0.89120263     416.92711      592.27384      489.5356     
      4200   4200           299.00487      911.59702      5688.9325      4009.9215      4312.8881     -302.96664      1457.1618      1439.8884      2666.855       0             -5866.8718      0              0             -197.40452      126291.69      50.171635      50.171635      50.171635      0.89317403     788.7269       787.47913      1158.585     
      4300   4300           301.80243      929.40092      5790.4048      4077.2115      4353.2404     -276.02891      1463.3789      1484.2656      2654.8572      0             -5878.5306      0              0             -197.2443       126394.27      50.185216      50.185216      50.185216      0.89244911     1284.9393      413.13938      1090.1241    
      4400   4400           303.51253      789.36318      5511.5508      4053.417       4377.9072     -324.4902       1421.6835      1446.6593      2663.719       0             -5856.5521      0              0             -196.82816      126661.5       50.220558      50.220558      50.220558      0.89056627     713.2646       1201.5118      453.31317    
      4500   4500           300.49546      743.74784      5385.4646      4009.6109      4334.3886     -324.77766      1416.6183      1436.1867      2671.2927      0             -5848.8753      0              0             -196.54465      126844.21      50.244695      50.244695      50.244695      0.88928347     458.43076      447.20852      1325.6043    
      4600   4600           303.63924      788.43285      5439.0337      3981.5015      4379.7349     -398.23333      1406.9763      1413.6889      2638.7076      0             -5857.6061      0              0             -196.67733      126758.63      50.233393      50.233393      50.233393      0.88988382     488.2659       1050.3183      826.71436    
      4700   4700           297.32172      986.41021      5713.0166      3890.8886      4288.6101     -397.72149      1393.0196      1445.9322      2666.2272      0             -5902.9005      0              0             -196.8278       126661.73      50.22059       50.22059       50.22059       0.89056461     1542.9178      1108.0227      308.29008    
      4800   4800           295.80352      885.14406      5506.3963      3873.2454      4266.7113     -393.46594      1420.0821      1392.7872      2654.8546      0             -5861.1899      0              0             -197.05859      126513.39      50.200976      50.200976      50.200976      0.89160886     829.81814      483.45702      1342.157     
      4900   4900           302.01318      948.14107      5765.0695      4021.1229      4356.2803     -335.1574       1412.7976      1470.0443      2666.6867      0             -5884.686       0              0             -197.67308      126120.1       50.148903      50.148903      50.148903      0.89438917     1412.5931      1258.4229      173.40721    
      5000   5000           306.01829      402.62131      4804.6521      4066.586       4414.0505     -347.46451      1413.886       1467.1839      2674.2256      0             -5902.76        0              0             -198.33952      125696.33      50.092672      50.092672      50.092672      0.89740452     1033.3591      303.97688     -129.47209    
      5100   5100           303.32618      1102.5615      6038.8736      4017.0931      4375.2193     -358.12617      1414.4469      1462.1324      2614.6505      0             -5849.356       0              0             -198.27893      125734.74      50.097774      50.097774      50.097774      0.8971304      849.03956      905.76283      1552.8822    
      5200   5200           299.45116      906.75583      5594.7247      3926.7671      4319.3254     -392.55831      1432.1449      1401.3586      2663.1296      0             -5889.1913      0              0             -197.6574       126130.11      50.15023       50.15023       50.15023       0.89431821     1317.5669      885.87967      516.82091    
      5300   5300           300.53575      548.94869      4926.3477      3914.5231      4334.9697     -420.44662      1444.7442      1390.1596      2632.7843      0             -5888.1346      0              0             -197.25783      126385.6       50.184068      50.184068      50.184068      0.89251036     976.66256      714.27821     -44.094688    
      5400   5400           298.13176      726.44883      5286.0728      3949.9744      4300.2942     -350.31988      1418.4751      1424.0983      2677.3268      0             -5870.2201      0              0             -197.68527      126112.33      50.147872      50.147872      50.147872      0.89444434     160.22927      1006.9029      1012.2143    
      5500   5500           302.99124      545.95404      5122.7565      4118.4469      4370.388      -251.9411       1451.1914      1496.5095      2668.5062      0             -5868.1482      0              0             -197.64973      126135.01      50.150878      50.150878      50.150878      0.89428351     1014.4248      500.32934      123.10795    
      5600   5600           307.87873      471.53683      4958.9729      4091.7198      4440.8859     -349.1661       1411.4242      1472.2056      2679.6456      0             -5912.4415      0              0             -197.68672      126111.4       50.14775       50.14775       50.14775       0.8944509      309.54407      766.08036      338.98607    
      5700   5700           298.06134      1041.8983      5930.1637      4019.508       4299.2785     -279.77047      1417.0081      1459.0306      2698.7408      0             -5854.5499      0              0             -198.26709      125742.25      50.098771      50.098771      50.098771      0.89707683     509.02854      1244.7475      1371.9188    
      5800   5800           300.83046      508.04248      4940.139       4006.2488      4339.2206     -332.97183      1459.6383      1416.2902      2686.1243      0             -5895.0248      0              0             -197.79346      126043.35      50.138728      50.138728      50.138728      0.89493382     618.21462      383.96009      521.95274    
      5900   5900           298.17784      581.26995      5089.2155      4017.077       4300.9589     -283.88192      1392.9908      1428.8057      2733.1368      0             -5838.8152      0              0             -197.12183      126472.8       50.195607      50.195607      50.195607      0.89189497     890.82434      824.82373      28.161778    
      6000   6000           301.47821      970.42714      5931.0905      4136.2934      4348.5638     -212.27038      1485.2045      1436.1266      2742.645       0             -5876.2465      0              0             -196.58724      126816.72      50.241066      50.241066      50.241066      0.88947619     750.11093      890.75085      1270.4197    
      6100   6100           304.75986      1300.0759      6542.9099      4136.6768      4395.8988     -259.22202      1452.7712      1497.691       2645.3483      0             -5855.0325      0              0             -196.444        126909.19      50.253274      50.253274      50.253274      0.8888281      1606.1515      1632.1331      661.94323    
      6200   6200           300.03204      724.36307      5384.6191      4043.2521      4327.7041     -284.45196      1457.7904      1430.6507      2676.5518      0             -5849.4448      0              0             -196.34345      126974.19      50.261851      50.261851      50.261851      0.88837313     1093.4774      308.96295      770.64889    
      6300   6300           299.56334      977.17979      5803.4243      4000.2237      4320.9436     -320.71982      1420.763       1473.344       2670.6699      0             -5885.4968      0              0             -197.03265      126530.04      50.203179      50.203179      50.203179      0.89149147     1203.5358      877.61505      850.38847    
      6400   6400           300.32797      1059.0177      5952.3842      4001.5848      4331.9726     -330.3878       1412.7736      1429.2481      2687.2809      0             -5859.6904      0              0             -197.37782      126308.77      50.173897      50.173897      50.173897      0.89305325     628.38094      1491.6137      1057.0586    
      6500   6500           301.28148      738.6709       5397.3815      4035.6888      4345.7263     -310.03742      1436.3713      1421.7741      2685.5519      0             -5853.7347      0              0             -197.23302      126401.5       50.186173      50.186173      50.186173      0.89239807     589.27208      901.24792      725.49269    
      6600   6600           304.03442      876.08475      5717.8637      4102.3794      4385.435      -283.05559      1429.2543      1457.4137      2715.1202      0             -5884.8437      0              0             -197.17467      126438.91      50.191123      50.191123      50.191123      0.89213407     1099.649       836.95122      691.65401    
      6700   6700           305.97639      1146.511       6317.9668      4204.3996      4413.4463     -209.04673      1486.9841      1462.3178      2709.1172      0             -5867.4658      0              0             -197.2286       126404.33      50.186547      50.186547      50.186547      0.89237808     932.55079      1814.6505      692.33168    
      6800   6800           306.0914       1014.6889      6010.0591      4140.8181      4415.1052     -274.28703      1429.1336      1453.5415      2719.0982      0             -5876.0604      0              0             -197.36738      126315.45      50.174782      50.174782      50.174782      0.89300601     1327.5251      323.80795      1392.7337    
      6900   6900           300.60264      606.40104      5149.4155      4031.0465      4335.9345     -304.88809      1446.6458      1446.6728      2701.7049      0             -5899.9116      0              0             -197.14354      126458.87      50.193764      50.193764      50.193764      0.89199322     591.88016      875.03823      352.28474    
      7000   7000           301.23735      1325.8506      6461.8871      4019.9095      4345.0896     -325.18011      1399.0316      1458.9328      2693.0839      0             -5876.2283      0              0             -197.40613      126290.65      50.171498      50.171498      50.171498      0.89318134     1144.5605      1841.255       991.73621    
      7100   7100           301.87564      1321.0569      6470.7871      4037.6373      4354.2964     -316.65913      1452.7709      1442.4054      2679.9112      0             -5891.7466      0              0             -197.40604      126290.71      50.171506      50.171506      50.171506      0.89318091     966.48021      1308.3502      1688.3404    
      7200   7200           300.7519       1283.1979      6378.8854      4013.5135      4338.0874     -324.57397      1451.0803      1410.6277      2681.4881      0             -5867.7701      0              0             -197.24315      126395.01      50.185313      50.185313      50.185313      0.89244391     960.62813      1806.8671      1082.0984    
      7300   7300           297.55119      704.42919      5247.6128      3946.0277      4291.92       -345.89223      1441.0869      1391.8879      2688.3191      0             -5867.1861      0              0             -196.77618      126694.95      50.22498       50.22498       50.22498       0.89033108     300.85406      528.99767      1283.4358    
      7400   7400           295.08381      1078.9231      5909.0654      3918.0624      4256.3302     -338.26781      1409.7664      1415.4535      2723.5219      0             -5887.0096      0              0             -197.02725      126533.51      50.203637      50.203637      50.203637      0.89146706     929.56433      617.13752      1690.0674    
      7500   7500           298.50185      1185.0532      6207.1953      4028.1585      4305.6324     -277.4739       1455.1646      1468.1739      2669.1927      0             -5870.0051      0              0             -197.73385      126081.34      50.143765      50.143765      50.143765      0.89466413     1115.5006      1138.9841      1300.6748    
      7600   7600           303.77569      811.2852       5598.9518      4108.3429      4381.703      -273.36015      1439.3288      1441.881       2697.176       0             -5851.7459      0              0             -197.88714      125983.68      50.130814      50.130814      50.130814      0.89535771     218.64726      826.35199      1388.8564    
      7700   7700           302.84729      831.47925      5595.1494      4067.7564      4368.3116     -300.55526      1429.2254      1470.388       2671.884       0             -5872.0527      0              0             -197.92851      125957.34      50.127321      50.127321      50.127321      0.8955449      789.16913      1001.1128      704.15582    
      7800   7800           302.31877      1616.368       6956.6284      3987.9379      4360.6882     -372.75031      1410.5102      1465.6579      2666.5986      0             -5915.517       0              0             -197.96255      125935.68      50.124448      50.124448      50.124448      0.89569892     1409.9713      1816.8258      1622.3068    
      7900   7900           300.54749      1477.9447      6666.0956      3950.2154      4335.139      -384.92361      1414.7778      1435.7636      2673.8695      0             -5909.3345      0              0             -197.85878      126001.74      50.13321       50.13321       50.13321       0.89522938     1480.6002      1356.8392      1596.3947    
      8000   8000           303.05015      1458.3336      6652.6783      3967.0556      4371.2377     -404.18211      1421.8177      1407.894       2664.4772      0             -5898.3711      0              0             -197.43294      126273.5       50.169227      50.169227      50.169227      0.89330265     1728.7176      1372.6486      1273.6346    
      8100   8100           300.83963      1202.254       6219.7166      4001.9987      4339.353      -337.35425      1422.6051      1479.1512      2652.4125      0             -5891.5231      0              0             -197.10501      126483.59      50.197035      50.197035      50.197035      0.89181889     1175.2594      1642.372       789.13063    
      8200   8200           305.29532      632.76907      5261.6034      4092.4845      4403.6224     -311.13797      1443.0903      1492.7122      2654.9097      0             -5901.8501      0              0             -196.78603      126688.61      50.224142      50.224142      50.224142      0.89037566     428.92071      572.52285      896.86363    
      8300   8300           306.08254      810.00987      5629.2559      4136.4546      4414.9774     -278.52281      1437.2114      1490.6068      2678.5011      0             -5884.8421      0              0             -197.28589      126367.63      50.181689      50.181689      50.181689      0.89263729     594.76614      1554.0485      281.21502    
      8400   8400           294.38218      1329.8502      6469.5619      4026.8875      4246.2098     -219.32224      1501.6335      1458.1768      2727.4421      0             -5906.5746      0              0             -197.94516      125946.75      50.125916      50.125916      50.125916      0.89562022     1581.2475      1031.4574      1376.8457    
      8500   8500           297.52364      1473.2454      6679.4014      3982.2803      4291.5226     -309.24228      1458.359       1453.019       2720.6801      0             -5941.3003      0              0             -198.60144      125530.56      50.070641      50.070641      50.070641      0.89858963     2315.7641      671.75495      1432.2173    
      8600   8600           300.74685      887.94699      5589.6361      3967.8025      4338.0147     -370.21214      1418.2562      1468.649       2658.8984      0             -5916.0157      0              0             -199.06205      125240.09      50.031992      50.031992      50.031992      0.9006737      620.01106      1347.0157      696.81424    
      8700   8700           299.41772      1636.5395      6908.2978      3923.1477      4318.8431     -395.69542      1449.9102      1386.6991      2713.501       0             -5945.8057      0              0             -199.32789      125073.06      50.00974       50.00974       50.00974       0.90187649     2452.7011      663.26954      1793.648     
      8800   8800           295.42578      1778.6347      7076.5184      3829.9999      4261.2628     -431.26287      1394.8824      1427.7863      2668.1256      0             -5922.0572      0              0             -199.19417      125157.02      50.020928      50.020928      50.020928      0.90127148     2259.7311      1550.039       1526.134     
      8900   8900           297.88739      1211.8601      6049.362       3827.6484      4296.7693     -469.12089      1422.3002      1415.6269      2621.4818      0             -5928.5298      0              0             -198.32258      125707.06      50.094098      50.094098      50.094098      0.89732789     816.74999      1743.1106      1075.7197    
      9000   9000           299.28268      1955.7521      7564.6002      3966.9183      4316.8952     -349.97689      1506.5052      1401.6262      2679.3306      0             -5937.4389      0              0             -197.65089      126134.26      50.15078       50.15078       50.15078       0.89428878     1955.6745      1811.8795      2099.7023    
      9100   9100           300.36201      1126.0551      6081.5449      4007.5356      4332.4637     -324.92808      1437.9953      1491.1176      2644.0171      0             -5898.0581      0              0             -197.40433      126291.81      50.171651      50.171651      50.171651      0.89317317     1883.6546      695.17684      799.3337     
      9200   9200           301.42643      755.89447      5423.7201      4032.1656      4347.8169     -315.65134      1466.4421      1459.6543      2646.4913      0             -5888.2391      0              0             -197.50072      126230.17      50.163488      50.163488      50.163488      0.8936093      246.23022      1196.4238      825.02941    
      9300   9300           299.85492      1565.7214      6860.3401      3990.8972      4325.1493     -334.25212      1451.4011      1522.1348      2631.8053      0             -5939.5934      0              0             -198.39222      125662.94      50.088236      50.088236      50.088236      0.89764298     1332.4513      1647.5178      1717.1952    
      9400   9400           297.69181      1804.4599      7190.494       3887.9288      4293.9483     -406.01947      1425.2232      1464.3366      2622.2596      0             -5917.8389      0              0             -198.65686      125495.54      50.065984      50.065984      50.065984      0.89884038     2373.4504      1791.8969      1248.0323    
      9500   9500           292.93885      929.3556       5590.7272      3883.4127      4225.391      -341.97825      1433.7664      1455.2133      2673.8879      0             -5904.8458      0              0             -197.91382      125966.69      50.128561      50.128561      50.128561      0.89547844     809.43812      359.69147      1618.9372    
      9600   9600           299.41912      659.20614      5174.5355      3962.3445      4318.8633     -356.51879      1463.5841      1456.5383      2605.5262      0             -5882.1673      0              0             -197.72334      126088.05      50.144654      50.144654      50.144654      0.89461658     321.50245      883.43871      772.67727    
      9700   9700           301.04067      1659.9347      7031.5928      3981.484       4342.2527     -360.76873      1445.6191      1459.5754      2635.3989      0             -5901.3621      0              0             -197.87157      125993.59      50.132129      50.132129      50.132129      0.89528726     2045.3973      1722.42        1211.9867    
      9800   9800           297.55681      756.65959      5395.825       4004.6722      4292.001      -287.32875      1444.7069      1508.2205      2682.3714      0             -5922.6277      0              0             -197.75772      126066.12      50.141748      50.141748      50.141748      0.89477214     903.53758      376.88515      989.55602    
      9900   9900           303.13824      1076.9903      5994.684       4016.4149      4372.5084     -356.09348      1448.6446      1508.4808      2598.4333      0             -5911.6522      0              0             -197.94029      125949.85      50.126327      50.126327      50.126327      0.89559817     1328.3109      1008.9683      893.69183    
     10000   10000          296.58864      1571.9816      6791.0858      3910.5102      4278.036      -367.52577      1397.2446      1513.823       2628.2759      0             -5906.8693      0              0             -198.41565      125648.1       50.086264      50.086264      50.086264      0.89774901     1919.0618      1575.0483      1221.8347    
     10100   10100          293.65929      1265.3212      6197.1572      3874.537       4235.7826     -361.24567      1468.9167      1444.421       2653.7652      0             -5928.3485      0              0             -198.0753       125864         50.114936      50.114936      50.114936      0.89620903     1002.1994      1282.1565      1511.6077    
     10200   10200          292.07148      817.17879      5430.1405      3926.1418      4212.8798     -286.73806      1463.9272      1455.9391      2709.7079      0             -5916.3122      0              0             -197.55014      126198.59      50.159304      50.159304      50.159304      0.89383291     865.99814      402.81109      1182.7271    
     10300   10300          299.74189      794.80791      5431.8145      3973.3172      4323.5189     -350.2017       1396.7817      1440.1185      2717.1299      0             -5904.2319      0              0             -198.13642      125825.18      50.109782      50.109782      50.109782      0.89648557     600.43526      1064.8752      719.11325    
     10400   10400          301.05935      1643.9444      6980.3899      3981.1347      4342.5221     -361.3874       1457.2982      1424.8164      2699.8036      0             -5943.3055      0              0             -199.28814      125098.01      50.013065      50.013065      50.013065      0.90169663     1510.1011      1453.7659      1967.9662    
     10500   10500          297.20473      957.12901      5698.6463      3955.1508      4286.9226     -331.77179      1423.0068      1471.5038      2690.9348      0             -5917.2172      0              0             -199.59855      124903.46      49.987125      49.987125      49.987125      0.90310113     1031.7483      1060.2247      779.41404    
     10600   10600          300.27321      988.51409      5737.4662      3930.5198      4331.1827     -400.66292      1404.1778      1458.2018      2690.6493      0             -5953.6919      0              0             -198.90484      125339.08      50.04517       50.04517       50.04517       0.89996236     671.80601      848.6453       1445.091     
     10700   10700          300.54049      1679.3187      6961.1478      3882.0507      4335.038      -452.98735      1396.9796      1462.3465      2608.6568      0             -5920.9702      0              0             -198.2976       125722.9       50.096201      50.096201      50.096201      0.89721487     1497.7957      1702.5706      1837.5897    
     10800   10800          296.8355       949.6598       5568.7387      3819.9676      4281.5967     -461.62906      1403.6421      1471.3927      2572.9692      0             -5909.6331      0              0             -197.4435       126266.75      50.168333      50.168333      50.168333      0.89335042     1501.8649      1074.6841      272.4304     
     10900   10900          301.54921      779.73494      5326.1506      3889.8599      4349.588      -459.7281       1415.3904      1441.7925      2561.4148      0             -5878.3258      0              0             -197.3842       126304.68      50.173356      50.173356      50.173356      0.89308212     853.7053       529.46026      956.03924    
     11000   11000          300.40216      1213.4575      6223.916       3995.2929      4333.0427     -337.74986      1446.8645      1500.6341      2621.6463      0             -5906.8948      0              0             -197.96831      125932.02      50.123962      50.123962      50.123962      0.89572497     1241.339       837.23689      1561.7966    
     11100   11100          298.32158      1933.0319      7548.3535      4008.5721      4303.0323     -294.4601       1475.7684      1488.7615      2642.0158      0             -5901.0058      0              0             -198.5502       125562.95      50.074948      50.074948      50.074948      0.89835777     2011.4973      2377.0855      1410.5129    
     11200   11200          303.67816      1192.3432      6147.1568      3967.3632      4380.2962     -412.93302      1388.7494      1492.3188      2619.055       0             -5913.0562      0              0             -198.88116      125354.01      50.047156      50.047156      50.047156      0.89985521     1233.7257      1424.5829      918.72103    
     11300   11300          300.53527      1038.3288      5776.5808      3882.8903      4334.9628     -452.07244      1416.2589      1443.7475      2571.3831      0             -5883.4618      0              0             -199.35798      125054.18      50.007223      50.007223      50.007223      0.90201266     875.25585      1379.2054      860.52507    
     11400   11400          292.52428      1373.06        6298.1504      3785.8724      4219.4111     -433.53867      1416.4913      1449.8399      2622.815       0             -5922.6848      0              0             -198.7145       125459.14      50.061143      50.061143      50.061143      0.89910117     1118.7527      2170.2427      830.18457    
     11500   11500          299.88416      1382.7155      6372.6691      3833.9464      4325.5711     -491.62462      1382.0766      1416.3279      2619.6427      0             -5909.6718      0              0             -198.02741      125894.44      50.118975      50.118975      50.118975      0.89599236     1799.9372      433.73324      1914.476     
     11600   11600          300.62008      618.54947      5037.3479      3901.0213      4336.186      -435.16473      1397.9058      1460.8009      2628.8873      0             -5922.7588      0              0             -197.91514      125965.85      50.12845       50.12845       50.12845       0.89548438     685.23969      1032.6276      137.78116    
     11700   11700          304.59758      1002.5036      5802.4042      3964.2886      4393.5581     -429.26954      1382.9671      1476.4568      2631.3118      0             -5920.0053      0              0             -198.29915      125721.92      50.096071      50.096071      50.096071      0.89722189     982.60248      1721.272       303.6363     
     11800   11800          307.68399      1324.3128      6426.6246      4000.7387      4438.0769     -437.33822      1372.8296      1504.0719      2617.8101      0             -5932.0498      0              0             -198.48511      125604.13      50.080421      50.080421      50.080421      0.89806328     1551.859       826.46848      1594.611     
     11900   11900          302.31061      772.68096      5382.2332      3967.088       4360.5705     -393.48254      1428.9223      1445.4082      2652.5756      0             -5920.3887      0              0             -198.52122      125581.28      50.077385      50.077385      50.077385      0.89822665     488.8646       1387.5397      441.63863    
     12000   12000          298.95531      1209.2779      6063.9279      3850.3152      4312.1732     -461.85799      1391.5246      1474.2197      2614.6389      0             -5942.2412      0              0             -198.62422      125516.16      50.068727      50.068727      50.068727      0.8986927      1228.1905      1822.4703      577.17291    
     12100   12100          296.64911      1075.1709      5792.1697      3817.5887      4278.9082     -461.31954      1410.9259      1444.4601      2608.4988      0             -5925.2043      0              0             -197.97496      125927.79      50.1234        50.1234        50.1234        0.89575507     798.11747      796.25992      1631.1353    
     12200   12200          295.13407      1141.3615      6009.6251      3909.011       4257.0551     -348.04406      1420.1074      1487.7857      2647.3279      0             -5903.265       0              0             -197.55349      126196.45      50.159021      50.159021      50.159021      0.89384806     1014.6483      1766.03        643.40618    
     12300   12300          299.57601      413.59198      4760.0628      3997.2209      4321.1262     -323.90531      1444.233       1481.6867      2616.9739      0             -5866.799       0              0             -197.12664      126469.72      50.195199      50.195199      50.195199      0.89191673     57.690833      745.34326      437.74185    
     12400   12400          302.44756      689.24285      5259.8364      3990.7814      4362.546      -371.76459      1399.4303      1500.0743      2618.5071      0             -5889.7763      0              0             -197.46929      126250.26      50.166149      50.166149      50.166149      0.8934671      501.58898      612.77039      953.36917    
     12500   12500          300.12616      1060.1042      5901.4518      3954.8225      4329.0617     -374.23921      1426.9253      1468.3435      2627.9055      0             -5897.4135      0              0             -198.00358      125909.59      50.120985      50.120985      50.120985      0.89588456     1706.5987      993.25718      480.45677    
     12600   12600          300.2919       1411.9823      6476.5848      3890.563       4331.4524     -440.88933      1418.8688      1447.4247      2616.1532      0             -5923.3361      0              0             -198.52025      125581.9       50.077466      50.077466      50.077466      0.89822226     788.06388      1982.9502      1464.9328    
     12700   12700          296.8549       1241.075       6115.8566      3838.898       4281.8766     -442.97859      1416.5517      1433.1477      2613.3493      0             -5906.0273      0              0             -198.17581      125800.17      50.106462      50.106462      50.106462      0.8966638      1400.3166      1016.2199      1306.6885    
     12800   12800          297.3771       674.46679      5158.1622      3917.4382      4289.4089     -371.97068      1447.6939      1469.6686      2627.9353      0             -5917.2684      0              0             -197.64831      126135.91      50.150998      50.150998      50.150998      0.89427711     296.9196       1385.8189      340.66189    
     12900   12900          303.52914      768.24778      5437.4252      4027.2607      4378.1468     -350.88606      1408.6923      1467.8411      2688.2459      0             -5915.6653      0              0             -198.07939      125861.4       50.114591      50.114591      50.114591      0.89622754     1196.3059      264.21609      844.22135    
     13000   13000          302.39354      909.33158      5717.192       4054.3078      4361.7667     -307.4589       1458.3809      1480.2626      2674.1622      0             -5920.2646      0              0             -198.82363      125390.27      50.051982      50.051982      50.051982      0.89959494     958.44593      949.53609      820.01271    
     13100   13100          303.53589      440.1535       4835.2578      4029.6098      4378.2441     -348.63426      1455.2222      1407.3598      2705.3062      0             -5916.5225      0              0             -198.63994      125506.23      50.067406      50.067406      50.067406      0.8987638      488.17932      709.7543       122.52688    
     13200   13200          296.53368      1288.0502      6259.3884      3899.5267      4277.2433     -377.71659      1430.8334      1435.4244      2675.5555      0             -5919.5299      0              0             -198.45131      125625.52      50.083265      50.083265      50.083265      0.89791032     1584.3551      817.03448      1462.7609    
     13300   13300          295.95464      1525.782       6667.0917      3869.8568      4268.8911     -399.03426      1454.4896      1406.4252      2625.0271      0             -5884.9762      0              0             -198.32218      125707.32      50.094132      50.094132      50.094132      0.89732606     1578.5446      1346.3365      1652.4648    
     13400   13400          299.29499      836.24131      5466.7649      3927.8606      4317.0729     -389.21227      1424.1807      1429.4411      2663.7716      0             -5906.6057      0              0             -197.57306      126183.95      50.157364      50.157364      50.157364      0.89393663     1045.6821      884.26834      578.77348    
     13500   13500          302.11612      767.11349      5388.9392      3972.4835      4357.7652     -385.28172      1394.6316      1433.7173      2696.2069      0             -5909.8375      0              0             -196.90845      126609.85      50.213732      50.213732      50.213732      0.89092953     1145.3441      256.94933      899.04702    
     13600   13600          299.9311       1190.9003      6192.3933      4000.127       4326.2482     -326.12116      1465.2544      1481.9572      2644.4044      0             -5917.7371      0              0             -197.51034      126224.02      50.162673      50.162673      50.162673      0.89365283     890.54878      1548.4585      1133.6935    
     13700   13700          303.23433      1416.5769      6606.1708      4012.5748      4373.8943     -361.31957      1411.4575      1515.309       2648.8003      0             -5936.8864      0              0             -198.58461      125541.2       50.072056      50.072056      50.072056      0.89851345     1158.5101      1670.3904      1420.8303    
     13800   13800          300.03361      984.72847      5749.5865      3949.6574      4327.7268     -378.06939      1415.7594      1470.3646      2656.0023      0             -5920.1957      0              0             -198.91559      125332.31      50.044268      50.044268      50.044268      0.90001101     1145.3352      849.61669      959.23353    
     13900   13900          293.41409      1517.9204      6611.0641      3838.0059      4232.2459     -394.24005      1417.8602      1488.9185      2626.3145      0             -5927.3332      0              0             -199.02047      125266.26      50.035476      50.035476      50.035476      0.90048556     1639.9281      1409.0221      1504.8111    
     14000   14000          300.40021      1104.206       5879.5208      3862.5842      4333.0146     -470.43037      1428.5193      1403.6327      2612.269       0             -5914.8514      0              0             -199.05157      125246.69      50.03287       50.03287       50.03287       0.90062628     735.19951      1682.6415      894.77703    
     14100   14100          296.66252      802.49256      5407.4524      3942.4143      4279.1017     -336.68737      1461.371       1468.0711      2655.2337      0             -5921.3632      0              0             -199.15896      125179.15      50.023876      50.023876      50.023876      0.90111214     960.9698       57.348347      1389.1595    
     14200   14200          303.33358      1290.9097      6362.0383      4000.1956      4375.326      -375.1304       1414.6939      1438.7406      2701.3919      0             -5929.9568      0              0             -198.72506      125452.47      50.060257      50.060257      50.060257      0.89914894     1537.5339      1035.9395      1299.2557    
     14300   14300          303.5212       775.42338      5450.5925      4023.9899      4378.0323     -354.0424       1426.7472      1458.9611      2683.9725      0             -5923.7232      0              0             -197.62579      126150.29      50.152903      50.152903      50.152903      0.89417518    -29.234051      1618.7433      736.76089    
     14400   14400          305.13059      1039.7546      6041.9033      4124.1582      4401.2463     -277.08812      1480.1004      1445.5041      2702.8389      0             -5905.5316      0              0             -197.12773      126469.01      50.195106      50.195106      50.195106      0.89192169     989.19376      914.13633      1215.9338    
     14500   14500          303.99878      719.74687      5512.3435      4184.7654      4384.9209     -200.15555      1485.6723      1486.8001      2693.1881      0             -5865.816       0              0             -197.11852      126474.92      50.195888      50.195888      50.195888      0.89188003     1313.8471      728.84117      116.55237    
     14600   14600          303.82447      1480.8657      6812.9555      4090.4047      4382.4066     -292.00197      1459.137       1455.4603      2670.2474      0             -5876.8467      0              0             -197.76409      126062.07      50.14121       50.14121       50.14121       0.89480093     1668.6588      1388.1434      1385.795     
     14700   14700          298.10992      1325.1624      6431.6155      3995.6564      4299.9792     -304.32282      1454.4633      1451.1291      2676.0257      0             -5885.9409      0              0             -197.79114      126044.83      50.138924      50.138924      50.138924      0.89492332     1281.2177      932.94452      1761.3248    
     14800   14800          299.21673      320.86145      4527.2781      3936.8309      4315.9439     -379.11303      1397.4032      1447.5968      2668.7971      0             -5892.9101      0              0             -197.58056      126179.16      50.15673       50.15673       50.15673       0.89397055     344.20756      524.70049      93.676296    
     14900   14900          293.15099      294.86804      4464.1822      3921.2263      4228.4508     -307.22452      1447.4172      1485.6247      2643.5315      0             -5883.7978      0              0             -197.45627      126258.58      50.167251      50.167251      50.167251      0.89340821     420.84334      223.81457      239.94621    
     15000   15000          307.30381      840.09642      5556.7276      4015.0724      4432.5931     -417.52068      1409.1167      1456.3819      2645.8791      0             -5928.8985      0              0             -198.12971      125829.43      50.110348      50.110348      50.110348      0.89645524     1048.7296      672.8977       798.66195    
     15100   15100          306.10181      1474.7901      6786.4569      4086.5019      4415.2553     -328.75341      1420.7597      1503.1011      2675.0075      0             -5927.6216      0              0             -198.601        125530.84      50.070678      50.070678      50.070678      0.89858762     1519.1715      1943.0866      962.11233    
     15200   15200          298.20477      885.85306      5605.956       3983.0432      4301.3473     -318.30408      1454.025       1483.7192      2658.5576      0             -5914.6058      0              0             -198.46057      125619.66      50.082485      50.082485      50.082485      0.89795224     723.6206       1141.9072      792.03139    
     15300   15300          294.36329      919.79424      5581.5849      3893.0516      4245.9372     -352.88561      1415.211       1504.102       2636.6859      0             -5908.8846      0              0             -198.05637      125876.03      50.116532      50.116532      50.116532      0.89612338     173.27083      809.10644      1777.0055    
     15400   15400          298.90488      1017.648       5796.4216      3924.1081      4311.4458     -387.33769      1433.1849      1433.338       2641.6153      0             -5895.4759      0              0             -197.61813      126155.17      50.153551      50.153551      50.153551      0.89414056     1460.8281      892.0735       700.04256    
     15500   15500          298.00545      1706.7364      7099.0737      3966.9408      4298.4723     -331.53147      1479.1922      1432.6247      2653.935       0             -5897.2834      0              0             -198.1226       125833.95      50.110947      50.110947      50.110947      0.89642305     1813.4241      1794.3061      1512.4789    
     15600   15600          305.82046      901.74703      5664.5301      4009.5062      4411.1971     -401.69086      1410.851       1465.1447      2612.1405      0             -5889.827       0              0             -198.1017       125847.23      50.112709      50.112709      50.112709      0.8963285      904.11143      986.35667      814.77297    
     15700   15700          303.04921      755.67286      5457.6658      4069.2481      4371.2241     -301.97601      1443.983       1478.5668      2667.2958      0             -5891.8216      0              0             -197.8889       125982.56      50.130666      50.130666      50.130666      0.89536564     990.71828      482.49631      793.80401    
     15800   15800          301.71032      732.34839      5468.3278      4122.0749      4351.9119     -229.83699      1505.3288      1500.5073      2645.2252      0             -5880.8983      0              0             -197.78749      126047.15      50.139232      50.139232      50.139232      0.89490684     863.33559      355.2263       978.48329    
     15900   15900          299.51452      948.66036      5769.9445      4030.9949      4320.2393     -289.24433      1423.487       1521.2512      2669.2332      0             -5903.2157      0              0             -198.34967      125689.89      50.091817      50.091817      50.091817      0.89745048     1092.1852      627.28955      1126.5063    
     16000   16000          297.90145      1375.5602      6457.5956      3942.1644      4296.9721     -354.80776      1417.4986      1527.2449      2594.9542      0             -5894.5054      0              0             -198.82678      125388.29      50.051718      50.051718      50.051718      0.8996092      1630.86        1017.9007      1477.9199    
     16100   16100          298.53529      1005.8657      5757.3333      3914.9348      4306.1147     -391.17988      1432.1858      1500.9195      2638.3662      0             -5962.6514      0              0             -198.50167      125593.65      50.079028      50.079028      50.079028      0.89813821     624.10023      847.56155      1545.9353    
     16200   16200          301.98857      459.4948       4772.0353      3929.9876      4355.9254     -425.93779      1406.4311      1465.8808      2632.6624      0             -5930.912       0              0             -198.40456      125655.12      50.087197      50.087197      50.087197      0.89769883     472.00578      920.52063     -14.042018    
     16300   16300          304.56786      1269.4902      6358.234       4036.2152      4393.1295     -356.91427      1438.3741      1462.9968      2661.5275      0             -5919.8127      0              0             -198.77939      125418.18      50.055695      50.055695      50.055695      0.89939477     1315.8076      1011.091       1481.5719    
     16400   16400          307.45668      1045.8624      6010.8666      4099.5731      4434.7981     -335.22503      1452.928       1499.0749      2625.9539      0             -5913.1817      0              0             -198.95501      125307.47      50.040962      50.040962      50.040962      0.90018939     1070.4178      818.10927      1249.0601    
     16500   16500          302.76856      1121.2633      6076.3089      4019.8109      4367.1761     -347.36517      1441.8329      1433.8087      2676.9015      0             -5899.9083      0              0             -198.23806      125760.66      50.101216      50.101216      50.101216      0.89694547     1034.3032      1509.0327      820.45391    
     16600   16600          295.96498      523.71067      4871.0353      3908.769       4269.0402     -360.27119      1415.9626      1449.845       2672.0395      0             -5898.1183      0              0             -197.8809       125987.65      50.131341      50.131341      50.131341      0.89532946     1329.7464     -310.80369      552.18927    
     16700   16700          293.72536      531.91565      4863.3803      3887.2769      4236.7356     -349.45866      1456.8587      1455.9453      2634.5796      0             -5896.8423      0              0             -198.13204      125827.96      50.110151      50.110151      50.110151      0.89646576     558.52244      629.41721      407.8073     
     16800   16800          296.32925      778.34736      5333.1457      3907.881       4274.2945     -366.41352      1406.4864      1458.872       2681.1212      0             -5912.8932      0              0             -198.55721      125558.52      50.074359      50.074359      50.074359      0.89838949     1106.7175      483.70297      744.62158    
     16900   16900          303.80279      520.21469      4955.7907      4004.7579      4382.094      -377.33608      1433.4134      1465.3676      2643.0085      0             -5919.1256      0              0             -198.88171      125353.65      50.04711       50.04711       50.04711       0.89985773     380.51324      598.3104       581.82044    
     17000   17000          296.5758       1339.7875      6500.0325      4050.1968      4277.8507     -227.65391      1433.1511      1514.1443      2708.9272      0             -5883.8764      0              0             -198.84135      125379.1       50.050495      50.050495      50.050495      0.89967513     968.75136      1591.3954      1459.2158    
     17100   17100          304.7971       583.62989      5152.8271      4080.6022      4396.4359     -315.83371      1485.3601      1407.4961      2691.9043      0             -5900.5941      0              0             -197.90621      125971.54      50.129204      50.129204      50.129204      0.89544397     513.14612      693.26652      544.47704    
     17200   17200          296.42132      910.38604      5659.4629      3985.8209      4275.6226     -289.80171      1478.4517      1484.5571      2651.5845      0             -5904.395       0              0             -197.77471      126055.3       50.140312      50.140312      50.140312      0.89484898     994.43371      736.71243      1000.012     
     17300   17300          294.33283      384.11205      4606.4355      3898.7299      4245.4979     -346.768        1439.3876      1439.5412      2667.3738      0             -5893.0705      0              0             -197.33907      126333.57      50.177181      50.177181      50.177181      0.8928779      687.69279      188.81344      275.82992    
     17400   17400          297.59715      1042.9098      5851.6867      3933.2465      4292.5829     -359.33633      1387.3579      1478.0043      2645.1721      0             -5869.8706      0              0             -197.65429      126132.1       50.150493      50.150493      50.150493      0.89430414     1443.3471      899.62101      785.76132    
     17500   17500          299.08488      1353.6025      6482.1302      3993.9109      4314.0422     -320.13124      1415.0652      1514.1039      2645.1754      0             -5894.4757      0              0             -197.79269      126043.84      50.138793      50.138793      50.138793      0.89493034     1253.118       1158.7626      1648.9269    
     17600   17600          302.62481      1062.4288      5987.6774      4030.2272      4365.1026     -334.8754       1455.2771      1467.8355      2639.8479      0             -5897.8359      0              0             -197.34079      126332.47      50.177035      50.177035      50.177035      0.89288569     823.14461      1298.9563      1065.1855    
     17700   17700          304.13049      560.32405      5163.532       4130.61        4386.8207     -256.21068      1477.7898      1491.1282      2682.6888      0             -5907.8175      0              0             -197.23295      126401.54      50.186178      50.186178      50.186178      0.89239778     630.77496      632.12443      418.07276    
     17800   17800          307.85812      1236.9271      6465.0022      4188.7442      4440.5886     -251.84437      1444.9834      1498.4372      2722.3627      0             -5917.6277      0              0             -197.57426      126183.19      50.157263      50.157263      50.157263      0.89394204     1365.7326      1407.3025      937.74626    
     17900   17900          305.45088      828.69688      5603.9956      4082.4624      4405.8662     -323.40377      1419.5271      1503.8279      2660.3741      0             -5907.1328      0              0             -198.02591      125895.39      50.119102      50.119102      50.119102      0.89598556     1038.7738      963.19726      484.11961    
     18000   18000          297.77392      1389.8938      6539.1566      3994.2978      4295.1327     -300.83483      1439.4149      1496.7138      2655.5885      0             -5892.552       0              0             -198.57551      125546.95      50.072821      50.072821      50.072821      0.89847227     1242.7185      1923.8591      1003.1038    
     18100   18100          299.93007      1069.3148      5925.8495      3964.7546      4326.2332     -361.47859      1412.6174      1447.8128      2668.8388      0             -5890.7476      0              0             -198.25069      125752.65      50.100152      50.100152      50.100152      0.89700262     1051.7405      815.38127      1340.8226    
     18200   18200          298.48305      1152.2867      6076.6513      3960.377       4305.3613     -344.98424      1429.8824      1493.6449      2656.4331      0             -5924.9446      0              0             -197.96862      125931.82      50.123936      50.123936      50.123936      0.89572637     925.3741       1601.6974      929.78869    
     18300   18300          298.12115      665.31283      5185.2404      3960.1343      4300.1411     -340.00674      1421.3434      1476.263       2674.337       0             -5911.9501      0              0             -197.45127      126261.78      50.167675      50.167675      50.167675      0.89338559     429.013        366.33519      1200.5903    
     18400   18400          299.54472      851.91437      5589.0872      4021.9672      4320.675      -298.70777      1423.9308      1523.4316      2702.5216      0             -5948.5918      0              0             -197.6521       126133.49      50.150677      50.150677      50.150677      0.89429425     1053.248       667.50529      834.98981    
     18500   18500          302.23256      828.8515       5623.4968      4103.1231      4359.4447     -256.32158      1503.159       1492.557       2672.5417      0             -5924.5793      0              0             -198.21391      125775.98      50.103251      50.103251      50.103251      0.8968362      1192.935       956.97183      336.64771    
     18600   18600          307.05769      1258.8796      6400.1744      4088.4454      4429.0431     -340.59772      1411.6602      1473.3549      2686.6972      0             -5912.31        0              0             -197.99535      125914.82      50.12168       50.12168       50.12168       0.89584732     938.9629       1239.224       1598.4518    
     18700   18700          302.18122      491.19528      4846.4043      3940.8303      4358.7042     -417.87391      1424.3709      1413.1199      2663.8233      0             -5919.188       0              0             -197.21409      126413.63      50.187778      50.187778      50.187778      0.89231244     468.4923       543.58559      461.50794    
     18800   18800          296.11952      1201.076       6118.838       3906.6486      4271.2694     -364.62084      1424.1115      1470.1664      2661.6502      0             -5920.5489      0              0             -197.40399      126292.02      50.17168       50.17168       50.17168       0.89317164     1675.627       1075.1976      852.40344    
     18900   18900          298.57886      984.25039      5773.892       3964.8891      4306.7432     -341.85413      1478.3155      1397.9501      2690.0438      0             -5908.1635      0              0             -197.82176      126025.31      50.136336      50.136336      50.136336      0.89506189     648.76537      478.69724      1825.2886    
     19000   19000          300.78247      1329.0188      6491.727       4057.1029      4338.5284     -281.42544      1472.9389      1485.4527      2673.8351      0             -5913.6521      0              0             -198.47552      125610.2       50.081228      50.081228      50.081228      0.89801987     1390.9487      1301.8885      1294.2191    
     19100   19100          304.67969      717.62576      5384.429       4072.5242      4394.7425     -322.21826      1450.08        1455.5915      2689.2548      0             -5917.1445      0              0             -198.88564      125351.18      50.04678       50.04678       50.04678       0.89987552     876.07636      1104.7695      172.03142    
     19200   19200          304.24251      1036.1203      5904.2397      4009.8947      4388.4365     -378.54173      1417.3771      1467.173       2682.3974      0             -5945.4892      0              0             -198.86523      125364.05      50.048492      50.048492      50.048492      0.89978314     741.6671       1141.5619      1225.1318    
     19300   19300          300.23867      1015.1976      5822.1783      3963.828       4330.6846     -366.8566       1446.6337      1461.8444      2664.3845      0             -5939.7191      0              0             -198.62355      125516.58      50.068783      50.068783      50.068783      0.89868966     1225.9302      778.66638      1040.9962    
     19400   19400          297.21499      707.28175      5229.8964      3933.958       4287.0706     -353.11256      1437.8046      1464.4019      2647.9147      0             -5903.2338      0              0             -198.43388      125636.55      50.08473       50.08473       50.08473       0.89783149     843.71436      468.15654      809.97434    
     19500   19500          299.51715      677.39243      5168.3338      3925.4485      4320.2772     -394.82865      1441.9702      1451.4248      2617.5469      0             -5905.7705      0              0             -198.16048      125809.9       50.107754      50.107754      50.107754      0.89659445     412.32254      587.59404      1032.2607    
     19600   19600          302.77173      1008.0656      5782.1485      3939.8303      4367.2218     -427.39151      1435.0679      1408.2985      2667.7723      0             -5938.5302      0              0             -198.94449      125314.1       50.041845      50.041845      50.041845      0.90014175     1322.1539      970.29595      731.74702    
     19700   19700          300.08868      700.46382      5246.4002      3967.5194      4328.5212     -361.00171      1430.3631      1499.6141      2645.659       0             -5936.6379      0              0             -199.14225      125189.66      50.025275      50.025275      50.025275      0.90103654     954.09189      919.05991      228.23967    
     19800   19800          302.85364      1023.3741      5885.5683      4015.7647      4368.4032     -352.63855      1444.0565      1455.3286      2659.6074      0             -5911.6311      0              0             -198.99684      125281.13      50.037456      50.037456      50.037456      0.90037866     626.40239      1172.8347      1270.8854    
     19900   19900          301.79775      534.5321       4987.3705      4007.9373      4353.1729     -345.23556      1454.9267      1471.0991      2644.8244      0             -5916.0858      0              0             -198.42973      125639.18      50.08508       50.08508       50.08508       0.89781271     1607.8246      197.90416     -202.13248    
     20000   20000          295.75414      1321.0819      6325.5118      3903.0658      4265.9991     -362.93323      1447.5844      1453.9675      2660.1667      0             -5924.6519      0              0             -198.28204      125732.77      50.097512      50.097512      50.097512      0.89714446     1163.7696      1929.6581      869.81778    
     20100   20100          297.30922      961.10812      5620.2347      3853.7144      4288.4298     -434.71539      1386.9315      1449.5022      2634.1561      0             -5905.3052      0              0             -197.81597      126029.01      50.136826      50.136826      50.136826      0.89503567     656.60817      917.14604      1309.5702    
     20200   20200          301.8932       741.4976       5280.444       3914.4488      4354.5497     -440.10091      1425.5921      1459.4668      2588.258       0             -5913.4179      0              0             -197.36418      126317.5       50.175053      50.175053      50.175053      0.89299153     1190.0218      730.65155      303.81945    
     20300   20300          300.74354      1201.2901      6178.7743      3967.7598      4337.9668     -370.20706      1469.068       1427.2886      2659.6239      0             -5926.1875      0              0             -197.54409      126202.46      50.159816      50.159816      50.159816      0.89380553     1474.5112      1480.9431      648.41595    
     20400   20400          294.40974      1449.6839      6643.3078      3979.2512      4246.6072     -267.35601      1487.8384      1455.9659      2711.4797      0             -5922.6401      0              0             -197.85071      126006.87      50.133891      50.133891      50.133891      0.89519287     1533.112       1046.2229      1769.7167    
     20500   20500          302.69358      1136.5048      6071.2068      3985.3055      4366.0946     -380.78909      1465.3755      1427.5681      2622.292       0             -5896.0246      0              0             -198.10036      125848.08      50.112822      50.112822      50.112822      0.89632243     1012.3327      1433.1353      964.04644    
     20600   20600          294.06451      1019.0343      5804.9275      3938.7968      4241.6277     -302.83092      1492.3764      1473.9309      2668.8101      0             -5937.9483      0              0             -198.54295      125567.54      50.075557      50.075557      50.075557      0.89832498     1237.7033      1057.4709      761.92865    
     20700   20700          301.97226      1134.0729      5929.6452      3853.3455      4355.6901     -502.34459      1417.5603      1373.3847      2635.3018      0             -5928.5914      0              0             -198.5906       125537.41      50.071552      50.071552      50.071552      0.89854058    -12.317745      1582.2101      1832.3265    
     20800   20800          292.59741      705.9926       5023.7518      3730.896       4220.4659     -489.5699       1398.5824      1415.0183      2609.1652      0             -5912.3357      0              0             -198.54447      125566.58      50.07543       50.07543       50.07543       0.89833184     1279.3271      852.74677     -14.096102    
[...]
    495000   495000         301.37844      1258.0626      6202.1911      3903.0062      4347.1248     -444.11857      1433.4605      1395.9059      2684.1436      0             -5957.6286      0              0             -198.94641      125312.89      50.041684      50.041684      50.041684      0.90015045     1298.5162      986.67618      1488.9955    
    495100   495100         294.13326      676.4738       5071.918       3833.3468      4242.6192     -409.2724       1439.3277      1413.7599      2652.4594      0             -5914.8195      0              0             -198.58102      125543.46      50.072357      50.072357      50.072357      0.89849724     640.97952      858.08541      530.35648    
    495200   495200         298.60419      912.74183      5608.2129      3939.3097      4307.1086     -367.79891      1473.0674      1405.0509      2708.2936      0             -5954.2108      0              0             -198.84952      125373.95      50.04981       50.04981       50.04981       0.89971207     840.84891      1013.9731      883.40351    
    495300   495300         305.55155      1142.3376      6122.0737      4039.4873      4407.3183     -367.83099      1475.3317      1448.3753      2658.3427      0             -5949.8807      0              0             -199.43398      125006.53      50.00087       50.00087       50.00087       0.90235652     775.60337      1385.685       1265.7243    
    495400   495400         298.15536      1012.6152      5834.7589      3988.8833      4300.6346     -311.75129      1467.0925      1420.2385      2716.3792      0             -5915.4615      0              0             -199.45721      124991.97      49.998929      49.998929      49.998929      0.90246162     1070.8647      1430.9721      536.00879    
    495500   495500         298.10856      1063.5138      5883.414       3939.5842      4299.9596     -360.37539      1473.4197      1421.8725      2695.7521      0             -5951.4198      0              0             -198.92651      125325.43      50.043353      50.043353      50.043353      0.90006041     1323.7933      828.61612      1038.1321    
    495600   495600         293.57695      445.70711      4707.7399      3890.952       4234.5949     -343.64288      1449.6837      1481.3656      2657.5405      0             -5932.2327      0              0             -198.40291      125656.17      50.087336      50.087336      50.087336      0.89769136     732.05139      173.2171       431.85285    
    495700   495700         301.58711      633.81376      5078.8991      3917.0043      4350.1346     -433.13025      1427.1386      1421.5204      2660.1523      0             -5941.9416      0              0             -198.33648      125698.26      50.092928      50.092928      50.092928      0.89739077     1290.5054      790.9251      -179.98923    
    495800   495800         302.15751      826.70304      5551.9337      4036.2005      4358.3621     -322.16166      1493.3696      1450.4943      2646.3013      0             -5912.3269      0              0             -198.30538      125717.97      50.095546      50.095546      50.095546      0.89725007     954.79548      468.81014      1056.5035    
    495900   495900         304.51465      1035.9477      5940.7073      4041.2693      4392.3619     -351.0926       1480.8198      1418.75        2656.2646      0             -5906.927       0              0             -198.29898      125722.03      50.096086      50.096086      50.096086      0.8972211      248.2309       1697.5158      1162.0966    
    496000   496000         296.7544       491.7549       4878.7358      3977.3041      4280.4269     -303.12286      1526.3807      1438.1463      2633.5742      0             -5901.224       0              0             -198.34606      125692.18      50.092121      50.092121      50.092121      0.89743414     727.16967      626.12027      121.97474    
    496100   496100         295.03521      919.61953      5603.3399      3919.4083      4255.6292     -336.22085      1468.2226      1450.9388      2681.2415      0             -5936.6237      0              0             -198.55987      125556.84      50.074135      50.074135      50.074135      0.89840153     872.63741      541.49652      1344.7247    
    496200   496200         293.27752      1184.9481      6010.1584      3839.1939      4230.276      -391.08209      1443.7604      1466.8935      2645.9015      0             -5947.6374      0              0             -198.45149      125625.41      50.083249      50.083249      50.083249      0.89791114     1397.5651      1530.2334      627.04587    
    496300   496300         291.12234      737.6727       5043.1076      3692.3945      4199.1894     -506.79487      1421.9815      1438.2807      2572.7075      0             -5939.7645      0              0             -198.56758      125551.96      50.073487      50.073487      50.073487      0.89843643     1185.7155      376.26893      651.03365    
    496400   496400         292.05215      1025.1845      5610.7575      3740.8895      4212.601      -471.71147      1457.7957      1435.216       2600.0347      0             -5964.7578      0              0             -199.342        125064.21      50.008559      50.008559      50.008559      0.90194036     709.25831      1085.3614      1280.9338    
    496500   496500         301.6436       1291.0937      6193.7748      3848.3116      4350.9495     -502.63793      1392.0195      1389.8263      2698.4049      0             -5982.8886      0              0             -200.14138      124564.69      49.941892      49.941892      49.941892      0.90555719     1655.3847      1566.7741      651.12237    
    496600   496600         300.89602      2006.1068      7547.182       3915.0451      4340.1662     -425.12111      1469.1431      1436.8029      2640.6649      0             -5971.732       0              0             -200.81659      124145.87      49.885855      49.885855      49.885855      0.90861225     2195.2117      1693.4553      2129.6534    
    496700   496700         298.32602      838.91498      5436.7656      3910.6995      4303.0963     -392.39678      1465.2225      1445.0568      2640.7808      0             -5943.4569      0              0             -199.87218      124732.46      49.964303      49.964303      49.964303      0.90433919     471.32432      627.65577      1417.7649    
    496800   496800         298.54759      893.14985      5537.7012      3905.0679      4306.2922     -401.22435      1451.6306      1466.0444      2643.967       0             -5962.8664      0              0             -198.90395      125339.64      50.045244      50.045244      50.045244      0.89995836     1286.4615      1160.7611      232.22688    
    496900   496900         301.23086      942.00941      5645.8077      3917.5757      4344.9961     -427.42041      1434.9146      1406.6633      2657.3869      0             -5926.3852      0              0             -198.1805       125797.19      50.106066      50.106066      50.106066      0.89668505     1315.2706      261.43317      1249.3244    
    497000   497000         298.7978       1256.9669      6253.6353      3950.4916      4309.9013     -359.40976      1468.5007      1444.9219      2682.5338      0             -5955.3662      0              0             -198.43147      125638.08      50.084933      50.084933      50.084933      0.89782057     849.71686      1149.3119      1771.8721    
    497100   497100         305.05884      1052.116       5942.5228      4018.9348      4400.2114     -381.27657      1434.7153      1403.3701      2716.5236      0             -5935.8856      0              0             -198.86544      125363.91      50.048475      50.048475      50.048475      0.89978409     1481.8276      1052.321       622.19943    
    497200   497200         298.84543      953.24694      5769.0467      4029.1467      4310.5882     -281.44151      1479.5711      1453.2328      2682.3736      0             -5896.619       0              0             -199.19979      125153.49      50.020457      50.020457      50.020457      0.90129692     1089.0374      163.41737      1607.286     
    497300   497300         300.93674      1351.1966      6380.7929      3919.5324      4340.7536     -421.22123      1438.0344      1456.1347      2652.3267      0             -5967.717       0              0             -199.60375      124900.21      49.986691      49.986691      49.986691      0.90312464     1126.9619      1090.3036      1836.3243    
    497400   497400         296.79592      951.42515      5584.5504      3852.4457      4281.0258     -428.58012      1452.7651      1455.8096      2649.9432      0             -5987.098       0              0             -199.71387      124831.34      49.977501      49.977501      49.977501      0.90362291     1298.7097      1612.5848     -57.019119    
    497500   497500         300.17569      1192.6719      6057.9043      3888.6055      4329.7761     -441.17059      1441.3059      1422.1001      2617.3828      0             -5921.9593      0              0             -199.89841      124716.1       49.962117      49.962117      49.962117      0.90445788     1337.9456      881.65897      1358.411     
    497600   497600         304.22739      1301.3736      6311.7483      3942.2924      4388.2184     -445.92601      1427.5531      1437.6004      2635.3699      0             -5946.4494      0              0             -199.6922       124844.88      49.979309      49.979309      49.979309      0.90352487     1507.7278      828.8286       1567.5645    
    497700   497700         299.01658      1096.0633      5975.3648      3974.3893      4313.057      -338.66774      1481.345       1493.1615      2647.0711      0             -5960.2454      0              0             -199.15976      125178.65      50.023809      50.023809      50.023809      0.90111578     1272.7218      1266.5674      748.90067    
    497800   497800         299.82702      962.40722      5789.1161      4028.1771      4324.7469     -296.5698       1492.458       1466.4313      2674.4173      0             -5929.8764      0              0             -198.71117      125461.24      50.061423      50.061423      50.061423      0.89908611     350.80383      1163.2281      1373.1897    
    497900   497900         304.93026      895.17201      5649.4471      4013.1979      4398.3567     -385.1588       1431.2576      1475.0497      2670.6277      0             -5962.0939      0              0             -198.91373      125333.47      50.044424      50.044424      50.044424      0.90000262     686.35135      305.47425      1693.6904    
    498000   498000         302.60385      870.65159      5493.5164      3905.5686      4364.8002     -459.23159      1469.5155      1391.274       2619.1855      0             -5939.2066      0              0             -199.34986      125059.28      50.007903      50.007903      50.007903      0.90197589     991.44863      1265.5771      354.92905    
    498100   498100         295.36331      1245.5632      6117.37        3846.3856      4260.3617     -413.97618      1430.9178      1453.7758      2676.8996      0             -5975.5694      0              0             -199.4157       125017.99      50.002398      50.002398      50.002398      0.9022738      1559.4966      1319.6597      857.5332     
    498200   498200         302.19906      1012.3683      5735.2922      3886.7642      4358.9615     -472.19723      1398.1063      1430.513       2665.4341      0             -5966.2507      0              0             -199.12246      125202.1       50.026932      50.026932      50.026932      0.90094702     987.45001      1001.7331      1047.9216    
    498300   498300         298.0112       1084.0682      5953.981       3972.2404      4298.5553     -326.31487      1448.1951      1471.9371      2685.198       0             -5931.6451      0              0             -198.8921       125347.11      50.046239      50.046239      50.046239      0.89990471     915.15433      1523.6513      813.39888    
    498400   498400         298.29246      1110.3065      6090.3949      4055.584       4302.6122     -247.0282       1508.0907      1491.6378      2689.6478      0             -5936.4045      0              0             -198.3931       125662.38      50.088162      50.088162      50.088162      0.89764695     948.71435      789.39636      1592.8088    
    498500   498500         305.81935      572.70568      5098.7763      4049.8762      4411.181      -361.30478      1466.0634      1460.5621      2633.9543      0             -5921.8846      0              0             -198.5204       125581.8       50.077454      50.077454      50.077454      0.89822292     1192.9404     -242.86294      768.03959    
    498600   498600         300.6996       1198.5854      6186.0075      3996.6048      4337.3331     -340.72831      1454.8076      1437.0373      2687.6952      0             -5920.2683      0              0             -199.04491      125250.88      50.033428      50.033428      50.033428      0.90059612     1177.866       1598.4432      819.447      
    498700   498700         301.31077      1211.8429      6144.039       3930.4626      4346.1487     -415.68604      1440.3069      1450.7201      2650.2323      0             -5956.9453      0              0             -199.0488       125248.43      50.033102      50.033102      50.033102      0.90061373     1050.9965      962.40571      1622.1266    
    498800   498800         297.65233      711.50003      5160.0355      3858.5046      4293.3788     -434.87418      1446.818       1418.9058      2617.1968      0             -5917.7949      0              0             -198.75963      125430.65      50.057354      50.057354      50.057354      0.89930538     481.72149      528.34712      1124.4315    
    498900   498900         296.45564      1183.1853      6038.4036      3875.745       4276.1177     -400.37267      1422.5233      1488.6161      2619.2777      0             -5930.7898      0              0             -198.91729      125331.24      50.044126      50.044126      50.044126      0.90001869     976.22556      1576.961       996.36929    
    499000   499000         304.88519      654.20679      5170.2875      3974.2048      4397.7065     -423.50179      1408.4377      1471.5161      2659.0498      0             -5962.5055      0              0             -198.86646      125363.27      50.048389      50.048389      50.048389      0.89978873     847.05089      677.08366      438.48583    
    499100   499100         304.47653      920.55959      5774.5446      4097.3867      4391.812      -294.42527      1492.065       1476.7647      2694.8418      0             -5958.0968      0              0             -199.56561      124924.08      49.989875      49.989875      49.989875      0.90295209     1349.5822      461.87181      950.22477    
    499200   499200         307.72319      1504.6088      6905.6381      4171.2437      4438.6424     -267.39865      1468.3757      1459.6332      2758.8668      0             -5954.2744      0              0             -200.06457      124612.52      49.948282      49.948282      49.948282      0.90520966     1312.1534      2193.551       1008.1219    
    499300   499300         303.23249      1571.1603      6867.8015      4017.6565      4373.8678     -356.21127      1452.4597      1451.0485      2700.8566      0             -5960.576       0              0             -200.42934      124385.73      49.917963      49.917963      49.917963      0.9068601      1667.079       1393.8003      1652.6016    
    499400   499400         299.62591      168.5566       4237.522       3930.5994      4321.846      -391.24663      1454.0325      1403.8863      2698.7772      0             -5947.9427      0              0             -199.67544      124855.36      49.980708      49.980708      49.980708      0.90344901     537.30279     -471.06664      439.43365    
    499500   499500         301.81161      1219.5701      6088.0488      3859.8739      4353.3728     -493.49894      1418.4949      1468.9529      2571.6218      0             -5952.5685      0              0             -199.00557      125275.64      50.036725      50.036725      50.036725      0.90041812     815.03575      1263.5739      1580.1006    
    499600   499600         299.54515      822.42727      5325.1246      3820.1956      4320.6812     -500.48556      1427.9709      1394.283       2637.4922      0             -5960.2317      0              0             -198.69605      125470.79      50.062693      50.062693      50.062693      0.89901769     766.27639      868.86702      832.13838    
    499700   499700         301.40256      1197.4017      6072.9784      3883.2161      4347.4726     -464.25656      1447.5753      1422.1826      2611.735       0             -5945.7494      0              0             -198.81568      125395.29      50.05265       50.05265       50.05265       0.89955894     1484.5724      821.66259      1285.9701    
    499800   499800         302.17711      1300.7406      6370.5773      3995.2522      4358.6449     -363.39263      1466.3496      1424.4255      2680.9639      0             -5935.1316      0              0             -199.10188      125215.04      50.028655      50.028655      50.028655      0.90085391     680.95995      1719.8872      1501.3745    
    499900   499900         307.02605      1323.9082      6426.6022      4015.1523      4428.5867     -413.43443      1442.9238      1416.8812      2688.2061      0             -5961.4456      0              0             -199.61233      124894.84      49.985975      49.985975      49.985975      0.90316347     1289.4187      955.4464       1726.8595    
    500000   500000         304.09924      506.26018      4891.6662      3970.8682      4386.37       -415.50185      1425.3002      1423.3586      2669.9418      0             -5934.1024      0              0             -199.902        124713.86      49.961818      49.961818      49.961818      0.90447412     1087.0102     -185.1774       616.94771    
Loop time of 495.585 on 1 procs for 500000 steps with 4840 atoms

Performance: 87.170 ns/day, 0.275 hours/ns, 1008.908 timesteps/s, 4.883 Matom-step/s
99.2% CPU use with 1 MPI tasks x 1 OpenMP threads

MPI task timing breakdown:
Section |  min time  |  avg time  |  max time  |%varavg| %total
---------------------------------------------------------------
Pair    | 46.742     | 46.742     | 46.742     |   0.0 |  9.43
Bond    | 349.1      | 349.1      | 349.1      |   0.0 | 70.44
Neigh   | 0.071571   | 0.071571   | 0.071571   |   0.0 |  0.01
Comm    | 34.624     | 34.624     | 34.624     |   0.0 |  6.99
Output  | 5.2796     | 5.2796     | 5.2796     |   0.0 |  1.07
Modify  | 46.281     | 46.281     | 46.281     |   0.0 |  9.34
Other   |            | 13.48      |            |       |  2.72

Nlocal:           4840 ave        4840 max        4840 min
Histogram: 1 0 0 0 0 0 0 0 0 0
Nghost:          16596 ave       16596 max       16596 min
Histogram: 1 0 0 0 0 0 0 0 0 0
Neighs:              0 ave           0 max           0 min
Histogram: 1 0 0 0 0 0 0 0 0 0

Total # of neighbors = 0
Ave neighs/atom = 0
Ave special neighs/atom = 5.9504132
Neighbor list builds = 6780
Dangerous builds = 0

# --- Cleanup ---
unfix npt_fix
undump dump_npt

# --- Write Output ---
write_dump all custom /home/arz2/PolyJarvis/data/PE2/lammps/mechanical/bm_series/bm_P1000/bm_P1000_last.dump id type mol x y z xu yu zu vx vy vz modify sort id
write_data /home/arz2/PolyJarvis/data/PE2/lammps/mechanical/bm_series/bm_P1000/bm_P1000_out.data
System init for write_data ...
Generated 1 of 1 mixed pair_coeff terms from arithmetic mixing rule

print "STAGE COMPLETE: NPT T=300.0->300.0K P=1000.0->1000.0atm steps=500000"
STAGE COMPLETE: NPT T=300.0->300.0K P=1000.0->1000.0atm steps=500000
quit
