units real
atom_style full
boundary p p p

# --- Force Field Styles ---
pair_style lj/cut 14.0
dielectric 1.000000
bond_style harmonic
angle_style harmonic
dihedral_style multi/harmonic
improper_style none
special_bonds lj 0 0 0
pair_modify mix arithmetic tail yes
neighbor 2.0 bin
neigh_modify delay 0 every 1 check yes
neigh_modify one 4000
package gpu 1 neigh yes

read_data /home/arz2/PolyJarvis/data/PE3/lammps/npt_melt/npt_melt_out.data
Reading data file ...
  orthogonal box = (1.0077018 1.0077018 1.0077018) to (54.77067 54.77067 54.77067)
  1 by 1 by 2 MPI processor grid
  reading atoms ...
  4840 atoms
  reading velocities ...
  4840 velocities
  scanning bonds ...
  2 = max bonds/atom
  scanning angles ...
  1 = max angles/atom
  scanning dihedrals ...
  2 = max dihedrals/atom
  orthogonal box = (1.0077018 1.0077018 1.0077018) to (54.77067 54.77067 54.77067)
  1 by 1 by 2 MPI processor grid
  reading bonds ...
  4820 bonds
  reading angles ...
  4800 angles
  reading dihedrals ...
  4780 dihedrals
Finding 1-2 1-3 1-4 neighbors ...
  special bond factors lj:    0        0        0       
  special bond factors coul:  0        0        0       
     2 = max # of 1-2 neighbors
     2 = max # of 1-3 neighbors
     4 = max # of 1-4 neighbors
     6 = max # of special neighbors
  special bonds CPU = 0.001 seconds
  read_data CPU = 0.096 seconds


# --- Thermo Output ---
thermo_style custom step time temp press enthalpy etotal ke pe ebond eangle edihed eimp evdwl ecoul elong etail vol lx ly lz density pxx pyy pzz
thermo_modify flush yes
thermo 500

# --- Velocity initialization at T_START (once only — Rule A) ---
velocity all create 450.0 193390 mom yes rot yes dist gaussian

# --- Temperature staircase (inherits momenta across steps — Rule A) ---
variable temps index 450 430 410 390 370 350 330 310 290 270 250 230 210 190 170 150 130 110 100
label TEMP_LOOP
  timestep 2
  fix npt_tg all npt temp ${temps} ${temps} 100 iso 1.0 1.0 1000.0
  fix npt_tg all npt temp 450 ${temps} 100 iso 1.0 1.0 1000.0
  fix npt_tg all npt temp 450 450 100 iso 1.0 1.0 1000.0
  run 200000

CITE-CITE-CITE-CITE-CITE-CITE-CITE-CITE-CITE-CITE-CITE-CITE-CITE

Your simulation uses code contributions which should be cited:

- GPU package (short-range, long-range and three-body potentials): doi:10.1016/j.cpc.2010.12.021, doi:10.1016/j.cpc.2011.10.012, doi:10.1016/j.cpc.2013.08.002, doi:10.1016/j.commatsci.2014.10.068, doi:10.1016/j.cpc.2016.10.020, doi:10.3233/APC200086

@Article{Brown11,
 author = {W. M. Brown and P. Wang and S. J. Plimpton and A. N. Tharrington},
 title = {Implementing Molecular Dynamics on Hybrid High Performance Computers---Short Range Forces},
 journal = {Comput.\ Phys.\ Commun.},
 year =    2011,
 volume =  182,
 pages =   {898--911},
 doi =     {10.1016/j.cpc.2010.12.021}
}

@Article{Brown12,
 author = {W. M. Brown and A. Kohlmeyer and S. J. Plimpton and A. N. Tharrington},
 title = {Implementing Molecular Dynamics on Hybrid High Performance Computers - Particle-Particle Particle-Mesh},
 journal = {Comput.\ Phys.\ Commun.},
 year =    2012,
 volume =  183,
 doi =     {10.1016/j.cpc.2011.10.012},
 pages =   {449--459}
}

@Article{Brown13,
 author = {W. M. Brown and Y. Masako},
 title = {Implementing Molecular Dynamics on Hybrid High Performance Computers---Three-Body Potentials},
 journal = {Comput.\ Phys.\ Commun.},
 year =    2013,
 volume =  184,
 pages =   {2785--2793},
 doi =     {10.1016/j.cpc.2013.08.002},
}

@Article{Trung15,
 author = {T. D. Nguyen and S. J. Plimpton},
 title = {Accelerating Dissipative Particle Dynamics Simulations for Soft Matter Systems},
 journal = {Comput.\ Mater.\ Sci.},
 year =    2015,
 doi =     {10.1016/j.commatsci.2014.10.068},
 volume =  100,
 pages =   {173--180}
}

@Article{Trung17,
 author = {T. D. Nguyen},
 title = {{GPU}-Accelerated {T}ersoff Potentials for Massively Parallel
    Molecular Dynamics Simulations},
 journal = {Comput.\ Phys.\ Commun.},
 year =    2017,
 doi =     {10.1016/j.cpc.2016.10.020},
 volume =  212,
 pages =   {113--122}
}

@inproceedings{Nikolskiy19,
 author = {V. Nikolskiy and V. Stegailov},
 title = {{GPU} Acceleration of Four-Site Water Models in {LAMMPS}},
 booktitle = {Proceedings of the International Conference on Parallel
    Computing (ParCo 2019), Prague, Czech Republic},
 doi =     {10.3233/APC200086},
 year =    2019
}

CITE-CITE-CITE-CITE-CITE-CITE-CITE-CITE-CITE-CITE-CITE-CITE-CITE

Generated 1 of 1 mixed pair_coeff terms from arithmetic mixing rule
Per MPI rank memory allocation (min/avg/max) = 8.034 | 8.034 | 8.035 Mbytes
   Step          Time           Temp          Press         Enthalpy        TotEng         KinEng         PotEng         E_bond        E_angle        E_dihed        E_impro         E_vdwl         E_coul         E_long         E_tail         Volume           Lx             Ly             Lz          Density          Pxx            Pyy            Pzz      
         0   0              450           -668.99699      10650.326      12166.502      6490.8629      5675.6392      2684.5278      2650.4468      4683.7851      0             -4343.1204      0              0             -160.42872      155399.54      53.762968      53.762968      53.762968      0.72587382    -359.93914     -683.30558     -963.74624    
       500   1000           449.9849       163.83312      10750.106      10389.015      6490.6451      3898.3703      2133.1949      2162.3137      4192.2897      0             -4589.4279      0              0             -164.96572      151125.64      53.265505      53.265505      53.265505      0.74640184     546.87941      348.52428     -403.90432    
      1000   2000           449.95912      732.10792      11900.271      10294.529      6490.2733      3804.2557      2131.8789      2153.5916      4133.6453      0             -4614.8601      0              0             -165.77044      150392.01      53.179174      53.179174      53.179174      0.75004286     733.76814      549.48016      913.07546    
      1500   3000           445.63407     -167.9672       9963.9942      10329.932      6427.8881      3902.0443      2193.6857      2242.2806      4098.8084      0             -4632.7303      0              0             -166.88773      149385.15      53.060232      53.060232      53.060232      0.75509817    -606.80361      252.92883     -150.02682    
      2000   4000           446.06383      566.55525      11360.681      10141.548      6434.087       3707.4607      2192.3031      2114.6773      4116.8639      0             -4716.3836      0              0             -168.96582      147547.89      52.841808      52.841808      52.841808      0.76450065     270.7977       754.76058      674.10747    
      2500   5000           444.91865     -151.00549      9827.8275      10153.983      6417.5689      3736.4143      2192.2847      2138.9162      4108.0281      0             -4702.8147      0              0             -168.33543      148100.43      52.907686      52.907686      52.907686      0.76164841    -245.06919      0.87544319    -208.82273    
      3000   6000           448.08441      216.9866       10593.494      10128.253      6463.2322      3665.0211      2118.4652      2165.0663      4079.7008      0             -4698.2112      0              0             -169.5753       147017.57      52.778424      52.778424      52.778424      0.76725832     361.51419      361.08278     -71.637177    
      3500   7000           448.96695      632.24897      11512.098      10154.479      6475.9621      3678.5167      2145.797       2130.0773      4112.1354      0             -4709.4929      0              0             -169.3238       147235.94      52.804542      52.804542      52.804542      0.76612037     724.32232      893.35536      279.06925    
      4000   8000           455.8646       104.03548      10729.907      10503.43       6575.4548      3927.9757      2181.8221      2228.8122      4223.0557      0             -4705.7144      0              0             -167.01877      149267.95      53.046352      53.046352      53.046352      0.75569106    -234.88027      85.181946      461.80477    
      4500   9000           451.63295      670.14961      11713.978      10263.437      6514.4168      3749.02        2171.8876      2111.7711      4153.9406      0             -4688.5794      0              0             -167.97689      148416.55      52.945303      52.945303      52.945303      0.76002615     186.44209      1163.3048      660.70195    
      5000   10000          445.79934      359.05036      10922.572      10150.371      6430.272       3720.099       2181.7055      2203.2237      4027.3348      0             -4692.1651      0              0             -169.05683      147468.45      52.832323      52.832323      52.832323      0.76491244     1062.6286     -401.94538      416.46781    
      5500   11000          459.3232      -96.953273      10182.509      10395.283      6625.3421      3769.9408      2130.4025      2194.2091      4070.2615      0             -4624.9323      0              0             -165.67334      150480.15      53.189561      53.189561      53.189561      0.74960355     47.633922     -951.13263      612.63889    
      6000   12000          447.85049      70.761315      10387.112      10232.737      6459.858       3772.8789      2167.9663      2189.7031      4064.3927      0             -4649.1832      0              0             -166.65833      149590.78      53.084567      53.084567      53.084567      0.7540602      412.14598      307.7531      -507.61514    
      6500   13000          454.91477     -301.03128      9592.8134      10248.484      6561.7543      3686.7297      2147.3799      2123.969       4093.6789      0             -4678.2982      0              0             -166.92972      149347.57      53.055783      53.055783      53.055783      0.75528816    -528.96311      234.47274     -608.60346    
      7000   14000          444.62434      357.95408      10974.082      10204.513      6413.3236      3791.1899      2190.6104      2229.1358      4108.5154      0             -4737.0717      0              0             -169.11728      147415.74      52.826028      52.826028      52.826028      0.76518596    -311.24266      93.700794      1291.4041    
      7500   15000          449.90956     -502.43069      9083.1112      10164.858      6489.5585      3675.299       2176.0593      2180.3548      4076.5496      0             -4757.6646      0              0             -168.87232      147629.58      52.851558      52.851558      52.851558      0.76407762    -844.81454     -375.45615     -287.0214     
      8000   16000          455.34605     -72.41248       10041.953      10199.037      6567.975       3631.062       2143.3973      2161.6634      4048.6297      0             -4722.6283      0              0             -167.60577      148745.18      52.984352      52.984352      52.984352      0.75834698    -526.59044      207.5999       101.7531     
      8500   17000          456.0846       138.6975       10311.438      10013.347      6578.6281      3434.719       2079.8656      2141.4181      4001.3788      0             -4787.9435      0              0             -169.17161      147368.4       52.820372      52.820372      52.820372      0.76543179    -305.51392      508.21654      213.38988    
      9000   18000          452.21051     -13.054597      10089.61       10117.444      6522.7477      3594.6965      2155.3607      2246.1292      3965.4763      0             -4772.2698      0              0             -170.526        146197.94      52.68016       52.68016       52.68016       0.77155982     69.314117     -488.85566      380.37775    
      9500   19000          447.54126      431.858        10903.878      9984.4425      6455.3978      3529.0447      2144.7026      2166.9377      3994.4957      0             -4777.0912      0              0             -170.77628      145983.68      52.654412      52.654412      52.654412      0.77269222     708.2465       313.37468      273.9528     
     10000   20000          445.49101     -535.58557      8862.1921      9996.8709      6425.8246      3571.0463      2181.5494      2194.0505      4034.2709      0             -4838.8246      0              0             -171.61833      145267.41      52.568154      52.568154      52.568154      0.77650216    -944.84547     -439.35645     -222.5548     
     10500   21000          454.26047      334.64656      10887.455      10171.859      6552.3165      3619.5421      2217.8556      2181.4013      3993.014       0             -4772.7288      0              0             -170.03021      146624.24      52.731313      52.731313      52.731313      0.76931657     31.076251      536.21916      436.64426    
     11000   22000          465.81766      397.6138       11028.769      10176.787      6719.0191      3457.7684      2148.5274      2150.5631      3959.4003      0             -4800.7225      0              0             -169.68322      146924.07      52.767233      52.767233      52.767233      0.76774659     320.48884      571.87089      300.48166    
     11500   23000          452.59749      108.84848      10226.319      9992.868       6528.3295      3464.5386      2136.0313      2209.7657      3935.2107      0             -4816.4692      0              0             -169.52498      147061.22      52.783646      52.783646      52.783646      0.76703061     289.12844      533.6297      -496.21269    
     12000   24000          454.82608      287.77263      10741.674      10123.468      6560.4749      3562.993       2227.3613      2191.6657      3924.0114      0             -4780.0453      0              0             -169.24814      147301.77      52.81241       52.81241       52.81241       0.76577803     367.17377      161.48567      334.65844    
     12500   25000          450.21017      116.56924      10244.058      9993.1017      6493.8945      3499.2072      2184.8047      2206.2968      3887.5366      0             -4779.4309      0              0             -168.88607      147617.56      52.850123      52.850123      52.850123      0.76413983     431.3699      -31.955104     -49.707077    
     13000   26000          455.79694      13.477146      10012.239      9983.3348      6574.4788      3408.856       2208.0069      2114.1656      3851.7342      0             -4765.0506      0              0             -169.53012      147056.76      52.783112      52.783112      52.783112      0.76705387     36.665783      174.6501      -170.88444    
     13500   27000          449.14754     -18.47854       9841.6078      9880.973       6478.5669      3402.4061      2133.9483      2115.8233      3968.2499      0             -4815.6154      0              0             -170.67219      146072.71      52.665114      52.665114      52.665114      0.7722213      274.71374     -1.1871252     -328.96223    
     14000   28000          449.19108      119.13615      10223.36       9966.8557      6479.195       3487.6607      2211.7185      2177.2099      3883.6805      0             -4784.9482      0              0             -168.8715       147630.3       52.851644      52.851644      52.851644      0.76407388    -9.9282233      808.46444     -441.12778    
     14500   29000          456.87416     -488.57543      9152.8932      10207.641      6590.0167      3617.6246      2124.1517      2253.6059      4012.3353      0             -4772.4682      0              0             -168.4188       148027.12      52.898956      52.898956      52.898956      0.7620256     -715.47832     -51.885954     -698.36201    
     15000   30000          455.98732      74.062695      10178.385      10019.8        6577.2248      3442.5755      2162.8081      2131.8861      3918.0116      0             -4770.1303      0              0             -169.80328      146820.19      52.754793      52.754793      52.754793      0.76828981    -40.200244      194.371        68.017333    
     15500   31000          444.43772      424.84441      10879.444      9963.3439      6410.6318      3552.7121      2086.2432      2253.8194      3939.3244      0             -4726.675       0              0             -168.61448      147855.33      52.878484      52.878484      52.878484      0.76291097     862.28735     -392.43034      804.67621    
     16000   32000          446.58066      681.1951       11394.491      9938.7972      6441.542       3497.2553      2152.9416      2176.1523      3932.5787      0             -4764.4173      0              0             -170.14108      146528.69      52.719857      52.719857      52.719857      0.76981821     229.03622      786.67779      1027.8713    
     16500   33000          454.91069     -33.970279      10084.002      10156.786      6561.6954      3595.0904      2169.1731      2229.8301      3960.6683      0             -4764.5811      0              0             -169.69627      146912.78      52.76588       52.76588       52.76588       0.76780562    -418.32181     -39.525227      355.9362     
     17000   34000          454.45617      168.52161      10452.199      10087.758      6555.1394      3532.6182      2190.9823      2118.4681      3964.5439      0             -4741.3761      0              0             -168.12623      148284.72      52.929622      52.929622      52.929622      0.76070184     36.176842     -118.37347      587.76146    
     17500   35000          446.52106      109.57923      10104.498      9874.1895      6440.6822      3433.5073      2105.5301      2203.971       4002.0946      0             -4878.0885      0              0             -172.9921       144113.8       52.428632      52.428632      52.428632      0.78271793     168.60976      63.83084       96.297096    
     18000   36000          453.20712     -72.233178      10021.153      10174.841      6537.1228      3637.7186      2213.5201      2190.3157      4078.0671      0             -4844.1843      0              0             -170.88507      145890.74      52.643236      52.643236      52.643236      0.77318447    -512.1872       514.9122      -219.42454    
     18500   37000          443.32583      432.63324      10840.421      9921.7868      6394.5938      3527.193       2206.8605      2142.479       3995.8389      0             -4817.9854      0              0             -171.23204      145595.12      52.607654      52.607654      52.607654      0.77475439     892.23716      406.57185     -0.90930411   
     19000   38000          454.13293      276.54739      10554.048      9959.396       6550.477       3408.919       2092.6918      2122.5282      3984.358       0             -4790.659       0              0             -169.08869      147440.67      52.829005      52.829005      52.829005      0.7650566      183.33343      374.41952      271.88921    
     19500   39000          454.19667     -309.96706      9383.5281      10045.846      6551.3963      3494.4495      2182.3129      2139.5741      3974.9026      0             -4802.3402      0              0             -170.15979      146512.58      52.717925      52.717925      52.717925      0.76990286    -636.86845     -103.1744      -189.85833    
     20000   40000          444.19385      41.048394      9975.4499      9889.2954      6407.1142      3482.1812      2121.4878      2242.4946      3988.4498      0             -4870.2511      0              0             -173.23111      143914.97      52.404509      52.404509      52.404509      0.78379934     217.04818     -383.12043      289.21744    
     20500   41000          460.27446      193.96087      10614.087      10199.753      6639.0632      3560.6901      2162.7675      2173.0968      4022.1538      0             -4797.328       0              0             -170.20489      146473.76      52.713268      52.713268      52.713268      0.77010692     671.2213      -701.52224      612.18357    
     21000   42000          450.71972      421.60049      10978.648      10081.807      6501.2443      3580.5624      2190.1596      2155.9804      4046.9092      0             -4812.4868      0              0             -170.92006      145860.87      52.639643      52.639643      52.639643      0.77334281     385.80438      41.093126      837.90397    
     21500   43000          448.91458      94.087705      10198.778      9998.7673      6475.2067      3523.5605      2171.6247      2155.1442      4003.5127      0             -4806.721       0              0             -171.03559      145762.35      52.627789      52.627789      52.627789      0.7738655      110.52357      290.65686     -118.91731    
     22000   44000          452.78101     -639.7834       8861.6693      10230.003      6530.9766      3699.0264      2202.4812      2194.443       4074.7379      0             -4772.6358      0              0             -169.9999       146650.37      52.734447      52.734447      52.734447      0.76917946    -230.52154     -1267.5544     -421.27424    
     22500   45000          440.63377     -164.18509      9704.0465      10057.31       6355.7631      3701.5465      2229.032       2185.2577      4059.9607      0             -4772.704       0              0             -168.98307      147532.82      52.840009      52.840009      52.840009      0.76457871    -250.6462      -66.826107     -175.08296    
     23000   46000          450.71383      285.61481      10685.749      10073.62       6501.1593      3572.4612      2151.5825      2150.6212      4052.0547      0             -4781.7973      0              0             -169.64689      146955.53      52.770999      52.770999      52.770999      0.76758222     185.20637     -220.04256      891.68063    
     23500   47000          446.83475     -576.50807      8705.1874      9945.587       6445.207       3500.38        2156.8369      2129.7006      3990.942       0             -4777.0995      0              0             -168.98632      147529.99      52.839671      52.839671      52.839671      0.76459339    -555.86375     -694.9818      -478.67867    
     24000   48000          452.61367      569.2452       11281.433      10066.663      6528.5629      3538.1005      2174.569       2210.9354      3981.0346      0             -4828.4385      0              0             -170.37786      146325.05      52.695423      52.695423      52.695423      0.77088956     434.33978      1248.2485      25.147323    
     24500   49000          454.57336      543.80072      11297.782      10151.181      6556.8297      3594.3517      2229.6749      2216.0381      3999.6467      0             -4851.0079      0              0             -172.43902      144576.03      52.484626      52.484626      52.484626      0.78021545     449.01472      450.30655      732.0809     
     25000   50000          455.02687      370.03117      10750.505      9958.6811      6563.3712      3395.3099      2122.1633      2127.8044      4006.0405      0             -4860.6983      0              0             -169.90935      146728.53      52.743813      52.743813      52.743813      0.76876976     428.23357      170.30498      511.55495    
     25500   51000          449.29827     -29.725469      9934.5353      9997.8248      6480.7411      3517.0837      2155.7352      2140.6437      4036.7656      0             -4816.0608      0              0             -170.76732      145991.34      52.655333      52.655333      52.655333      0.7726517      474.38698     -165.72177     -397.84162    
     26000   52000          450.72135     -441.1223       9088.8652      10032.765      6501.2678      3531.4969      2149.8302      2169.8092      3975.7204      0             -4763.8629      0              0             -169.91864      146720.51      52.742852      52.742852      52.742852      0.76881175    -682.03313     -259.84677     -381.48702    
     26500   53000          449.15326     -174.30724      9672.192       10042.586      6478.6494      3563.9362      2188.0448      2177.6875      4031.0937      0             -4832.8898      0              0             -171.10384      145704.21      52.62079       52.62079       52.62079       0.7741743      327.27706     -780.46117     -69.737605    
     27000   54000          451.05997      25.483712      10075.716      10021.306      6506.1521      3515.1542      2171.5268      2152.2005      4014.9506      0             -4823.5237      0              0             -170.29199      146398.83      52.704279      52.704279      52.704279      0.77050105     72.79131      -553.91695      557.57678    
     27500   55000          454.73968     -663.15351      8740.2192      10153.701      6559.2287      3594.472       2153.3704      2258.0916      4023.9556      0             -4840.9455      0              0             -170.58141      146150.45      52.674455      52.674455      52.674455      0.77181052    -693.0792      -262.27975     -1034.1016    
     28000   56000          454.23152     -401.82221      9191.1474      10057.616      6551.899       3505.7169      2137.1869      2220.708       3889.9188      0             -4742.0968      0              0             -168.61216      147857.36      52.878726      52.878726      52.878726      0.76290051     211.79086     -898.48634     -518.77115    
     28500   57000          447.35388      221.84965      10257.006      9783.6362      6452.6949      3330.9413      2168.3625      2107.691       3885.9865      0             -4831.0986      0              0             -170.39859      146307.26      52.693287      52.693287      52.693287      0.77098333    -122.88608      396.89397      391.54106    
     29000   58000          454.16958      454.39369      10925.048      9964.9224      6551.0056      3413.9169      2225.0409      2144.8242      3910.2608      0             -4866.2091      0              0             -172.07268      144883.84      52.521846      52.521846      52.521846      0.7785579      1024.0595      58.439334      280.68225    
     29500   59000          448.98471     -119.16806      9782.3364      10039.135      6476.2183      3562.9167      2219.9493      2171.7934      3938.3863      0             -4767.2124      0              0             -168.72328      147759.99      52.867116      52.867116      52.867116      0.76340324    -230.51701      65.228348     -192.21552    
     30000   60000          454.37432      48.164488      10051.005      9947.5296      6553.9587      3393.5709      2180.1477      2115.1498      3920.7329      0             -4822.4594      0              0             -169.23851      147310.14      52.813411      52.813411      52.813411      0.76573447    -233.80026      594.33537     -216.04164    
     30500   61000          452.6631       174.96659      10476.709      10098.007      6529.2759      3568.7314      2204.3204      2144.1337      3945.1536      0             -4724.8763      0              0             -167.98317      148411         52.944643      52.944643      52.944643      0.76005456    -186.72979      275.55279      436.07675    
     31000   62000          452.16123     -133.36098      9728.132       10016.558      6522.0368      3494.521       2186.4477      2157.4015      3867.1723      0             -4716.5005      0              0             -168.11343      148296         52.930965      52.930965      52.930965      0.76064394    -314.21885      172.03221     -257.8963     
     31500   63000          461.25412      268.74649      10851.735      10270.816      6653.194       3617.6218      2214.7732      2167.8431      3968.5954      0             -4733.5899      0              0             -168.20354      148216.56      52.921512      52.921512      52.921512      0.76105163     468.67818     -31.953821      369.5151     
     32000   64000          443.33677      448.0295       10953.823      9993.0316      6394.7515      3598.2801      2183.1562      2165.0072      4007.9486      0             -4757.832       0              0             -169.54502      147043.83      52.781566      52.781566      52.781566      0.76712128     616.53799      201.67617      525.87433    
     32500   65000          459.22537      839.89722      12037.971      10247.794      6623.931       3623.8627      2216.7728      2178.6656      4061.4061      0             -4832.9818      0              0             -170.58385      146148.36      52.674204      52.674204      52.674204      0.77182157     446.88411      828.78757      1244.02      
     33000   66000          448.01964      138.66123      10159.835      9863.3425      6462.2979      3401.0446      2200.2125      2142.5187      3880.4026      0             -4822.0893      0              0             -170.03937      146616.34      52.730367      52.730367      52.730367      0.76935801     495.82647     -436.8235       356.98072    
     33500   67000          457.41668      150.11263      10313.347      9992.4041      6597.8421      3394.562       2150.0438      2129.5096      3958.9551      0             -4843.9464      0              0             -170.0582       146600.1       52.72842       52.72842       52.72842       0.76944323     298.30396      223.53363     -71.499703    
     34000   68000          450.98461      432.24224      10908.677      9994.4878      6505.0651      3489.4227      2221.3673      2114.5118      4001.5499      0             -4848.0062      0              0             -171.90906      145021.73      52.538504      52.538504      52.538504      0.77781759     192.17917      129.56878      974.97879    
     34500   69000          445.70978      622.14467      11144.508      9828.4799      6428.9801      3399.4998      2167.3837      2120.5631      3995.6879      0             -4884.1349      0              0             -171.88344      145043.35      52.541114      52.541114      52.541114      0.77770167     730.34849      479.58738      656.49815    
     35000   70000          451.84959     -28.987291      9810.9263      9872.8268      6517.5417      3355.2851      2150.9262      2106.9151      3968.2056      0             -4870.7618      0              0             -170.26335      146423.46      52.707234      52.707234      52.707234      0.77037145    -312.59383      155.39911      70.232853    
     35500   71000          443.58244      74.815301      10138.183      9977.5583      6398.2951      3579.2632      2226.3949      2168.0339      3991.0925      0             -4806.2581      0              0             -169.35011      147213.07      52.801807      52.801807      52.801807      0.76623943     165.5577       54.474288      4.4139122    
     36000   72000          452.30924     -713.19309      8529.6626      10089.877      6524.1718      3565.7057      2226.2345      2142.51        3904.3996      0             -4707.4384      0              0             -166.19978      150003.5       53.133342      53.133342      53.133342      0.75198548    -649.15545     -759.95572     -730.4681     
     36500   73000          455.49514      577.44305      11285.863      10039.697      6570.1256      3469.5716      2130.881       2222.7511      3872.4062      0             -4756.4668      0              0             -168.47723      147975.78      52.892839      52.892839      52.892839      0.76228998     379.49348      1398.7655     -45.929822    
     37000   74000          459.84708      297.03953      10657.658      10026.566      6632.8985      3393.6677      2166.6847      2162.4147      3949.3095      0             -4884.7413      0              0             -171.1314       145680.74      52.617965      52.617965      52.617965      0.77429903     869.44134      116.925       -95.247762    
     37500   75000          461.48025     -158.43325      9856.8457      10193.916      6656.4557      3537.4601      2171.8406      2197.0349      3985.1106      0             -4816.526       0              0             -170.8968       145880.73      52.642032      52.642032      52.642032      0.77323752    -824.14662      293.36005      55.486818    
     38000   76000          445.48047     -362.90418      9076.4011      9854.0044      6425.6726      3428.3318      2170.492       2181.8813      3898.6337      0             -4822.6752      0              0             -169.68428      146923.15      52.767122      52.767122      52.767122      0.7677514     -407.5756       3.6644616     -684.80139    
     38500   77000          448.71726      43.297913      10033.064      9939.7906      6472.3605      3467.4301      2172.1596      2177.2426      3854.3762      0             -4736.3482      0              0             -168.77882      147711.37      52.861316      52.861316      52.861316      0.76365454    -165.05718     -143.73539      438.68631    
     39000   78000          449.20025      130.76839      10395.859      10116.276      6479.3272      3636.9493      2185.5108      2221.4414      4023.9456      0             -4793.9485      0              0             -170.05938      146599.09      52.728298      52.728298      52.728298      0.76944856     134.93168     -355.10004      612.47352    
     39500   79000          446.41723      553.56422      11257.676      10076.017      6439.1845      3636.8329      2239.7994      2135.6126      4053.5901      0             -4792.1692      0              0             -170.32715      146368.62      52.700653      52.700653      52.700653      0.7706601      923.47791      578.40756      158.80719    
     40000   80000          446.51537      629.73363      11283.611      9953.6245      6440.6001      3513.0243      2202.128       2206.3089      3955.1948      0             -4850.6074      0              0             -172.15405      144815.36      52.513569      52.513569      52.513569      0.77892607    -331.67032      1003.7378      1217.1334    
     40500   81000          451.40206      23.205333      10033.265      9983.7832      6511.0865      3472.6967      2226.0583      2151.3723      3910.4004      0             -4815.1343      0              0             -170.51169      146210.21      52.681633      52.681633      52.681633      0.77149508    -390.86037      257.59639      202.87998    
     41000   82000          461.45978      117.78461      10453.661      10200.38       6656.1604      3544.2195      2217.7438      2174.4809      3894.2158      0             -4742.221       0              0             -169.08083      147447.52      52.829823      52.829823      52.829823      0.76502103     39.915227     -533.10501      846.54361    
     41500   83000          451.0547      -28.078027      10010.047      10070.271      6506.0761      3564.195       2230.2796      2207.7782      3925.0984      0             -4798.9611      0              0             -169.51301      147071.6       52.784888      52.784888      52.784888      0.76697647     171.42658     -463.83821      208.17755    
     42000   84000          459.3172      -11.81291       10048.253      10073.641      6625.2555      3448.3854      2122.9382      2219.1526      3915.9699      0             -4809.6753      0              0             -169.17587      147364.69      52.819929      52.819929      52.819929      0.76545104    -325.04062      229.19066      60.411227    
     42500   85000          450.49163     -461.77981      8935.7391      9912.1308      6497.9543      3414.1765      2200.6269      2167.2995      3925.3408      0             -4879.0908      0              0             -171.95651      144981.72      52.53367       52.53367       52.53367       0.77803228    -34.662057     -1065.3141     -285.36333    
     43000   86000          452.15869      154.49593      10332.51       10007.49       6522.0001      3485.4903      2187.2642      2197.1595      3964.7832      0             -4863.7166      0              0             -172.82857      144250.17      52.445163      52.445163      52.445163      0.78197799     230.62872      168.16291      64.696165    
     43500   87000          453.57355     -40.843926      9965.5178      10052.703      6542.4083      3510.2946      2225.3219      2128.0893      3961.9512      0             -4805.0679      0              0             -170.33085      146365.44      52.700271      52.700271      52.700271      0.77067686    -266.86989      500.43903     -356.10092    
     44000   88000          449.00092      249.98823      10308.908      9782.1963      6476.4521      3305.7442      2176.3314      2064.6246      3986.3212      0             -4921.533       0              0             -172.56574      144469.87      52.471775      52.471775      52.471775      0.78078881     707.6277      -14.007079      56.344069    
     44500   89000          452.94476     -282.81446      9301.4204      9906.9407      6533.3386      3373.6022      2176.7003      2156.7773      3853.5827      0             -4813.4581      0              0             -169.81679      146808.51      52.753394      52.753394      52.753394      0.76835095    -204.38898     -547.07945     -96.974929    
     45000   90000          450.57639     -502.30743      9036.7967      10114.475      6499.1769      3615.2978      2245.1414      2119.6043      4042.925       0             -4792.3729      0              0             -169.46826      147110.44      52.789534      52.789534      52.789534      0.76677397    -786.37164      280.63904     -1001.1897    
     45500   91000          451.09098     -173.08561      9687.2201      10061.715      6506.5994      3555.1153      2198.2728      2181.241       3959.6978      0             -4784.0962      0              0             -168.04403      148357.25      52.938251      52.938251      52.938251      0.76032993    -628.09797     -32.130087      140.97122    
     46000   92000          448.76669      745.27377      11491.608      9890.6762      6473.0735      3417.6026      2161.9747      2094.1549      3935.9049      0             -4774.4318      0              0             -169.25865      147292.62      52.811316      52.811316      52.811316      0.76582559     787.40397      637.64074      810.7766     
     46500   93000          459.12319     -267.85997      9500.4483      10074.338      6622.4571      3451.8807      2153.5712      2189.3573      3866.1093      0             -4757.1571      0              0             -169.70213      146907.7       52.765272      52.765272      52.765272      0.76783217     273.84886     -232.23558     -845.19318    
     47000   94000          447.86895      440.54793      10930.797      9978.1636      6460.1244      3518.0392      2176.7115      2088.7004      3966.3125      0             -4713.6852      0              0             -168.14148      148271.26      52.928022      52.928022      52.928022      0.76077086     909.02738     -436.895        849.51139    
     47500   95000          444.6222      -110.43191      9595.0718      9832.3145      6413.2928      3419.0217      2088.8878      2168.0911      3912.7107      0             -4750.668       0              0             -169.24249      147306.68      52.812998      52.812998      52.812998      0.76575246     504.34162     -678.90215     -156.7352     
     48000   96000          450.73231     -56.041618      9841.4719      9961.7698      6501.4258      3460.344       2195.3821      2138.0087      3883.0154      0             -4756.0622      0              0             -169.37927      147187.73      52.798778      52.798778      52.798778      0.76637133     59.778289      360.00931     -587.91245    
     48500   97000          446.00135     -568.93267      8832.8137      10061.969      6433.1858      3628.7828      2168.0217      2229.672       3964.9149      0             -4733.8258      0              0             -168.29144      148139.15      52.912297      52.912297      52.912297      0.76144935    -109.11576     -1721.4801      123.79783    
     49000   98000          459.00248      123.51108      10435.493      10170.509      6620.716       3549.7931      2183.4981      2203.436       3967.6751      0             -4804.8161      0              0             -169.47077      147108.26      52.789273      52.789273      52.789273      0.76678534    -54.027576      158.72783      265.83298    
     49500   99000          450.0692      -257.24703      9452.1234      10002.782      6491.8611      3510.9212      2166.0559      2170.2293      3982.5983      0             -4807.9623      0              0             -169.85389      146776.44      52.749553      52.749553      52.749553      0.76851882    -894.34888      127.26458     -4.6567981    
     50000   100000         451.88303     -56.997785      9948.3495      10071.358      6518.0241      3553.3339      2271.924       2106.2243      3942.3997      0             -4767.2141      0              0             -168.47319      147979.33      52.893262      52.893262      52.893262      0.76227171    -180.4638      -49.225112      58.695558    
     50500   101000         444.6595       247.13076      10401.819      9872.1702      6413.8308      3458.3395      2148.8474      2158.8249      3942.2519      0             -4791.5847      0              0             -169.64702      146955.42      52.770985      52.770985      52.770985      0.76758283    -198.09427      388.59295      550.8936     
     51000   102000         449.22933     -622.72451      8639.6219      9967.9754      6479.7467      3488.2287      2157.8349      2159.0482      3989.7964      0             -4818.4507      0              0             -170.44726      146265.47      52.68827       52.68827       52.68827       0.77120357    -693.85153     -546.15992     -628.16209    
     51500   103000         449.73402     -53.78258       10041.632      10157.929      6487.0264      3670.9031      2192.5385      2213.5072      3992.7384      0             -4727.8809      0              0             -168.14292      148269.99      52.927871      52.927871      52.927871      0.76077736     185.68405     -503.29703      156.26524    
     52000   104000         453.43036      739.02827      11467.255      9895.3244      6540.3429      3354.9814      2064.0647      2186.1244      3926.082       0             -4821.2897      0              0             -170.93678      145846.61      52.637927      52.637927      52.637927      0.77341843     233.54948      849.40415      1134.1312    
     52500   105000         454.54464      9.8281044      10070.481      10049.335      6556.4154      3492.9191      2158.4268      2115.5499      3961.3432      0             -4742.4009      0              0             -168.98471      147531.4       52.839839      52.839839      52.839839      0.76458611    -312.48927     -169.61895      511.59253    
     53000   106000         462.61071      102.28452      10369.384      10151.824      6672.7615      3479.0625      2184.2977      2226.9029      3903.294       0             -4835.4322      0              0             -170.93778      145845.75      52.637824      52.637824      52.637824      0.77342297     312.77863     -457.4766       451.55153    
     53500   107000         446.05898     -2.0705155      9785.6946      9790.0979      6434.0171      3356.0808      2147.1109      2137.3738      3920.7688      0             -4849.1728      0              0             -170.96733      145820.55      52.634791      52.634791      52.634791      0.77355667    -76.38844      -269.16618      339.34307    
     54000   108000         451.84443      640.15605      11209.384      9863.4574      6517.4672      3345.9901      2102.2161      2171.5848      3955.9966      0             -4883.8074      0              0             -172.93069      144164.98      52.434838      52.434838      52.434838      0.78244005     916.15331      1047.9699     -43.655006    
     54500   109000         454.71018      476.95529      11108.524      10092.723      6558.8032      3533.9193      2188.92        2200.1997      3959.9971      0             -4815.1976      0              0             -170.71691      146034.45      52.660516      52.660516      52.660516      0.7724236      360.73874      907.58481      162.54234    
     55000   110000         460.18742     -300.04357      9285.4776      9933.6412      6637.8077      3295.8335      2133.4273      2071.8998      3843.9337      0             -4753.4273      0              0             -168.30903      148123.66      52.910452      52.910452      52.910452      0.76152897    -123.12788     -465.33867     -311.66417    
     55500   111000         447.36254     -176.57939      9744.0113      10122.322      6452.8198      3669.5026      2188.0908      2202.3547      4055.227       0             -4776.1698      0              0             -169.70658      146903.84      52.764811      52.764811      52.764811      0.76785231     547.0146      -557.51029     -519.24248    
     56000   112000         442.29815     -13.449499      9780.9779      9809.5986      6379.7704      3429.8282      2193.9299      2085.3544      3943.1432      0             -4792.5993      0              0             -170.8572       145914.54      52.646099      52.646099      52.646099      0.77305835     374.83181     -616.08064      200.90033    
     56500   113000         450.88574     -622.77976      8730.8548      10064.266      6503.639       3560.6275      2161.7767      2211.7856      3965.5705      0             -4778.5053      0              0             -169.81576      146809.4       52.753501      52.753501      52.753501      0.76834627    -757.85361     -671.69557     -438.79012    
     57000   114000         454.93168     -503.62832      9063.0819      10146.483      6561.9981      3584.4847      2192.8973      2224.0452      3916.9906      0             -4749.4483      0              0             -169.01635      147503.78      52.836541      52.836541      52.836541      0.76472927    -1053.0206     -417.54767     -40.316725    
     57500   115000         451.51966      340.2902       10801.421      10077.535      6512.7827      3564.7526      2181.7185      2130.9466      4066.459       0             -4814.3716      0              0             -170.91773      145862.87      52.639883      52.639883      52.639883      0.77333223    -277.97074      755.44525      543.39608    
     58000   116000         456.28711      733.67082      11643.686      10111.434      6581.5491      3529.8846      2156.1733      2203.0868      4071.673       0             -4901.0485      0              0             -174.09194      143203.35      52.317991      52.317991      52.317991      0.78769423     1566.6308      118.15057      516.23106    
     58500   117000         445.67075      131.31874      10284.43       10002.265      6428.4172      3573.8474      2086.9862      2233.9602      4020.5382      0             -4767.6372      0              0             -169.21183      147333.37      52.816187      52.816187      52.816187      0.76561374    -279.03529     -96.5044        769.4959     
     59000   118000         436.07952      321.56384      10544.668      9855.5275      6290.0719      3565.4555      2119.7266      2233.6401      3970.8602      0             -4758.7714      0              0             -169.65512      146948.41      52.770146      52.770146      52.770146      0.76761945     94.270367      452.57739      417.84377    
     59500   119000         456.31036      582.66409      11350.839      10106.766      6581.8844      3524.882       2149.6763      2151.5424      4016.091       0             -4792.4277      0              0             -170.28653      146403.53      52.704842      52.704842      52.704842      0.77047633     985.50319      519.79511      242.69399    
     60000   120000         442.54942      138.39533      10045.049      9748.8828      6383.3947      3365.4881      2095.5814      2106.8622      3984.3315      0             -4821.287       0              0             -169.89984      146736.74      52.744797      52.744797      52.744797      0.76872671     320.82836     -250.40566      344.76329    
     60500   121000         454.6119       412.43521      10948.309      10069.164      6557.3856      3511.7784      2093.8234      2196.2728      4035.1277      0             -4813.4456      0              0             -170.57019      146160.06      52.67561       52.67561       52.67561       0.77175977     135.7728       256.51531      845.01752    
     61000   122000         452.28486      362.22145      10950.097      10173.332      6523.82        3649.5122      2168.9132      2203.099       4044.5826      0             -4767.0826      0              0             -169.54779      147041.43      52.781278      52.781278      52.781278      0.76713384    -89.795446      752.94035      423.51945    
     61500   123000         452.98743     -259.41046      9527.8426      10087.505      6533.954       3553.5511      2169.9586      2143.9779      3991.9324      0             -4752.3178      0              0             -168.52681      147932.25      52.887652      52.887652      52.887652      0.76251432    -120.5164      -926.40993      268.69495    
     62000   124000         445.71218     -18.808086      9944.0624      9984.0733      6429.0148      3555.0586      2179.463       2238.4103      3986.5702      0             -4849.3849      0              0             -170.91245      145867.37      52.640425      52.640425      52.640425      0.77330833    -124.12811     -117.61307      185.31692    
     62500   125000         460.18172      160.29985      10611.915      10266.882      6637.7255      3629.1569      2158.3025      2268.2311      3984.5472      0             -4781.9239      0              0             -168.91994      147587.96      52.846591      52.846591      52.846591      0.76429305    -58.850057      381.59121      158.15838    
     63000   126000         445.16263     -172.29991      9718.0507      10088.554      6421.0881      3667.4661      2207.6842      2302.3191      3922.1834      0             -4764.7206      0              0             -169.08323      147445.43      52.829573      52.829573      52.829573      0.76503191    -437.89025     -413.84928      334.83979    
     63500   127000         452.0532      -283.80031      9639.6738      10256.613      6520.4786      3736.1342      2269.6179      2187.5913      4012.3662      0             -4733.4411      0              0             -167.25471      149057.39      53.021397      53.021397      53.021397      0.75675857    -109.77362     -203.73322     -537.89409    
     64000   128000         446.75076     -394.10406      9122.4084      9971.3825      6443.9954      3527.387       2197.5653      2119.317       3968.9676      0             -4758.4629      0              0             -168.78125      147709.23      52.861062      52.861062      52.861062      0.76366557    -603.10826     -449.70084     -129.50309    
     64500   129000         452.59951     -399.00907      9087.4951      9949.3207      6528.3586      3420.9621      2071.027       2171.3713      3949.8234      0             -4771.2595      0              0             -168.33372      148101.93      52.907866      52.907866      52.907866      0.76164068     85.185347     -755.5166      -526.69596    
     65000   130000         460.91826     -467.28387      9296.4238      10284.503      6648.3495      3636.1538      2190.7544      2157.3303      4141.7667      0             -4853.6976      0              0             -171.94782      144989.04      52.534555      52.534555      52.534555      0.77799299    -926.51701     -253.64503     -221.68958    
     65500   131000         450.37422     -275.58114      9381.8681      9969.3273      6496.2607      3473.0666      2186.1221      2120.9079      3973.7911      0             -4807.7544      0              0             -170.56092      146168.01      52.676565      52.676565      52.676565      0.77171781     367.5074      -727.34045     -466.91036    
     66000   132000         449.76223     -407.98075      9210.3339      10077.903      6487.4333      3590.47        2214.5832      2171.8141      4038.4581      0             -4834.3854      0              0             -170.97916      145810.45      52.633577      52.633577      52.633577      0.7736102     -1027.3107      168.20718     -364.83869    
     66500   133000         455.89407     -573.98492      8761.8022      9992.9755      6575.8797      3417.0957      2131.7319      2146.9875      3956.3509      0             -4817.9746      0              0             -169.50754      147076.34      52.785456      52.785456      52.785456      0.76695173    -554.40499     -633.32967     -534.2201     
     67000   134000         456.06157      120.32062      10311.91       10055.388      6578.2959      3477.0917      2169.9861      2171.6675      3946.9494      0             -4811.5113      0              0             -170.53867      146187.08      52.678855      52.678855      52.678855      0.77161713     397.67877     -274.79846      238.08155    
     67500   135000         443.52019      450.53464      10907.283      9950.6711      6397.3973      3553.2738      2169.7066      2221.1642      3964.5472      0             -4802.1442      0              0             -171.23794      145590.1       52.60705       52.60705       52.60705       0.77478106     292.3692       468.73159      590.50313    
     68000   136000         450.48821      364.59998      10760.144      9980.207       6497.9049      3482.3021      2187.5496      2183.9851      3928.0623      0             -4817.2948      0              0             -169.96701      146678.75      52.737848      52.737848      52.737848      0.76903064     627.35602      86.830201      379.61371    
     68500   137000         446.75205     -471.20792      8915.9105      9928.9438      6444.014       3484.9298      2223.2302      2076.6412      3924.5538      0             -4739.4953      0              0             -169.12063      147412.82      52.825678      52.825678      52.825678      0.76520113    -428.27818     -169.13238     -816.21321    
     69000   138000         451.90758     -476.13424      9080.4076      10096.869      6518.3781      3578.4914      2123.5436      2209.7353      4037.205       0             -4791.9926      0              0             -170.31231      146381.37      52.702182      52.702182      52.702182      0.77059299    -128.26743     -663.87516     -636.26012    
     69500   139000         448.4073       596.13882      11266.138      9992.3361      6467.8896      3524.4465      2212.1206      2160.0248      3995.8828      0             -4843.5818      0              0             -170.15834      146513.83      52.718074      52.718074      52.718074      0.76989632     605.20031      736.44744      446.76871    
     70000   140000         455.01883      214.28729      10404.862      9951.4042      6563.2552      3388.149       2164.5374      2138.7651      3922.8961      0             -4838.0497      0              0             -171.81744      145099.07      52.547841      52.547841      52.547841      0.77740304     83.509225      565.06166     -5.7090271    
     70500   141000         457.37049      185.50291      10701.952      10306.871      6597.176       3709.6955      2174.9811      2191.7983      4115.0693      0             -4772.1533      0              0             -170.71535      146035.78      52.660675      52.660675      52.660675      0.77241658     341.6291      -1.8100424      216.68969    
     71000   142000         458.72373      191.09352      10503.335      10097.368      6616.6952      3480.6725      2165.0755      2154.56        3971.2689      0             -4810.2319      0              0             -171.14437      145669.7       52.616636      52.616636      52.616636      0.7743577      346.78073      96.954133      129.54571    
     71500   143000         446.94161     -652.40425      8591.4342      9997.8476      6446.7483      3551.0994      2188.9411      2145.9686      3968.2313      0             -4752.0417      0              0             -168.65978      147815.62      52.87375       52.87375       52.87375       0.76311593    -307.90664     -660.4142      -988.89192    
     72000   144000         443.35069      178.83596      10289.796      9903.3921      6394.9523      3508.4398      2139.4646      2190.6024      3945.1484      0             -4766.7756      0              0             -168.27565      148153.05      52.913951      52.913951      52.913951      0.76137791     114.03273      330.72494      91.750218    
     72500   145000         451.52963     -248.10409      9453.4132      9987.3354      6512.9266      3474.4088      2100.5194      2125.8817      4067.9108      0             -4819.903       0              0             -168.95215      147559.83      52.843233      52.843233      52.843233      0.7644388     -600.23538      185.03704     -329.11392    
     73000   146000         455.04521      640.21754      11266.796      9890.7627      6563.6357      3327.1271      2108.3489      2120.1698      3918.3877      0             -4819.7794      0              0             -169.16343      147375.53      52.821224      52.821224      52.821224      0.76539475     466.15844      959.81194      494.68225    
     73500   147000         457.4729      -71.86607       9889.3362      10043.382      6598.6531      3444.7293      2166.6644      2166.2464      3891.4714      0             -4779.653       0              0             -169.6215       146977.53      52.773632      52.773632      52.773632      0.76746733     631.84293     -820.07139     -27.369759    
     74000   148000         454.07534      620.94935      11492.056      10169.534      6549.6463      3619.8876      2186.6858      2186.1758      4026.5375      0             -4779.5115      0              0             -170.7108       146039.68      52.661144      52.661144      52.661144      0.77239595     532.79042      397.0585       932.99913    
     74500   149000         450.27474     -244.05711      9497.1901      10020.115      6494.8258      3525.2892      2149.79        2206.13        3957.3382      0             -4787.9689      0              0             -169.69143      146916.96      52.766382      52.766382      52.766382      0.76778373    -554.00273     -212.43413      34.265519    
     75000   150000         453.29897     -48.991826      9906.6124      10009.844      6538.4477      3471.3962      2223.9018      2089.439       4019.4855      0             -4861.4301      0              0             -172.55168      144481.64      52.4732        52.4732        52.4732        0.7807252     -332.1629      -202.6347       387.82212    
     75500   151000         446.05853     -625.72259      8630.8716      9967.0601      6434.0106      3533.0495      2163.6876      2213.0355      3972.4518      0             -4816.1254      0              0             -170.26361      146423.24      52.707207      52.707207      52.707207      0.77037264    -540.64939     -984.31148     -352.2069     
     76000   152000         447.15231      472.08144      10818.47       9816.6         6449.7874      3366.8126      2133.009       2136.2687      3895.0274      0             -4797.4924      0              0             -171.32204      145518.63      52.598441      52.598441      52.598441      0.77516159     845.31849     -386.19488      957.12071    
     76500   153000         452.41097     -473.66529      8966.7408      9977.5584      6525.6392      3451.9193      2188.013       2194.6987      3898.47        0             -4829.2624      0              0             -170.37525      146327.3       52.695693      52.695693      52.695693      0.77087774     90.113537     -554.4519      -956.65752    
     77000   154000         447.28579     -826.39953      8256.2181      10009.636      6451.7128      3557.9234      2162.1172      2247.419       3979.2904      0             -4830.9032      0              0             -171.36113      145485.44      52.594441      52.594441      52.594441      0.77533843    -1174.9276     -537.98048     -766.29053    
     77500   155000         453.34307     -27.922318      9979.0827      10039.53       6539.0839      3500.4465      2165.1708      2097.5596      3988.5254      0             -4750.8093      0              0             -167.94981      148440.48      52.948149      52.948149      52.948149      0.75990361    -198.05284     -10.756894      125.04278    
     78000   156000         453.26324      125.99988      10450.209      10178.86       6537.9323      3640.9279      2196.3142      2173.2057      3981.1622      0             -4709.7543      0              0             -168.83039      147666.24      52.855933      52.855933      52.855933      0.7638879      140.44141      292.56998     -55.011764    
     78500   157000         462.72104      456.23073      11061.91       10085.646      6674.353       3411.2927      2186.369       2141.6195      3863.0157      0             -4779.7115      0              0             -169.91228      146726         52.74351       52.74351       52.74351       0.76878298    -406.37404      874.07608      900.99015    
     79000   158000         454.8674       610.69421      11482.477      10167.974      6561.071       3606.9028      2212.8118      2215.9554      3915.8482      0             -4737.7125      0              0             -168.91566      147591.7       52.847037      52.847037      52.847037      0.76427371     375.56902      797.146        659.36763    
     79500   159000         456.49885      33.253518      10208.825      10137.055      6584.6033      3552.4515      2145.4482      2176.4654      4002.7587      0             -4772.2208      0              0             -168.46241      147988.8       52.89439       52.89439       52.89439       0.76222293    -104.22204     -197.94459      401.92718    
     80000   160000         440.18541      268.92321      10385.016      9811.4741      6349.296       3462.1781      2177.6683      2128.8461      4002.9696      0             -4847.3059      0              0             -170.47907      146238.18      52.684993      52.684993      52.684993      0.77134748     464.71293      470.29174     -128.23504    
     80500   161000         449.7015      -514.89404      8968.7503      10067.166      6486.5573      3580.6084      2175.3692      2195.7366      4027.4582      0             -4817.9557      0              0             -170.43508      146275.93      52.689525      52.689525      52.689525      0.77114845    -950.14967      52.95241      -647.48485    
     81000   162000         456.13781      1244.9505      12828.669      10164.633      6579.3955      3585.2371      2201.2169      2119.4572      4055.5465      0             -4790.9835      0              0             -169.91029      146727.72      52.743716      52.743716      52.743716      0.76877399     1299.048       561.29171      1874.5117    
     81500   163000         448.62003      0.0011839701   9970.5919      9970.5893      6470.9581      3499.6313      2218.0127      2130.224       3956.3714      0             -4804.9768      0              0             -169.7764       146843.43      52.757577      52.757577      52.757577      0.76816821    -90.491665      231.92784     -141.43263    
     82000   164000         444.45902      506.99272      10960.142      9880.6153      6410.939       3469.6763      2259.0884      2118.8539      3871.5699      0             -4779.8359      0              0             -170.75602      146001         52.656494      52.656494      52.656494      0.77260057     50.469112      993.101        477.40806    
     82500   165000         448.73984      302.76491      10665.947      10021.725      6472.6861      3549.0391      2213.6924      2106.7494      4036.3581      0             -4807.7609      0              0             -170.87474      145899.56      52.644297      52.644297      52.644297      0.77313773     78.581702      304.6318       525.08122    
     83000   166000         444.5585      -332.88452      9269.4581      9970.1727      6412.374       3557.7986      2181.7856      2221.902       4046.4484      0             -4892.3373      0              0             -172.72699      144334.99      52.455441      52.455441      52.455441      0.78151841    -990.95575      857.81362     -865.51142    
     83500   167000         454.89383     -445.11524      9250.6891      10207.57       6561.4522      3646.1178      2225.0875      2128.4589      4076.8742      0             -4784.3028      0              0             -169.13066      147404.08      52.824634      52.824634      52.824634      0.76524651    -161.57852     -136.91368     -1036.8535    
     84000   168000         453.01294     -185.61314      9579.9579      9979.0106      6534.322       3444.6886      2129.1425      2130.2388      3989.7332      0             -4804.4259      0              0             -169.11657      147416.36      52.826102      52.826102      52.826102      0.76518274    -272.72834      187.87545     -471.98653    
     84500   169000         463.12068      192.23347      10534.467      10128.095      6680.1174      3447.9772      2151.3354      2185.3966      3981.475       0             -4870.2298      0              0             -171.99366      144950.4       52.529888      52.529888      52.529888      0.77820037    -693.87843      764.56618      506.01266    
     85000   170000         446.52         37.228942      10066.008      9986.8691      6440.6669      3546.2022      2187.955       2219.7629      3964.9741      0             -4826.4899      0              0             -171.04018      145758.44      52.627318      52.627318      52.627318      0.77388628     555.28026     -626.46076      182.86733    
     85500   171000         443.21102      131.96726      10078.032      9800.0812      6392.9377      3407.1435      2184.5569      2152.7148      3941.2117      0             -4871.34        0              0             -172.6261       144419.35      52.465658      52.465658      52.465658      0.78106193    -39.785448      259.64883      176.03841    
     86000   172000         442.69729      5.010813       10093.337      10082.6        6385.5277      3697.0719      2249.4779      2213.5771      4038.4185      0             -4804.4016      0              0             -169.67122      146934.46      52.768476      52.768476      52.768476      0.76769232     54.412608      630.44307     -669.82324    
     86500   173000         454.33767      191.84576      10415.649      10008.375      6553.4301      3454.9451      2165.6427      2132.2417      3993.8285      0             -4836.7678      0              0             -171.26675      145565.61      52.604101      52.604101      52.604101      0.77491141     329.20176     -106.28531      352.62083    
     87000   174000         440.54016      421.50181      10791.094      9902.5047      6354.4129      3548.0918      2299.8692      2154.5949      3974.5256      0             -4880.8979      0              0             -172.46705      144552.54      52.481782      52.481782      52.481782      0.78034226    -125.14736      780.07871      609.57409    
     87500   175000         448.99258      619.66238      11247.382      9923.0893      6476.3318      3446.7575      2186.1018      2116.4183      3968.7045      0             -4824.4671      0              0             -170.12926      146538.87      52.721077      52.721077      52.721077      0.76976476     830.11855      404.01274      624.85585    
     88000   176000         451.63515     -178.73546      9684.9401      10068.041      6514.4485      3553.5929      2213.4899      2169.0963      3923.5928      0             -4752.5861      0              0             -169.63085      146969.43      52.772663      52.772663      52.772663      0.76750962    -227.50829     -148.64237     -160.05572    
     88500   177000         443.92438      624.89439      11173.901      9842.2285      6403.2273      3439.0012      2180.3275      2134.5927      3929.5741      0             -4805.4931      0              0             -170.61484      146121.81      52.671014      52.671014      52.671014      0.77196181     31.84723       940.7392       902.09673    
     89000   178000         454.15096      0.08110724     10024.304      10024.13       6550.737       3473.3932      2192.9219      2178.8363      3905.1076      0             -4803.4727      0              0             -170.0737       146586.74      52.726818      52.726818      52.726818      0.76951337     134.74741      58.60468      -193.10876    
     89500   179000         450.49387     -75.050154      9741.3292      9901.9402      6497.9865      3403.9537      2096.3934      2204.1507      3921.3759      0             -4817.9664      0              0             -169.89634      146739.77      52.74516       52.74516       52.74516       0.76871086    -384.07305      175.56668     -16.644094    
     90000   180000         452.09486      283.40149      10578          9968.6101      6521.0795      3447.5306      2176.703       2137.938       3872.5664      0             -4739.6768      0              0             -169.08881      147440.56      52.828992      52.828992      52.828992      0.76505716     336.03237      907.42179     -393.24969    
     90500   181000         455.37803     -221.96367      9567.2484      10037.719      6568.4363      3469.2829      2178.7717      2146.2784      3954.5909      0             -4810.3581      0              0             -171.53665      145336.57      52.576496      52.576496      52.576496      0.77613262    -298.43384     -114.34381     -253.11334    
     91000   182000         452.0519       958.42161      11970.246      9951.4752      6520.4598      3431.0154      2180.596       2173.4647      3960.1268      0             -4883.1721      0              0             -172.61456      144429.01      52.466828      52.466828      52.466828      0.7810097      1072.136       399.70071      1403.4282    
     91500   183000         450.41449      442.97874      10882.467      9940.5827      6496.8415      3443.7412      2150.4959      2126.0777      3996.8679      0             -4829.7002      0              0             -170.99888      145793.64      52.631554      52.631554      52.631554      0.77369942    -101.5211       36.234223      1394.2231    
     92000   184000         446.11422      161.70419      10107.951      9762.7422      6434.8139      3327.9283      2172.2667      2099.8205      3908.159       0             -4852.3179      0              0             -170.31292      146380.85      52.70212       52.70212       52.70212       0.77059573     144.4165       420.6687      -79.972629    
     92500   185000         454.67349     -337.79017      9273.584       9989.0103      6558.2739      3430.7363      2237.4605      2177.1414      3895.6659      0             -4879.5314      0              0             -171.66821      145225.2       52.563062      52.563062      52.563062      0.77672786     286.93128     -467.35706     -832.94471    
     93000   186000         446.20532     -92.943006      9608.2183      9805.8419      6436.128       3369.7139      2180.0156      2168.7592      3902.2932      0             -4881.3542      0              0             -170.99586      145796.22      52.631864      52.631864      52.631864      0.77368576    -292.94099      59.986605     -45.874634    
     93500   187000         444.50851      169.1061       10316.958      9957.9773      6411.6529      3546.3245      2271.9604      2129.244       3995.2245      0             -4850.1044      0              0             -171.27582      145557.9       52.603172      52.603172      52.603172      0.77495246     775.00288     -511.11093      243.42634    
     94000   188000         451.59845     -505.41953      8959.3406      10024.607      6513.9191      3510.6876      2250.8324      2184.3285      3977.7198      0             -4902.1931      0              0             -172.50497      144520.76      52.477936      52.477936      52.477936      0.78051386    -1354.0323      428.93953     -591.16579    
     94500   189000         448.44866     -248.64513      9452.411       9979.3985      6468.4862      3510.9123      2225.4949      2179.6768      3968.5398      0             -4862.7993      0              0             -171.54868      145326.38      52.575267      52.575267      52.575267      0.77618705    -421.62473     -57.560601     -266.75005    
     95000   190000         447.8324      -290.18359      9411.5288      10030.187      6459.5972      3570.5897      2254.2733      2160.66        4011.2778      0             -4855.6215      0              0             -170.54143      146184.71      52.67857       52.67857       52.67857       0.77162965    -422.45116     -554.51201      106.4124     
     95500   191000         452.48259      257.60435      10676.293      10121.06       6526.6721      3594.3882      2281.0719      2164.2356      3947.1838      0             -4798.1031      0              0             -168.6888       147790.19      52.870717      52.870717      52.870717      0.76324726     66.632921      312.06519      394.11495    
     96000   192000         443.54868      39.012944      9978.3287      9895.605       6397.8082      3497.7968      2171.4329      2160.3519      3991.2488      0             -4825.2367      0              0             -171.46951      145393.48      52.583358      52.583358      52.583358      0.77582883     38.2253        365.73616     -286.92263    
     96500   193000         452.98685      249.27271      10623.671      10095.136      6533.9456      3561.1907      2286.4174      2182.3009      3926.3894      0             -4833.9169      0              0             -171.47835      145385.99      52.582454      52.582454      52.582454      0.77586882     83.1453        201.76942      462.9034     
     97000   194000         457.06305      904.60323      11957.474      10047.429      6592.7413      3454.6874      2266.7819      2208.54        3880.5673      0             -4901.2018      0              0             -172.19568      144780.34      52.509337      52.509337      52.509337      0.77911445     747.41165      654.56537      1311.8327    
     97500   195000         442.23846     -19.811429      9743.3656      9785.5684      6378.9094      3406.6589      2117.7559      2128.9352      3947.0213      0             -4787.0535      0              0             -170.68017      146065.88      52.664293      52.664293      52.664293      0.77225739    -993.61689      281.57655      652.60605    
     98000   196000         452.57248     -137.22795      9786.5646      10079.254      6527.9687      3551.2849      2235.4129      2132.8427      3959.3886      0             -4776.3594      0              0             -170.46845      146247.29      52.686087      52.686087      52.686087      0.77129944    -151.35884     -687.41559      427.09059    
     98500   197000         455.77545      362.86119      10690.422      9924.9266      6574.1688      3350.7578      2190.5047      2135.3606      3897.5385      0             -4872.646       0              0             -172.34766      144652.67      52.493898      52.493898      52.493898      0.77980207     504.40731      418.7289       165.44736    
     99000   198000         450.19889      388.55534      10923.702      10093.518      6493.7318      3599.786       2211.5462      2202.8257      3985.4454      0             -4800.0312      0              0             -170.17123      146502.73      52.716743      52.716743      52.716743      0.76995463    -182.10004      615.2991       732.46697    
     99500   199000         451.75259      166.34742      10294.937      9943.8192      6516.1425      3427.6767      2165.5838      2121.3924      4025.7021      0             -4885.0016      0              0             -172.25488      144730.59      52.503321      52.503321      52.503321      0.77938228     128.86854     -178.91075      549.08448    
    100000   200000         455.7674      -172.05327      9830.7959      10194.424      6574.0526      3620.3716      2255.1938      2233.3217      4031.8913      0             -4900.0353      0              0             -172.0335       144916.83      52.525832      52.525832      52.525832      0.77838066    -187.77809     -294.81882     -33.562909    
    100500   201000         451.03413     -24.870736      9942.6119      9995.5367      6505.7794      3489.7573      2194.2822      2211.0384      3892.1299      0             -4807.6932      0              0             -170.859        145913         52.645913      52.645913      52.645913      0.77306651    -91.892352     -82.91202       100.19216    
    101000   202000         454.89151     -144.22532      9665.7861      9972.265       6561.4187      3410.8463      2221.0455      2124.1828      3880.7878      0             -4815.1698      0              0             -171.09945      145707.94      52.62124       52.62124       52.62124       0.77415447    -366.58153      27.38999      -93.484427    
    101500   203000         460.36984      385.09506      10847.25       10027.084      6640.4389      3386.6447      2150.013       2232.6251      3826.4911      0             -4822.4845      0              0             -170.71576      146035.43      52.660633      52.660633      52.660633      0.77241843     587.24959      43.290613      524.74497    
    102000   204000         454.25611      119.48914      10300.845      10047.176      6552.2536      3494.9223      2230.1822      2144.9991      3975.7816      0             -4856.0405      0              0             -171.26496      145567.13      52.604283      52.604283      52.604283      0.77490333    -1214.2235      1025.885       546.80589    
    102500   205000         458.50456      104.20926      10325.491      10103.312      6613.5338      3489.7782      2222.477       2142.2121      3946.9671      0             -4821.878       0              0             -170.53408      146191.01      52.679327      52.679327      52.679327      0.77159641    -101.10655     -24.149031      437.88335    
    103000   206000         454.32504      182.60171      10470.641      10082.064      6553.2479      3528.8158      2271.9777      2154.9507      3921.6316      0             -4819.7442      0              0             -170.85784      145913.99      52.646032      52.646032      52.646032      0.77306127     225.92973      233.657        88.218401    
    103500   207000         441.64558     -408.04786      9039.2203      9903.8148      6370.3576      3533.4571      2232.4508      2186.9656      3965.5754      0             -4851.5347      0              0             -171.5957       145286.57      52.570465      52.570465      52.570465      0.77639976    -337.66689     -975.95101      89.474317    
    104000   208000         464.47124      174.70103      10435.982      10063.701      6699.5981      3364.1031      2158.7994      2106.4272      3937.9125      0             -4839.036       0              0             -170.62098      146116.55      52.670382      52.670382      52.670382      0.77198958     410.65593      134.03047     -20.583297    
    104500   209000         450.66996     -120.54819      9790.9373      10048.531      6500.5265      3548.005       2242.5323      2142.6216      3970.828       0             -4807.977       0              0             -170.15018      146520.85      52.718917      52.718917      52.718917      0.7698594     -347.12105     -337.0232       322.4997     
[...]
   3775000   7550000        99.874221      17.726083     -2342.3431     -2374.1736      1440.5997     -3814.7733      484.54901      519.94675      1557.5619      0             -6376.831       0              0             -202.47746      123127.53      49.74908       49.74908       49.74908       0.91612701    -111.97926     -6.6759643      171.83347    
   3775500   7551000        100.70234      3.8228937     -2340.36       -2347.238       1452.5447     -3799.7827      503.4153       528.19627      1550.5377      0             -6381.932       0              0             -202.08704      123365.4       49.781097      49.781097      49.781097      0.91436052    -303.50846      393.23998     -78.262834    
   3776000   7552000        100.8767       128.28674     -2081.9738     -2311.4873      1455.0597     -3766.547       506.9754       533.81114      1585.5256      0             -6392.8592      0              0             -203.22691      122673.46      49.68785       49.68785       49.68785       0.91951798    -47.521163     -206.88707      639.26847    
   3776500   7553000        98.673405      20.395424     -2324.1927     -2360.6677      1423.279      -3783.9467      491.73183      544.13869      1593.4798      0             -6413.2971      0              0             -203.30321      122627.42      49.681634      49.681634      49.681634      0.91986321    -215.95712      452.28405     -175.14065    
   3777000   7554000        99.975463     -246.70412     -2797.4497     -2353.7314      1442.0601     -3795.7915      492.63358      543.40869      1561.9506      0             -6393.7843      0              0             -202.15143      123326.11      49.775811      49.775811      49.775811      0.91465186    -188.91463     -808.72062      257.52288    
   3777500   7555000        98.080894     -150.76095     -2618.663      -2348.0953      1414.7325     -3762.8279      489.95934      542.07965      1579.4716      0             -6374.3384      0              0             -202.59125      123058.37      49.739765      49.739765      49.739765      0.91664184    -289.54824      344.36879     -507.10339    
   3778000   7556000        101.20153     -159.35765     -2617.396      -2331.4865      1459.745      -3791.2315      507.76196      531.50028      1565.0289      0             -6395.5226      0              0             -202.65255      123021.15      49.734748      49.734748      49.734748      0.91691923    -350.8723       131.60818     -258.80884    
   3778500   7557000        101.7861      -13.972372     -2327.153      -2302.0776      1468.177      -3770.2546      498.16065      547.86139      1571.6636      0             -6387.9402      0              0             -202.59566      123055.69      49.739403      49.739403      49.739403      0.91666182    -64.726676     -17.330456      40.140015    
   3779000   7558000        99.314652      122.55236     -2120.3435     -2340.1996      1432.5284     -3772.728       512.76385      546.19672      1561.2744      0             -6392.963       0              0             -202.67064      123010.17      49.733268      49.733268      49.733268      0.91700108     175.44316      189.892        2.3219103    
   3779500   7559000        100.58567     -38.831942     -2419.3164     -2349.539       1450.8617     -3800.4007      489.06423      536.39834      1560.7276      0             -6386.5909      0              0             -202.33997      123211.19      49.760346      49.760346      49.760346      0.91550494    -133.04739      139.01376     -122.4622     
   3780000   7560000        100.3759       93.862971     -2177.9683     -2345.5924      1447.8361     -3793.4284      514.64523      524.35556      1577.4728      0             -6409.902       0              0             -203.5944       122452.04      49.657937      49.657937      49.657937      0.92118068    -157.77432     -8.7032065      448.06644    
   3780500   7561000        99.066226      79.825933     -2215.1524     -2358.3847      1428.9451     -3787.3298      495.39188      554.09425      1574.1749      0             -6410.9909      0              0             -202.63331      123032.83      49.736323      49.736323      49.736323      0.91683216     261.56296     -53.453207      31.368044    
   3781000   7562000        100.47202      444.56814     -1527.5858     -2323.9101      1449.2224     -3773.1325      507.31886      536.13404      1577.9173      0             -6394.5027      0              0             -202.98134      122821.88      49.707881      49.707881      49.707881      0.91840685    -126.2636       924.94688      535.02113    
   3781500   7563000        100.26989      255.28306     -1928.2049     -2385.1646      1446.307      -3831.4715      489.24846      514.02557      1566.8775      0             -6401.623       0              0             -203.11962      122738.27      49.696598      49.696598      49.696598      0.9190325      172.18926      385.43379      208.22613    
   3782000   7564000        100.86105     -314.54556     -2915.0559     -2348.4451      1454.8339     -3803.279       484.97876      530.46763      1567.9412      0             -6386.6666      0              0             -201.83965      123516.61      49.801427      49.801427      49.801427      0.91324119    -64.363116     -555.96766     -323.30589    
   3782500   7565000        99.982395     -393.17934     -3035.5568     -2331.4995      1442.1601     -3773.6595      501.88367      535.0373       1581.5128      0             -6392.0933      0              0             -203.04411      122783.91      49.702758      49.702758      49.702758      0.91869086    -489.83057     -91.492994     -598.21444    
   3783000   7566000        100.08476      228.79571     -1950.5993     -2361.0891      1443.6366     -3804.7258      490.95182      523.18958      1570.8545      0             -6389.7216      0              0             -202.65309      123020.82      49.734704      49.734704      49.734704      0.91692166     238.70528      226.2718       221.41006    
   3783500   7567000        103.0116      -84.085312     -2454.6167     -2303.9118      1485.8537     -3789.7655      501.69542      539.16162      1564.1822      0             -6394.8048      0              0             -202.86182      122894.24      49.717641      49.717641      49.717641      0.91786609    -376.12981      123.61331      0.26057347   
   3784000   7568000        100.59706     -40.68869      -2423.9781     -2351.0798      1451.0261     -3802.1059      486.75334      554.41809      1560.6699      0             -6403.9472      0              0             -202.9381       122848.05      49.711411      49.711411      49.711411      0.91821121     92.051428     -0.57170215    -213.5458     
   3784500   7569000        100.60324      254.33383     -1896.9797     -2352.8302      1451.1152     -3803.9454      500.37184      529.40095      1565.0417      0             -6398.7599      0              0             -202.85674      122897.32      49.718056      49.718056      49.718056      0.91784309     475.67813      104.13741      183.18595    
   3785000   7570000        100.72561     -385.43275     -3037.2321     -2345.5164      1452.8803     -3798.3967      497.79179      536.80276      1563.2515      0             -6396.2428      0              0             -202.59501      123056.09      49.739456      49.739456      49.739456      0.91665888    -355.32218     -773.90621     -27.069873    
   3785500   7571000        97.836558      52.390509     -2288.5279     -2382.55        1411.2082     -3793.7582      496.54726      540.36967      1561.2135      0             -6391.8886      0              0             -202.59578      123055.62      49.739393      49.739393      49.739393      0.91666236     351.03855     -279.77399      85.90697     
   3786000   7572000        99.862275      38.574642     -2262.6251     -2331.8528      1440.4274     -3772.2802      492.2503       543.88587      1578.5716      0             -6386.988       0              0             -202.59554      123055.77      49.739414      49.739414      49.739414      0.91666125    -81.062075      58.675538      138.11046    
   3786500   7573000        101.57614     -202.84272     -2708.5725     -2343.7004      1465.1485     -3808.8489      492.05449      524.74259      1558.3509      0             -6383.9969      0              0             -202.128        123340.4       49.777734      49.777734      49.777734      0.91454586    -221.64687     -371.41144     -15.469854    
   3787000   7574000        101.00171      173.05476     -2014.0525     -2324.2772      1456.8627     -3781.1399      493.95416      550.94949      1573.1216      0             -6399.1652      0              0             -202.82191      122918.42      49.720901      49.720901      49.720901      0.91768552     80.482887      157.46706      281.21433    
   3787500   7575000        98.613288      149.5799      -2102.2944     -2369.9757      1422.4119     -3792.3876      501.57017      542.16669      1566.1522      0             -6402.2766      0              0             -203.17159      122706.87      49.69236       49.69236       49.69236       0.91926767     49.790777      235.71622      163.23271    
   3788000   7576000        100.61267      76.084976     -2172.6698     -2309.1998      1451.2512     -3760.4511      497.09276      543.10752      1574.4359      0             -6375.0873      0              0             -202.61822      123041.99      49.737558      49.737558      49.737558      0.91676387    -92.956921      422.65828     -101.44644    
   3788500   7577000        100.88693      209.59183     -1952.5002     -2328.1482      1455.2072     -3783.3554      497.66442      542.63943      1564.2948      0             -6387.9541      0              0             -202.86214      122894.05      49.717614      49.717614      49.717614      0.91786754     259.74702      360.02769      9.0007846    
   3789000   7578000        100.00744     -103.76958     -2533.5718     -2348.0424      1442.5213     -3790.5637      493.64421      544.74404      1569.9936      0             -6398.9455      0              0             -203.35976      122593.32      49.677028      49.677028      49.677028      0.92011907    -148.21664     -23.576878     -139.51522    
   3789500   7579000        100.52447      16.961115     -2307.5504     -2337.9267      1449.979      -3787.9057      500.91824      532.59681      1563.9009      0             -6385.3217      0              0             -203.0146       122801.76      49.705166      49.705166      49.705166      0.91855734    -79.903865     -80.164668      210.95188    
   3790000   7580000        98.110479     -31.551416     -2433.4105     -2376.7289      1415.1593     -3791.8882      489.39413      517.79459      1575.9357      0             -6375.0126      0              0             -202.38781      123182.07      49.756425      49.756425      49.756425      0.91572138    -240.94119     -75.643838      221.93078    
   3790500   7581000        98.755708     -61.330958     -2463.2422     -2352.98        1424.4661     -3777.4462      499.14324      536.26367      1566.8973      0             -6379.7504      0              0             -202.23728      123273.76      49.768767      49.768767      49.768767      0.91504028     144.35328      63.615437     -391.96159    
   3791000   7582000        100.26368     -226.60271     -2749.37       -2343.3127      1446.2174     -3789.53        498.6272       544.77848      1566.2775      0             -6399.2132      0              0             -202.9016       122870.15      49.714391      49.714391      49.714391      0.91804607    -514.65247     -82.30136      -82.854309    
   3791500   7583000        97.792219      36.636861     -2315.7424     -2381.4747      1410.5686     -3792.0433      510.23081      531.72912      1560.4907      0             -6394.494       0              0             -202.65037      123022.47      49.734927      49.734927      49.734927      0.91690936     229.27638     -401.0367       281.6709     
   3792000   7584000        103.70559      109.49375     -2086.5403     -2282.9256      1495.864      -3778.7895      508.51         531.22188      1567.035       0             -6385.5564      0              0             -202.71605      122982.61      49.729555      49.729555      49.729555      0.91720652    -10.961117      192.28325      147.15912    
   3792500   7585000        98.8124       -265.69697     -2821.6437     -2343.3249      1425.2839     -3768.6087      512.98841      531.93579      1559.9287      0             -6373.4617      0              0             -201.96534      123439.74      49.791094      49.791094      49.791094      0.9138099     -242.29677      15.446743     -570.24089    
   3793000   7586000        99.621849     -122.9458      -2574.6021     -2353.8517      1436.9595     -3790.8112      506.91167      522.12711      1562.8361      0             -6382.6861      0              0             -202.49768      123115.23      49.747424      49.747424      49.747424      0.91621851    -308.91296     -287.00881      227.08437    
   3793500   7587000        98.193658     -5.7735593     -2386.9025     -2376.5365      1416.3591     -3792.8955      499.12512      541.83115      1542.8959      0             -6376.7477      0              0             -202.50566      123110.39      49.746771      49.746771      49.746771      0.91625458    -720.59419      310.20435      393.06916    
   3794000   7588000        100.20591      72.039029     -2215.2982     -2344.3056      1445.384      -3789.6896      501.44354      532.24951      1575.0653      0             -6398.4479      0              0             -203.03045      122792.17      49.703873      49.703873      49.703873      0.91862904     67.283967      92.759767      56.073353    
   3794500   7589000        99.678257     -179.31387     -2682.2428     -2361.002       1437.7731     -3798.7752      496.93022      539.77397      1567.792       0             -6403.2714      0              0             -202.95089      122840.31      49.710367      49.710367      49.710367      0.91826907    -344.47196      15.81128      -209.28094    
   3795000   7590000        99.769485     -82.987673     -2464.9475     -2315.8711      1439.089      -3754.9601      507.67379      540.02282      1579.3966      0             -6382.0533      0              0             -202.40086      123174.13      49.755355      49.755355      49.755355      0.91578042    -157.1994      -233.65809      141.89447    
   3795500   7591000        100.13573      175.66125     -2012.9664     -2327.6332      1444.3718     -3772.0051      504.53394      537.96841      1583.394       0             -6397.9014      0              0             -202.97043      122828.48      49.708771      49.708771      49.708771      0.91835751     330.1301       140.49199      56.361661    
   3796000   7592000        100.6454      -166.84944     -2622.0734     -2322.543       1451.7233     -3774.2663      503.51149      553.96589      1568.1967      0             -6399.9404      0              0             -202.53105      123094.95      49.744692      49.744692      49.744692      0.9163695     -492.05292     -190.21418      181.71879    
   3796500   7593000        99.856406      138.88193     -2094.7642     -2343.835       1440.3428     -3784.1778      502.82534      542.92942      1564.2003      0             -6394.1328      0              0             -202.73594      122970.55      49.727929      49.727929      49.727929      0.9172965      3.979303       221.87216      190.79432    
   3797000   7594000        101.46852      238.73834     -1867.2709     -2294.5088      1463.5961     -3758.1049      517.29726      547.34763      1575.0086      0             -6397.7583      0              0             -203.17027      122707.66      49.692468      49.692468      49.692468      0.9192617      403.40725     -186.44939      499.25715    
   3797500   7595000        99.107024     -0.49754856    -2333.6058     -2332.712       1429.5336     -3762.2456      505.13897      549.06775      1571.3107      0             -6387.763       0              0             -202.4042       123172.09      49.755081      49.755081      49.755081      0.91579555    -265.23728      289.15055     -25.405909    
   3798000   7596000        100.65749      2.0065307     -2309.331      -2312.921       1451.8976     -3764.8186      504.42889      547.95723      1587.403       0             -6404.6078      0              0             -203.21956      122677.91      49.68845       49.68845       49.68845       0.91948469    -202.39359      18.54534       189.86785    
   3798500   7597000        100.33326      140.02588     -2092.8491     -2343.4008      1447.221      -3790.6218      503.05065      547.10992      1565.9866      0             -6406.7689      0              0             -203.19763      122691.14      49.690237      49.690237      49.690237      0.91938547     129.98038      73.318638      216.77862    
   3799000   7598000        100.27048     -208.26486     -2727.4273     -2353.5981      1446.3154     -3799.9135      506.20637      536.64721      1553.1619      0             -6395.929       0              0             -202.55855      123078.24      49.742441      49.742441      49.742441      0.91649389    -33.42759      -469.32877     -122.03822    
   3799500   7599000        99.819275     -103.47115     -2524.2743     -2338.4475      1439.8072     -3778.2547      504.63455      547.13526      1560.2488      0             -6390.2734      0              0             -202.45046      123143.95      49.751292      49.751292      49.751292      0.91600485    -391.11708      74.496896      6.2067271    
   3800000   7600000        101.28859     -178.39176     -2665.8327     -2344.9934      1461.0007     -3805.9941      489.62121      535.88173      1557.4425      0             -6388.9395      0              0             -202.15986      123320.97      49.775119      49.775119      49.775119      0.91469       -272.49062      16.877742     -279.56239    
Loop time of 231.973 on 2 procs for 200000 steps with 4840 atoms

Performance: 148.983 ns/day, 0.161 hours/ns, 862.170 timesteps/s, 4.173 Matom-step/s
94.9% CPU use with 2 MPI tasks x 1 OpenMP threads

MPI task timing breakdown:
Section |  min time  |  avg time  |  max time  |%varavg| %total
---------------------------------------------------------------
Pair    | 54.609     | 84.014     | 113.42     | 320.8 | 36.22
Bond    | 70.592     | 70.815     | 71.039     |   2.7 | 30.53
Neigh   | 0.01088    | 0.011286   | 0.011692   |   0.4 |  0.00
Comm    | 23.55      | 23.632     | 23.715     |   1.7 | 10.19
Output  | 0.021207   | 0.027194   | 0.033182   |   3.6 |  0.01
Modify  | 19.323     | 48.549     | 77.775     | 419.5 | 20.93
Other   |            | 4.924      |            |       |  2.12

Nlocal:           2420 ave        2427 max        2413 min
Histogram: 1 0 0 0 0 0 0 0 0 1
Nghost:        12539.5 ave       12541 max       12538 min
Histogram: 1 0 0 0 0 0 0 0 0 1
Neighs:              0 ave           0 max           0 min
Histogram: 2 0 0 0 0 0 0 0 0 0

Total # of neighbors = 0
Ave neighs/atom = 0
Ave special neighs/atom = 5.9504132
Neighbor list builds = 2112
Dangerous builds = 0
  unfix npt_tg
  print "STAGE COMPLETE: Tg step T=${temps}K P=1.0atm steps=200000"
STAGE COMPLETE: Tg step T=100K P=1.0atm steps=200000
  next temps
  jump SELF TEMP_LOOP

write_data tg_step_out.data
System init for write_data ...
Generated 1 of 1 mixed pair_coeff terms from arithmetic mixing rule
Total wall time: 1:14:12
