units real
atom_style full
boundary p p p

# --- Force Field Styles ---
pair_style lj/class2/coul/long 9.5 9.5
kspace_style pppm 1e-6
dielectric 1.000000
bond_style class2
angle_style class2
dihedral_style class2
improper_style class2
special_bonds lj/coul 0 0 1
pair_modify mix sixthpower tail yes
neighbor 2.0 bin
neigh_modify delay 0 every 1 check yes
neigh_modify one 4000
# KOKKOS: package loaded via -pk kokkos on the command line

read_data /home/arz2/PolyJarvis/data/PEEK3/lammps/npt_compress/npt_compress_out.data
Reading data file ...
  orthogonal box = (7.1473105 7.1473105 7.1473105) to (49.908218 49.908218 49.908218)
  1 by 1 by 1 MPI processor grid
WARNING: Pair style lj/class2/coul/cut/kk in data file differs from currently defined pair style lj/class2/coul/long/kk (src/read_data.cpp:811)
  reading atoms ...
  8720 atoms
  reading velocities ...
  8720 velocities
  scanning bonds ...
  3 = max bonds/atom
  scanning angles ...
  9 = max angles/atom
  scanning dihedrals ...
  18 = max dihedrals/atom
  scanning impropers ...
  4 = max impropers/atom
  orthogonal box = (7.1473105 7.1473105 7.1473105) to (49.908218 49.908218 49.908218)
  1 by 1 by 1 MPI processor grid
  reading bonds ...
  9480 bonds
  reading angles ...
  15104 angles
  reading dihedrals ...
  22512 dihedrals
  reading impropers ...
  4864 impropers
Finding 1-2 1-3 1-4 neighbors ...
  special bond factors lj:    0        0        1       
  special bond factors coul:  0        0        1       
     3 = max # of 1-2 neighbors
     6 = max # of 1-3 neighbors
     9 = max # of special neighbors
  special bonds CPU = 0.004 seconds
  read_data CPU = 0.330 seconds
include /home/arz2/PolyJarvis/data/PEEK3/lammps/cell/emc_build.params
# LAMMPS parameters created by EMC v9.4.4, build Jul 31 2025 20:33:44

# Variables

variable	seed		index	481572
variable	ntotal		index	8720
variable	fshape		index	1
variable	output		index	emc_build
variable	field		index	pcff/pcff
variable	location1	index	/home/arz2/emc/field/
variable	nav		index	0.6022141179
variable	temperature	index	300
variable	radius		index	5
variable	nrelax		index	100
variable	weight_nonbond	index	0.0001
variable	weight_bond	index	0.0001
variable	weight_focus	index	1
variable	cutoff		index	9.5
variable	charge_cutoff	index	9.5
variable	kappa		index	4
variable	density1	index	0.66
variable	lprevious	index	0
variable	lphase		index	57.0555285531
variable	f_poly		index	8
variable	chem_repeat	index	*Oc1ccc(Oc2ccc(C(=O)c3ccc(cc3)*)cc2)cc1
variable	chem_cap	index	*[H]
variable	lg_repeat	index	34
variable	lg_cap		index	1
variable	norm_poly	index	100
variable	l_poly		index	1090
variable	mg_repeat	index	260.29514
variable	mg_cap		index	0
variable	m_poly		index	8329.44448
variable	n_poly		index	8
variable	mtotal		index	73822.38416
variable	nphase1		index	8720
variable	mphase1		index	73822.38416
variable	vphase1		index	185734.764243
variable	lbox		index	57.0555285531
variable	lphase1		index	57.0555285531
variable	lxx		index	57.0555285531
variable	lyy		index	57.0555285531
variable	lzz		index	57.0555285531
variable	lzy		index	0
variable	lzx		index	0
variable	lyx		index	0
variable	vtotal		index	185734.764243
variable	nl_poly		index	8

# Types

variable	type_c_0	index	1
variable	type_cp		index	2
variable	type_hc		index	3
variable	type_ho		index	4
variable	type_o_1	index	5
variable	type_oc		index	6
variable	type_oh		index	7

variable	type_bond_c_0_cp index	1
variable	type_bond_c_0_o_1 index	2
variable	type_bond_cp_cp	index	3
variable	type_bond_cp_hc	index	4
variable	type_bond_cp_oc	index	5
variable	type_bond_cp_oh	index	6
variable	type_bond_ho_oh	index	7

variable	type_angle_c_0_cp_cp index	1
variable	type_angle_cp_c_0_cp index	2
variable	type_angle_cp_c_0_o_1 index	3
variable	type_angle_cp_cp_cp index	4
variable	type_angle_cp_cp_hc index	5
variable	type_angle_cp_cp_oc index	6
variable	type_angle_cp_cp_oh index	7
variable	type_angle_cp_oc_cp index	8
variable	type_angle_cp_oh_ho index	9

# Clusters

variable	n0_poly		index	1
variable	n1_poly		index	8
variable	nl_poly		index	8

# Flags

variable	flag_charged	index	1

# Masses

mass		1    12.01115  # c_0
mass		2    12.01115  # cp
mass		3     1.00797  # hc
mass		4     1.00797  # ho
mass		5    15.99940  # o_1
mass		6    15.99940  # oc
mass		7    15.99940  # oh

# Potentials

pair_modify	mix sixthpower tail yes
special_bonds	lj/coul 0 0 1

# Pair Coeffs

pair_coeff	 1  1    0.12000    3.30800  # c_0,c_0
pair_coeff	 2  2    0.06400    4.01000  # cp,cp
pair_coeff	 3  3    0.02000    2.99500  # hc,hc
pair_coeff	 4  4    0.01300    1.09800  # ho,ho
pair_coeff	 5  5    0.26700    3.30000  # o_1,o_1
pair_coeff	 6  6    0.24000    3.53500  # oc,oc
pair_coeff	 7  7    0.24000    3.53500  # oh,oh

# Bond Coeffs

bond_coeff	1    1.48900  339.35740 -655.72360  670.23620  # c_0,cp
bond_coeff	2    1.21600  823.79480 -1878.79400 2303.53110  # c_0,o_1
bond_coeff	3    1.41700  470.83610 -627.61790 1327.63450  # cp,cp
bond_coeff	4    1.09820  372.82510 -803.45260  894.31730  # cp,hc
bond_coeff	5    1.37680  428.87980 -738.23510 1114.96550  # cp,oc
bond_coeff	6    1.37680  428.87980 -738.23510 1114.96550  # cp,oh
bond_coeff	7    0.96500  532.50620 -1282.90500 2004.76580  # ho,oh

# Angle Coeffs

angle_coeff	1  108.40000   43.95940   -8.39240   -9.33790  # c_0,cp,cp
angle_coeff	2  110.58840   34.62140   -7.09390   -7.40320  # cp,c_0,cp
angle_coeff	3  119.30000   65.10160  -17.97660    0.00000  # cp,c_0,o_1
angle_coeff	4  118.90000   61.02260  -34.99310    0.00000  # cp,cp,cp
angle_coeff	5  117.94000   35.15580  -12.46820    0.00000  # cp,cp,hc
angle_coeff	6  123.42000   73.67810  -21.67870    0.00000  # cp,cp,oc
angle_coeff	7  123.42000   73.67810  -21.67870    0.00000  # cp,cp,oh
angle_coeff	8  109.50000   60.00000    0.00000    0.00000  # cp,oc,cp
angle_coeff	9  108.19000   53.12500   -8.50160    0.00000  # cp,oh,ho

# BondBond Coeffs

angle_coeff	1 bb    0.00000    1.48900    1.41700  # c_0,cp,cp
angle_coeff	2 bb    0.00000    1.48900    1.48900  # cp,c_0,cp
angle_coeff	3 bb    0.00000    1.48900    1.21600  # cp,c_0,o_1
angle_coeff	4 bb   68.28560    1.41700    1.41700  # cp,cp,cp
angle_coeff	5 bb    1.07950    1.41700    1.09820  # cp,cp,hc
angle_coeff	6 bb   48.47540    1.41700    1.37680  # cp,cp,oc
angle_coeff	7 bb   48.47540    1.41700    1.37680  # cp,cp,oh
angle_coeff	8 bb    0.00000    1.37680    1.37680  # cp,oc,cp
angle_coeff	9 bb   20.65770    1.37680    0.96500  # cp,oh,ho

# BondAngle Coeffs

angle_coeff	1 ba    0.00000    0.00000    1.48900    1.41700  # c_0,cp,cp
angle_coeff	2 ba    0.00000    0.00000    1.48900    1.48900  # cp,c_0,cp
angle_coeff	3 ba    0.00000    0.00000    1.48900    1.21600  # cp,c_0,o_1
angle_coeff	4 ba   28.87080   28.87080    1.41700    1.41700  # cp,cp,cp
angle_coeff	5 ba   20.00330   24.21830    1.41700    1.09820  # cp,cp,hc
angle_coeff	6 ba   58.47900  107.68060    1.41700    1.37680  # cp,cp,oc
angle_coeff	7 ba   58.47900  107.68060    1.41700    1.37680  # cp,cp,oh
angle_coeff	8 ba    0.00000    0.00000    1.37680    1.37680  # cp,oc,cp
angle_coeff	9 ba   53.86140   23.92240    1.37680    0.96500  # cp,oh,ho

# Dihedral Coeffs

dihedral_coeff	 1    0.00000    0.00000    4.62820    0.00000    0.00000    0.00000  # c_0,cp,cp,cp
dihedral_coeff	 2    0.00000    0.00000    2.16700    0.00000    0.00000    0.00000  # c_0,cp,cp,hc
dihedral_coeff	 3    0.00000    0.00000    2.50000    0.00000    0.00000    0.00000  # cp,c_0,cp,cp
dihedral_coeff	 4    0.00000    0.00000    0.90630    0.00000    0.00000    0.00000  # cp,cp,c_0,o_1
dihedral_coeff	 5    8.36670    0.00000    1.19320    0.00000    0.00000    0.00000  # cp,cp,cp,cp
dihedral_coeff	 6    0.00000    0.00000    3.96610    0.00000    0.00000    0.00000  # cp,cp,cp,hc
dihedral_coeff	 7    0.00000    0.00000    4.84980    0.00000    0.00000    0.00000  # cp,cp,cp,oc
dihedral_coeff	 8    0.00000    0.00000    4.84980    0.00000    0.00000    0.00000  # cp,cp,cp,oh
dihedral_coeff	 9    0.00000    0.00000    1.80000    0.00000    0.00000    0.00000  # cp,cp,oc,cp
dihedral_coeff	10   -0.69000    0.00000    0.50970    0.00000    0.00950    0.00000  # cp,cp,oh,ho
dihedral_coeff	11    0.00000    0.00000    1.87690    0.00000    0.00000    0.00000  # hc,cp,cp,hc
dihedral_coeff	12    0.00000    0.00000    1.72340    0.00000    0.00000    0.00000  # hc,cp,cp,oc
dihedral_coeff	13    0.00000    0.00000    1.72340    0.00000    0.00000    0.00000  # hc,cp,cp,oh

# MiddleBondTorsion Coeffs

dihedral_coeff	 1 mbt    0.00000    0.00000    0.00000    1.41700  # c_0,cp,cp,cp
dihedral_coeff	 2 mbt    0.00000    0.00000    0.00000    1.41700  # c_0,cp,cp,hc
dihedral_coeff	 3 mbt    0.00000    0.00000    0.00000    1.48900  # cp,c_0,cp,cp
dihedral_coeff	 4 mbt    0.00000    0.00000    0.00000    1.48900  # cp,cp,c_0,o_1
dihedral_coeff	 5 mbt   27.59890   -2.31200    0.00000    1.41700  # cp,cp,cp,cp
dihedral_coeff	 6 mbt    0.00000   -1.15210    0.00000    1.41700  # cp,cp,cp,hc
dihedral_coeff	 7 mbt    0.00000    4.82550    0.00000    1.41700  # cp,cp,cp,oc
dihedral_coeff	 8 mbt    0.00000    4.82550    0.00000    1.41700  # cp,cp,cp,oh
dihedral_coeff	 9 mbt    0.00000    0.00000    0.00000    1.37680  # cp,cp,oc,cp
dihedral_coeff	10 mbt    1.15800    3.26970    3.51320    1.37680  # cp,cp,oh,ho
dihedral_coeff	11 mbt    0.00000    4.82280    0.00000    1.41700  # hc,cp,cp,hc
dihedral_coeff	12 mbt    0.00000    5.54320    0.00000    1.41700  # hc,cp,cp,oc
dihedral_coeff	13 mbt    0.00000    5.54320    0.00000    1.41700  # hc,cp,cp,oh

# EndBondTorsion Coeffs

dihedral_coeff	 1 ebt    0.00000    0.00000    0.00000    0.00000    0.00000    0.00000    1.48900    1.41700  # c_0,cp,cp,cp
dihedral_coeff	 2 ebt    0.00000    0.00000    0.00000    0.00000    0.00000    0.00000    1.48900    1.09820  # c_0,cp,cp,hc
dihedral_coeff	 3 ebt    0.00000    0.00000    0.00000    0.00000    0.00000    0.00000    1.48900    1.41700  # cp,c_0,cp,cp
dihedral_coeff	 4 ebt    0.00000    0.00000    0.00000    0.00000    0.00000    0.00000    1.41700    1.21600  # cp,cp,c_0,o_1
dihedral_coeff	 5 ebt   -0.11850    6.32040    0.00000   -0.11850    6.32040    0.00000    1.41700    1.41700  # cp,cp,cp,cp
dihedral_coeff	 6 ebt    0.00000   -6.89580    0.00000    0.00000   -0.46690    0.00000    1.41700    1.09820  # cp,cp,cp,hc
dihedral_coeff	 7 ebt    0.00000    0.26550    0.00000    0.00000    4.89050    0.00000    1.41700    1.37680  # cp,cp,cp,oc
dihedral_coeff	 8 ebt    0.00000    0.26550    0.00000    0.00000    4.89050    0.00000    1.41700    1.37680  # cp,cp,cp,oh
dihedral_coeff	 9 ebt    0.00000    0.00000    0.00000    0.00000    0.00000    0.00000    1.41700    1.37680  # cp,cp,oc,cp
dihedral_coeff	10 ebt    0.90000   -1.34560    1.19000    3.41320    0.58730   -0.13230    1.41700    0.96500  # cp,cp,oh,ho
dihedral_coeff	11 ebt    0.00000   -0.68900    0.00000    0.00000   -0.68900    0.00000    1.09820    1.09820  # hc,cp,cp,hc
dihedral_coeff	12 ebt    0.00000   -1.58670    0.00000    0.00000    4.26410    0.00000    1.09820    1.37680  # hc,cp,cp,oc
dihedral_coeff	13 ebt    0.00000   -1.58670    0.00000    0.00000    4.26410    0.00000    1.09820    1.37680  # hc,cp,cp,oh

# AngleTorsion Coeffs

dihedral_coeff	 1 at    0.00000    0.00000    0.00000    0.00000    0.00000    0.00000  108.40000  118.90000  # c_0,cp,cp,cp
dihedral_coeff	 2 at    0.00000    0.00000    0.00000    0.00000    0.00000    0.00000  108.40000  117.94000  # c_0,cp,cp,hc
dihedral_coeff	 3 at    0.00000    0.00000    0.00000    0.00000    0.00000    0.00000  110.58840  108.40000  # cp,c_0,cp,cp
dihedral_coeff	 4 at    0.00000    0.00000    0.00000    0.00000    0.00000    0.00000  108.40000  119.30000  # cp,cp,c_0,o_1
dihedral_coeff	 5 at    1.97670    1.02390    0.00000    1.97670    1.02390    0.00000  118.90000  118.90000  # cp,cp,cp,cp
dihedral_coeff	 6 at    0.00000    2.50140    0.00000    0.00000    2.71470    0.00000  118.90000  117.94000  # cp,cp,cp,hc
dihedral_coeff	 7 at    0.00000   10.01550    0.00000    0.00000    1.74040    0.00000  118.90000  123.42000  # cp,cp,cp,oc
dihedral_coeff	 8 at    0.00000   10.01550    0.00000    0.00000    1.74040    0.00000  118.90000  123.42000  # cp,cp,cp,oh
dihedral_coeff	 9 at    0.00000    0.00000    0.00000    0.00000    0.00000    0.00000  123.42000  109.50000  # cp,cp,oc,cp
dihedral_coeff	10 at   -5.13600   -1.01220    0.00000    4.68520    0.02300   -0.59800  123.42000  108.19000  # cp,cp,oh,ho
dihedral_coeff	11 at    0.00000    2.45010    0.00000    0.00000    2.45010    0.00000  117.94000  117.94000  # hc,cp,cp,hc
dihedral_coeff	12 at    0.00000    1.87290    0.00000    0.00000    2.57060    0.00000  117.94000  123.42000  # hc,cp,cp,oc
dihedral_coeff	13 at    0.00000    1.87290    0.00000    0.00000    2.57060    0.00000  117.94000  123.42000  # hc,cp,cp,oh

# AngleAngleTorsion Coeffs

dihedral_coeff	 1 aat    0.00000  108.40000  118.90000  # c_0,cp,cp,cp
dihedral_coeff	 2 aat    0.00000  108.40000  117.94000  # c_0,cp,cp,hc
dihedral_coeff	 3 aat    0.00000  110.58840  108.40000  # cp,c_0,cp,cp
dihedral_coeff	 4 aat    0.00000  108.40000  119.30000  # cp,cp,c_0,o_1
dihedral_coeff	 5 aat    0.00000  118.90000  118.90000  # cp,cp,cp,cp
dihedral_coeff	 6 aat   -4.81410  118.90000  117.94000  # cp,cp,cp,hc
dihedral_coeff	 7 aat  -21.02470  118.90000  123.42000  # cp,cp,cp,oc
dihedral_coeff	 8 aat  -21.02470  118.90000  123.42000  # cp,cp,cp,oh
dihedral_coeff	 9 aat    0.00000  123.42000  109.50000  # cp,cp,oc,cp
dihedral_coeff	10 aat   -4.60720  123.42000  108.19000  # cp,cp,oh,ho
dihedral_coeff	11 aat    0.35980  117.94000  117.94000  # hc,cp,cp,hc
dihedral_coeff	12 aat    4.22960  117.94000  123.42000  # hc,cp,cp,oc
dihedral_coeff	13 aat    4.22960  117.94000  123.42000  # hc,cp,cp,oh

# BondBond13 Coeffs

dihedral_coeff	 1 bb13    0.00000    1.48900    1.41700  # c_0,cp,cp,cp
dihedral_coeff	 2 bb13    0.00000    1.48900    1.09820  # c_0,cp,cp,hc
dihedral_coeff	 3 bb13    0.00000    1.48900    1.41700  # cp,c_0,cp,cp
dihedral_coeff	 4 bb13    0.00000    1.41700    1.21600  # cp,cp,c_0,o_1
dihedral_coeff	 5 bb13   53.00000    1.41700    1.41700  # cp,cp,cp,cp
dihedral_coeff	 6 bb13   -6.27410    1.41700    1.09820  # cp,cp,cp,hc
dihedral_coeff	 7 bb13   -2.24360    1.41700    1.37680  # cp,cp,cp,oc
dihedral_coeff	 8 bb13   -2.24360    1.41700    1.37680  # cp,cp,cp,oh
dihedral_coeff	 9 bb13    0.00000    1.41700    1.37680  # cp,cp,oc,cp
dihedral_coeff	10 bb13    1.15900    1.41700    0.96500  # cp,cp,oh,ho
dihedral_coeff	11 bb13   -1.70770    1.09820    1.09820  # hc,cp,cp,hc
dihedral_coeff	12 bb13    2.05170    1.09820    1.37680  # hc,cp,cp,oc
dihedral_coeff	13 bb13    2.05170    1.09820    1.37680  # hc,cp,cp,oh

# Improper Coeffs

improper_coeff	1   38.79490    0.00000  # c_0,cp,cp,o_1
improper_coeff	2    0.00000    0.00000  # cp,c_0,cp,cp
improper_coeff	3    4.89120    0.00000  # cp,cp,cp,hc
improper_coeff	4   13.04210    0.00000  # cp,cp,cp,oc
improper_coeff	5   13.04210    0.00000  # cp,cp,cp,oh

# AngleAngle Coeffs

improper_coeff	1 aa    0.00000    0.00000    0.00000  110.58840  119.30000  119.30000  # c_0,cp,cp,o_1
improper_coeff	2 aa    0.00000    0.00000    0.00000  108.40000  108.40000  118.90000  # cp,c_0,cp,cp
improper_coeff	3 aa    0.00000    0.00000    0.00000  118.90000  117.94000  117.94000  # cp,cp,cp,hc
improper_coeff	4 aa    0.00000    0.00000    0.00000  118.90000  123.42000  123.42000  # cp,cp,cp,oc
improper_coeff	5 aa    0.00000    0.00000    0.00000  118.90000  123.42000  123.42000  # cp,cp,cp,oh


# --- Thermo Output ---
thermo_style custom step time temp press enthalpy etotal ke pe ebond eangle edihed eimp evdwl ecoul elong etail vol lx ly lz density pxx pyy pzz
thermo_modify flush yes
thermo 1000

# --- Trajectory ---
dump dump_npt all custom 1000 npt_pppm.dump id type mol x y z ix iy iz vx vy vz

# --- Restart Checkpointing ---
restart 10000 npt_1.rst npt_2.rst

# --- Initial Velocities (optional) ---
# Velocities read from data file

# --- SHAKE Constraints ---
# SHAKE disabled

# --- NPT Thermostat + Barostat (Nose-Hoover) ---
# T_damp = 100.0 fs  (heat bath coupling)
# P_damp = 1000.0 fs  (pressure bath coupling, ~10x T_damp typical)
# Ramp: T=850.0->850.0K  P=50000.0->1.0atm
timestep 1.0
fix npt_fix all npt temp 850.0 850.0 100.0 iso 50000.0 1.0 1000.0

run 500000
PPPM Kokkos initialization ...
  using 12-bit tables for long-range coulomb
  G vector (1/distance) = 0.31447566
  grid = 36 36 36
  stencil order = 5
  estimated absolute RMS force accuracy = 0.00028628563
  estimated relative force accuracy = 8.6214066e-07
  using double precision cuFFT
  3d grid and FFT values/proc = 79507 46656
Generated 21 of 21 mixed pair_coeff terms from sixthpower/sixthpower mixing rule
Neighbor list info ...
  update: every = 1 steps, delay = 0 steps, check = yes
  max neighbors/atom: 4000, page size: 100000
  master list distance cutoff = 11.5
  ghost atom cutoff = 11.5
  binsize = 11.5, bins = 4 4 4
  1 neighbor lists, perpetual/occasional/extra = 1 0 0
  (1) pair lj/class2/coul/long/kk, perpetual
      attributes: full, newton off, kokkos_device
      pair build: full/bin/kk/device
      stencil: full/bin/3d
      bin: kk/device
Per MPI rank memory allocation (min/avg/max) = 39.35 | 39.35 | 39.35 Mbytes
   Step          Time           Temp          Press         Enthalpy        TotEng         KinEng         PotEng         E_bond        E_angle        E_dihed        E_impro         E_vdwl         E_coul         E_long         E_tail         Volume           Lx             Ly             Lz          Density          Pxx            Pyy            Pzz      
         0   0              846.4056       50863.067      117567.54      59568.716      21997.813      37570.903      9421.0982      9326.2983      9411.9827      1246.2208      2774.1084      16016.036     -10624.841     -1028.136       78188.115      42.760908      42.760908      42.760908      1.5678207      51721.99       52438.349      48428.862    
      1000   1000           847.42199      49122.13       115831.06      59623.073      22024.229      37598.845      9377.2171      9290.1732      9524.8767      1290.5084      2699.1472      16039.11      -10622.188     -1024.5811      78459.394      42.810304      42.810304      42.810304      1.5623998      48220.751      51592.881      47552.758    
      2000   2000           860.15704      47765.929      114437.22      59700.131      22355.209      37344.922      9388.5221      9088.3789      9574.7705      1263.45        2649.997       16007.459     -10627.655     -1023.0662      78575.576      42.831425      42.831425      42.831425      1.5600896      48106.242      47378.382      47813.164    
      3000   3000           850.50051      49770.945      116616.91      59806.443      22104.238      37702.204      9455.8677      9397.2385      9394.6144      1291.773       2781.2764      16002.236     -10620.801     -1027.1046      78266.625      42.775215      42.775215      42.775215      1.566248       51769.733      46589.527      50953.574    
      4000   4000           850.08395      46518.069      112993.47      59731.37       22093.412      37637.958      9204.3526      9558.7003      9716.6577      1222.5815      2549.0799      16019.253     -10632.667     -1023.9308      78509.223      42.819365      42.819365      42.819365      1.5614082      45789.92       46819.069      46945.219    
      5000   5000           857.27278      49267.012      116492.45      60130.724      22280.248      37850.477      9346.633       9388.5801      9605.1922      1252.0784      2897.519       15991.011     -10630.537     -1024.8         78442.637      42.807257      42.807257      42.807257      1.5627336      50113.015      50616.436      47071.583    
      6000   6000           840.54222      45991.329      112112.91      59476.683      21845.426      37631.257      9326.6043      9344.4601      9599.4096      1232.3105      2763.4351      15998.376     -10633.338     -1024.3736      78475.284      42.813194      42.813194      42.813194      1.5620834      47599.747      43707.521      46666.718    
      7000   7000           853.93773      51128.944      118612.89      60111.853      22193.571      37918.282      9639.5036      9322.4131      9546.5782      1254.6618      2750.4281      16027.176     -10622.479     -1024.6379      78455.045      42.809513      42.809513      42.809513      1.5624864      51738.701      50874.333      50773.799    
      8000   8000           849.59283      46220.534      112694.5       59687.858      22080.648      37607.209      9402.3352      9453.0977      9465.9731      1261.2384      2678.9438      15975.562     -10629.94      -1022.2846      78635.646      42.842337      42.842337      42.842337      1.5588979      47624.535      43775.931      47261.136    
      9000   9000           843.82426      51569.222      118686.1       59797.603      21930.725      37866.879      9445.118       9383.8758      9580.9377      1229.2378      2841.6536      16016.22      -10630.164     -1026.6616      78300.4        42.781367      42.781367      42.781367      1.5655724      51412.563      50901.362      52393.742    
     10000   10000          858.61305      50831.596      118184.27      59906.243      22315.081      37591.163      9435.1276      9487.153       9380.0931      1294.0733      2641.1939      15989.013     -10635.491     -1022.5772      78613.149      42.838251      42.838251      42.838251      1.559344       51471.516      50935.453      50087.818    
     11000   11000          839.40306      47024.871      113355.9       59221.914      21815.819      37406.095      9532.374       9310.683       9447.8738      1286.2843      2467.9361      15986.086     -10625.142     -1018.415       78934.432      42.89653       42.89653       42.89653       1.5529971      47911.396      46015.068      47148.149    
     12000   12000          842.71044      48959.36       115837.26      59853.921      21901.777      37952.144      9496.9         9421.0625      9676.4226      1261.7189      2725.6101      16004.449     -10634.02      -1025.2838      78405.623      42.800522      42.800522      42.800522      1.5634713      50267.031      48323.784      48287.265    
     13000   13000          844.11916      49470.884      116126.36      59232.472      21938.389      37294.082      9382.7781      9198.6803      9437.4604      1305.9974      2579.2569      16019.139     -10629.23      -1019.4154      78856.971      42.882493      42.882493      42.882493      1.5545226      48775.257      50500.333      49137.063    
     14000   14000          842.42687      45910.113      112371.4       59561.448      21894.407      37667.041      9312.7315      9431.9834      9583.7967      1287.1646      2675.2971      16010.84      -10634.772     -1019.2009      78873.57       42.885502      42.885502      42.885502      1.5541954      45891.656      42908.167      48930.517    
     15000   15000          854.30728      48685.951      115196.85      59255.839      22203.175      37052.664      9241.9562      9242.8469      9401.1504      1283.1797      2491.4764      16015.749     -10623.695     -1020.3298      78786.305      42.86968       42.86968       42.86968       1.5559169      48023.78       48089.492      49944.582    
     16000   16000          857.28314      47794.542      114722.56      59569.811      22280.517      37289.294      9375.6813      9479.8555      9341.3451      1248.4246      2469.6252      16008.413     -10634.051     -1015.9639      79124.868      42.931         42.931         42.931         1.5492594      47292.193      46161.831      49929.603    
     17000   17000          853.01572      46955.431      113305.15      59532.686      22169.608      37363.078      9282.1121      9332.6266      9415.7562      1213.6861      2763.0391      15986.695     -10630.837     -1023.7481      78523.238      42.821913      42.821913      42.821913      1.5611295      49116.437      47529.244      44220.611    
     18000   18000          856.93401      48621.972      115790.63      59923.204      22271.443      37651.761      9381.7455      9548.325       9431.3804      1294.7466      2638.3912      15991.818     -10634.645     -1020.3311      78786.206      42.869662      42.869662      42.869662      1.5559188      50907.128      47161.463      47797.325    
     19000   19000          847.86468      50820.153      117886.17      59483.928      22035.734      37448.194      9163.9705      9387.7099      9503.0686      1248.5386      2727.9559      16047.337     -10630.387     -1020.1726      78798.443      42.871882      42.871882      42.871882      1.5556772      48432.324      52518.491      51509.644    
     20000   20000          852.1541       47695.749      114302.28      59449.883      22147.215      37302.668      9304.3427      9230.6528      9571.3726      1277.1011      2551.8248      15998.212     -10630.838     -1019.4155      78856.965      42.882492      42.882492      42.882492      1.5545227      48226.941      47308.983      47551.324    
     21000   21000          850.04364      46059.345      112789.62      59835.561      22092.364      37743.197      9578.7786      9360.9228      9564.8571      1290.7728      2591.7473      15979.489     -10623.37      -1019.7312      78832.553      42.878067      42.878067      42.878067      1.5550041      42684.629      48261.407      47232        
     22000   22000          855.7606       48990.652      116095.83      59794.276      22240.947      37553.329      9448.0381      9503.0152      9364.9517      1242.4057      2601.8357      16022.787     -10629.704     -1020.1406      78800.913      42.87233       42.87233       42.87233       1.5556284      46015          51361.849      49595.107    
     23000   23000          853.87008      47538.943      114221.26      59577.471      22191.813      37385.658      9439.5397      9469.1208      9352.0673      1247.2962      2499.3326      16005.317     -10627.015     -1019.943       78816.183      42.875099      42.875099      42.875099      1.5553271      49350.5        48654.524      44611.804    
     24000   24000          857.75345      47955.506      114784.54      59541.459      22292.74       37248.719      9462.8799      9181.1875      9447.8201      1279.9991      2510.656       15995.239     -10629.062     -1017.7187      78988.439      42.906311      42.906311      42.906311      1.5519352      50850.144      47285.287      45731.088    
     25000   25000          849.44021      50659.174      118136.3       59988.515      22076.682      37911.833      9638.6409      9390.8344      9493.6101      1230.1917      2797.7252      15991.908     -10631.077     -1021.3913      78704.426      42.854824      42.854824      42.854824      1.5575356      49376.774      51719.982      50880.765    
     26000   26000          839.96073      47437.274      113952.47      59236.786      21830.313      37406.473      9462.0543      9462.3842      9340.0787      1236.9975      2524.9875      16013.73      -10633.76      -1016.4243      79089.032      42.924517      42.924517      42.924517      1.5499613      48873.353      47180.248      46258.22     
     27000   27000          849.93649      49861.628      116968.27      59672.225      22089.58       37582.645      9398.4323      9310.304       9577.4597      1263.2829      2625.4459      16031.207     -10623.487     -1020.2557      78792.028      42.870718      42.870718      42.870718      1.5558039      50738.568      49304.346      49541.97     
     28000   28000          842.84019      45191.508      111276.34      59253.287      21905.149      37348.137      9403.698       9283.672       9652.3907      1233.3938      2415.8376      15985.064     -10625.919     -1018.423       78933.813      42.896418      42.896418      42.896418      1.5530092      46025.381      41999.498      47549.645    
     29000   29000          848.28684      44779.555      111454.59      59751.684      22046.706      37704.978      9268.6278      9539.4099      9608.8974      1247.8617      2646.1988      16014.982     -10620.999     -1015.3879      79169.754      42.939116      42.939116      42.939116      1.548381       44296.145      45277.84       44764.679    
     30000   30000          843.63082      46214.821      112518.06      59393.106      21925.697      37467.408      9247.6722      9423.4739      9536.1594      1294.651       2595.0338      16001.281     -10630.863     -1019.882       78820.899      42.875954      42.875954      42.875954      1.555234       47444.892      44701.437      46498.134    
     31000   31000          855.72302      45136.861      111736.73      59682.555      22239.97       37442.585      9442.5914      9406.4219      9511.0184      1235.6149      2473.4665      16004.965     -10631.493     -1016.5833      79076.661      42.922279      42.922279      42.922279      1.5502038      44964.001      43945.848      46500.735    
     32000   32000          842.52568      45371.961      111504.42      59359.537      21896.975      37462.562      9326.4366      9584.2695      9340.4104      1236.0278      2610.3868      15989.483     -10624.452     -1020.1006      78804.003      42.87289       42.87289       42.87289       1.5555675      46125.666      42556.009      47434.209    
     33000   33000          858.90861      47647.778      114726.43      59579.678      22322.762      37256.915      9478.6496      9402.2718      9412.7478      1225.2359      2361.7075      16008.295     -10631.992     -1012.9544      79359.95       42.973474      42.973474      42.973474      1.5446701      44170.506      50405.553      48367.276    
     34000   34000          853.68903      48506.609      115468.9       59620.032      22187.107      37432.925      9510.6491      9584.3694      9199.2523      1265.3724      2526.6516      15978.533     -10631.903     -1018.2484      78947.349      42.89887       42.89887       42.89887       1.552743       46064.143      48888.503      50567.18     
     35000   35000          849.02929      44555.264      110958.41      59498.176      22066.002      37432.174      9394.6269      9449.7012      9521.6401      1225.1971      2452.8881      16023.125     -10635.004     -1015.0664      79194.834      42.94365       42.94365       42.94365       1.5478906      44401.421      44653.669      44610.702    
     36000   36000          850.33346      44067.534      110143.97      59301.706      22099.897      37201.809      9211.126       9284.0945      9514.7014      1272.0776      2549.8686      15999.79      -10629.848     -1016.1575      79109.798      42.928274      42.928274      42.928274      1.5495545      45136.943      45000.229      42065.429    
     37000   37000          850.51309      45888.399      112623.33      59681.304      22104.566      37576.739      9348.2464      9396.5435      9559.8987      1335.1704      2583.7532      15986.46      -10633.333     -1016.1774      79108.245      42.927993      42.927993      42.927993      1.5495849      48582.745      44333.657      44748.794    
     38000   38000          850.74994      48449.884      115284.83      59541.799      22110.721      37431.078      9390.6364      9321.7079      9549.7592      1299.7992      2522.5723      15979.602     -10632.998     -1018.9887      78889.994      42.888479      42.888479      42.888479      1.5538719      48160.621      46993.087      50195.946    
     39000   39000          839.4516       47113.073      113826.89      59163.494      21817.081      37346.413      9417.7622      9501.7961      9306.7421      1242.5325      2490.8561      16016.484     -10629.76      -1010.4434      79557.169      43.009042      43.009042      43.009042      1.5408409      43607.421      48856.528      48875.27     
     40000   40000          846.58898      46395.902      112450.5       59062.43       22002.579      37059.85       9422.2019      9262.9374      9374.9498      1229.2909      2392.2182      16005.28      -10627.028     -1018.8319      78902.133      42.890678      42.890678      42.890678      1.5536328      42125.437      48525.441      48536.829    
     41000   41000          854.04575      46120.287      112721.21      59289.379      22196.378      37093          9654.4796      9362.2673      9223.493       1202.961       2257.771       16024.239     -10632.21      -1011.9502      79438.703      42.987684      42.987684      42.987684      1.5431388      47307.232      43859.342      47194.285    
     42000   42000          855.56435      45018.717      111267.86      59247.628      22235.846      37011.782      9311.7758      9281.3988      9340.7534      1213.6965      2525.28        15981.533     -10642.656     -1014.5839      79232.494      42.950456      42.950456      42.950456      1.5471549      45527.882      46185.211      43343.057    
     43000   43000          859.82908      47599.737      114604.66      59630.944      22346.685      37284.259      9582.6293      9346.2787      9442.824       1218.9203      2334.1154      15989.104     -10629.613     -1015.1183      79190.786      42.942918      42.942918      42.942918      1.5479698      48130.544      46455.641      48213.026    
     44000   44000          842.55816      43667.93       109469.49      58872.684      21897.819      36974.865      9302.1833      9484.9497      9318.7616      1239.7755      2246.0061      16008.381     -10625.192     -1011.8281      79448.293      42.989414      42.989414      42.989414      1.5429525      43236.022      43981.675      43786.095    
     45000   45000          856.63461      44523.735      110940.56      59464.152      22263.662      37200.49       9195.7667      9496.8871      9556.1062      1249.4508      2330.6068      16003.38      -10631.708     -1014.0294      79275.819      42.958283      42.958283      42.958283      1.5463094      43411.817      44075.417      46083.971    
     46000   46000          838.03601      43487.05       109242.53      58834.219      21780.29       37053.929      9440.6852      9261.8299      9458.9224      1224.8635      2302.2872      15994.194     -10628.853     -1011.4048      79481.539      42.995409      42.995409      42.995409      1.5423071      46155.379      43345.487      40960.283    
     47000   47000          841.60621      44368.153      110574.83      59282.875      21873.078      37409.797      9474.1957      9417.3147      9507.7161      1268.3583      2358.8757      16017.251     -10633.915     -1014.1199      79268.745      42.957005      42.957005      42.957005      1.5464474      43187.679      45718.005      44198.775    
     48000   48000          854.51962      46386.808      112941.92      59294.326      22208.694      37085.632      9437.863       9398.5867      9259.7386      1248.1298      2361.8415      16006.948     -10627.476     -1013.7047      79301.216      42.96287       42.96287       42.96287       1.5458141      49092.216      45291.014      44777.193    
     49000   49000          862.04335      43784.04       109894.26      59209.59       22404.233      36805.357      9386.5991      9158.4658      9357.0042      1207.4848      2309.6039      16014.901     -10628.702     -1012.7597      79375.212      42.976228      42.976228      42.976228      1.5443731      42355.251      44481.25       44515.618    
     50000   50000          851.43619      47606.095      114687.18      59483.411      22128.556      37354.855      9604.067       9468.2892      9337.5617      1224.2323      2347.1259      16002.029     -10628.45      -1011.0229      79511.564      43.000823      43.000823      43.000823      1.5417247      46815.82       48686.003      47316.46     
     51000   51000          844.64871      44975.427      111172.35      59060.345      21952.152      37108.193      9418.6192      9261.4893      9422.0687      1282.034       2334.7426      16020.179     -10630.94      -1011.8233      79448.666      42.989481      42.989481      42.989481      1.5429453      41690.76       45750.807      47484.714    
     52000   52000          851.01924      45331.272      111860.31      59278.417      22117.72       37160.697      9577.0423      9368.762       9474.4741      1284.5818      2118.442       15973.558     -10636.164     -1010.7153      79535.764      43.005185      43.005185      43.005185      1.5412556      47335.756      43506.518      45151.541    
     53000   53000          851.42473      45454.359      111942.64      59375.177      22128.259      37246.918      9464.6913      9320.6801      9597.4687      1215.5218      2263.0816      16013.069     -10627.595     -1013.7379      79298.62       42.962401      42.962401      42.962401      1.5458648      43299.667      45773.833      47289.578    
     54000   54000          847.02743      43042.685      108972.33      59085.393      22013.974      37071.419      9395.6084      9310.1908      9420.0232      1306.3423      2283.0089      15995.064     -10638.819     -1011.5321      79471.54       42.993606      42.993606      42.993606      1.5425012      43923.07       42942.723      42262.263    
     55000   55000          858.81578      43746.225      110112.67      59207.479      22320.35       36887.129      9482.3229      9221.2284      9350.6624      1233.0193      2228.0861      16001.299     -10629.489     -1007.5015      79789.472      43.050863      43.050863      43.050863      1.5363548      44843.149      42530.024      43865.501    
     56000   56000          841.27486      44553.408      110217.47      58518.503      21864.467      36654.036      9222.2         9230.0625      9261.8751      1189.6395      2390.8086      15990.501     -10631.051     -1010.337       79565.541      43.010551      43.010551      43.010551      1.5406788      44781.292      46031.963      42846.969    
     57000   57000          851.30313      42456.176      108630.64      59282.473      22125.098      37157.374      9306.2603      9292.082       9683.0883      1297.6698      2212.7573      15999.132     -10633.615     -1008.642       79699.25       43.034631      43.034631      43.034631      1.538094       42767.71       40799.611      43801.206    
     58000   58000          852.25242      45460.845      111920.92      59047.314      22149.77       36897.544      9277.9895      9282.8758      9466.5984      1232.6004      2243.2578      16026.167     -10631.945     -1008.0122      79749.049      43.043592      43.043592      43.043592      1.5371336      45758.612      42985.668      47638.257    
     59000   59000          855.40024      41538.066      107551.05      59040.982      22231.581      36809.401      9371.6882      9472.7949      9460.6019      1218.5921      1923.8895      15998.064     -10636.23      -1003.8794      80077.362      43.102579      43.102579      43.102579      1.5308314      44469.898      39778.376      40365.925    
     60000   60000          856.45873      46886.65       113890.87      59453.557      22259.091      37194.466      9551.6726      9217.146       9507.4025      1260.0274      2243.8194      16041.116     -10626.717     -1009.7637      79610.719      43.01869       43.01869       43.01869       1.5398045      47565.906      48025.923      45068.121    
     61000   61000          858.72472      43909.503      110135.73      58865.633      22317.983      36547.65       9219.7018      9365.2222      9216.4247      1248.3189      2128.5143      15999.05      -10629.582     -1004.0643      80062.614      43.099932      43.099932      43.099932      1.5311134      44586.36       44121.972      43020.177    
     62000   62000          848.26719      41607.689      107668.1       59334.879      22046.195      37288.683      9343.1036      9420.0924      9598.4572      1260.9795      2280.5405      16012.592     -10627.081     -1009.2415      79651.914      43.026109      43.026109      43.026109      1.5390081      42374.433      40519.228      41929.406    
     63000   63000          855.32918      44204.488      110879.46      59486.259      22229.734      37256.525      9531.5989      9366.2263      9548.5651      1214.7469      2199.2157      16031.243     -10635.072     -1008.3886      79719.283      43.038236      43.038236      43.038236      1.5377075      47198.234      42643.195      42772.036    
     64000   64000          860.47632      42446.51       108289.23      58886.567      22363.507      36523.06       9419.4122      9281.838       9283.4109      1209.0472      1960.7172      16003.183     -10634.548     -1007.2999      79805.443      43.053735      43.053735      43.053735      1.5360474      40067.288      43504.57       43767.673    
     65000   65000          852.56455      42971.443      109290.65      59384.729      22157.882      37226.846      9360.0744      9368.7603      9611.8644      1274.4925      2223.5833      16016.689     -10628.617     -1009.4739      79633.576      43.022807      43.022807      43.022807      1.5393625      45390.509      41435.945      42087.876    
     66000   66000          855.37642      41442.466      107821.64      59532.603      22230.962      37301.642      9424.9074      9590.5006      9562.4616      1250.3116      2100.6879      16003.204     -10630.431     -1006.1536      79896.366      43.07008       43.07008       43.07008       1.5342994      42853.198      39968.23       41505.969    
     67000   67000          847.62551      46436.015      113001.45      59121.337      22029.518      37091.819      9396.8505      9314.1773      9392.4179      1227.8286      2398.5637      15999.213     -10637.232     -1010.4008      79560.523      43.009647      43.009647      43.009647      1.540776       49046.445      46659.36       43602.241    
     68000   68000          846.17734      43408.258      109624.15      59047.794      21991.881      37055.914      9559.305       9380.9896      9489.4902      1243.2153      1965.7511      16036.958     -10619.796     -1006.2177      79891.27       43.069164      43.069164      43.069164      1.5343972      42811.895      44301.991      43110.887    
     69000   69000          840.04246      43552.978      109814.28      59045.66       21832.437      37213.223      9602.5314      9213.23        9511.082       1273.8454      2228.0949      16014.245     -10629.805     -1005.7492      79928.49       43.075851      43.075851      43.075851      1.5336827      44349.291      43713.206      42596.437    
     70000   70000          858.97258      41552.241      107923.11      59452.134      22324.425      37127.709      9219.6184      9438.0386      9633.3418      1290.261       2176.2156      16002.517     -10632.283     -1005.032       79985.529      43.086096      43.086096      43.086096      1.532589       44406.639      40657.349      39592.736    
     71000   71000          849.18288      44353.404      110357.76      58903.771      22069.994      36833.778      9284.1976      9244.5706      9446.2495      1249.1592      2231.9597      16005.841     -10628.2       -1010.5902      79545.61       43.006959      43.006959      43.006959      1.5410648      42912.743      45282.163      44865.307    
     72000   72000          851.70979      42849.997      109081.04      59057.095      22135.667      36921.428      9357.9405      9504.7394      9285.46        1254.1189      2139.7349      16005.86      -10626.426     -1004.2458      80048.144      43.097336      43.097336      43.097336      1.5313902      41336.595      41189.977      46023.421    
     73000   73000          840.10075      41452.703      107157.94      58807.577      21833.952      36973.625      9340.8574      9340.2124      9541.7257      1254.1069      2104.5721      16023.491     -10631.34      -1005.1255      79978.086      43.084759      43.084759      43.084759      1.5327316      42009.291      43762.617      38586.202    
     74000   74000          856.00594      40835.291      106870.56      59252.628      22247.323      37005.305      9348.1191      9284.6638      9650.6827      1242.2243      2108.3247      16004.192     -10632.901     -1005.3848      79957.457      43.081054      43.081054      43.081054      1.5331271      41413.883      41518.782      39573.21     
     75000   75000          849.51954      39367.829      104709.31      58692.167      22078.743      36613.424      9261.539       9150.956       9526.9498      1271.691       2054.2612      15985.717     -10637.69      -1002.9724      80149.777      43.115567      43.115567      43.115567      1.5294483      40213.56       41641.914      36248.011    
     76000   76000          858.58114      44283.004      110580.1       59064.066      22314.251      36749.814      9211.7055      9406.1873      9316.0748      1222.1056      2229.6074      15997.137     -10633.003     -1007.771       79768.135      43.047025      43.047025      43.047025      1.5367658      41236.824      44200.985      47411.202    
     77000   77000          848.2436       42318.557      108439.47      58978.643      22045.582      36933.061      9576.6206      9435.5707      9307.2762      1265.1221      1974.3578      16008.577     -10634.464     -1003.0826      80140.974      43.113989      43.113989      43.113989      1.5296163      42021.469      42822.083      42112.12     
     78000   78000          856.57213      42322.558      108645.82      59317.921      22262.038      37055.883      9339.1681      9301.9172      9617.7513      1315.3426      2122.8895      15991.459     -10632.645     -1005.8807      79918.037      43.073973      43.073973      43.073973      1.5338833      42694.177      42106.307      42167.191    
     79000   79000          857.27269      39925.814      105931.35      59127.409      22280.245      36847.164      9358.9651      9257.5222      9610.3325      1283.4445      1939.6396      16027.854     -10630.595     -1000.0888      80380.879      43.156967      43.156967      43.156967      1.525051       38426.104      39411.461      41939.879    
     80000   80000          842.57857      41534.896      107168.52      58887.286      21898.35       36988.936      9292.9018      9118.1603      9712.4338      1298.8017      2189.4287      16013.803     -10636.593     -1008.5605      79705.696      43.035791      43.035791      43.035791      1.5379697      41210.863      40215.304      43178.519    
     81000   81000          850.17017      40622.478      106758.75      59262.103      22095.653      37166.45       9547.1094      9429.6608      9578.434       1318.0391      1937.1107      15997.417     -10641.321     -1002.6991      80171.62       43.119484      43.119484      43.119484      1.5290316      42042.672      40460.963      39363.8      
     82000   82000          839.33694      44194.528      110199.8       58522.359      21814.101      36708.258      9555.2752      9307.1937      9229.2498      1257.0464      1992.6803      15998.164     -10631.352     -1002.6162      80178.251      43.120673      43.120673      43.120673      1.5289052      44958.418      46135.768      41489.399    
     83000   83000          848.58811      42242.069      108544.1       59130.568      22054.536      37076.032      9362.1971      9489.6469      9545.408       1252.8328      2037.1153      16012.973     -10624.141     -1002.2279      80209.318      43.126241      43.126241      43.126241      1.528313       39326.981      43235.288      44163.938    
     84000   84000          842.74587      42330.804      108586.19      59140.549      21902.698      37237.851      9270.1135      9467.3593      9671.4408      1272.5907      2148.4322      16033.355     -10625.441     -1003.681       80093.187      43.105418      43.105418      43.105418      1.530529       44927.065      42439.917      39625.429    
     85000   85000          849.12582      41272.011      107117.11      58714.797      22068.511      36646.286      9328.0254      9200.5501      9519.3386      1303.9193      1896.7877      16023.22      -10625.555     -999.6701       80414.542      43.162991      43.162991      43.162991      1.5244126      40985.205      39597.321      43233.507    
     86000   86000          863.04772      44712.071      111735.48      59505.088      22430.336      37074.752      9414.9435      9581.8848      9400.62        1235.4562      2063.1936      16010.719     -10632.066     -1003.6185      80098.179      43.106313      43.106313      43.106313      1.5304336      46176.217      44616.887      43343.108    
     87000   87000          857.9874       40893.667      106705.55      58658.301      22298.82       36359.481      9360.5816      9292.0482      9332.6956      1195.2105      1774.2378      16036.416     -10631.708     -997.82568      80563.183      43.189569      43.189569      43.189569      1.5216         42624.452      41550.342      38506.206    
     88000   88000          859.82162      38858.877      104655.43      59107.801      22346.491      36761.31       9238.7069      9378.0527      9590.934       1276.7381      1923.0603      15989.192     -10635.374     -1000.2111      80371.046      43.155207      43.155207      43.155207      1.5252376      39721.958      39828.82       37025.853    
     89000   89000          864.46616      40070.808      106160.59      59216.148      22467.201      36748.947      9408.2786      9306.4418      9555.2015      1266.9974      1805.1693      16036.051     -10629.193     -1000.7167      80330.444      43.147939      43.147939      43.147939      1.5260085      38731.434      37873.956      43607.035    
     90000   90000          843.01249      38866.631      104266.52      58673.092      21909.627      36763.465      9327.5915      9420.0105      9483.5565      1243.1573      1895.2603      16021.191     -10627.302     -999.40582      80435.806      43.166795      43.166795      43.166795      1.5240096      38465.23       40854.092      37280.573    
     91000   91000          858.37103      42300.712      108826.41      59406.122      22308.791      37097.332      9382.2078      9316.0082      9591.2345      1300.3329      2140.9375      15997.205     -10630.594     -1003.482       80109.076      43.108268      43.108268      43.108268      1.5302254      46568.42       40038.413      40295.302    
     92000   92000          845.27258      40662.138      106381.01      58727.728      21968.366      36759.362      9451.8018      9310.8585      9416.2645      1233.7867      1931.4811      16036.511     -10621.341     -1000.379       80357.558      43.152793      43.152793      43.152793      1.5254936      39293.904      42089.96       40602.551    
     93000   93000          847.74556      39582.241      105562.87      59127.089      22032.638      37094.451      9549.4711      9443.4586      9530.2243      1194.45        1987.6562      16018.224     -10629.033     -999.34352      80440.821      43.167692      43.167692      43.167692      1.5239146      39209.25       39735.554      39801.918    
     94000   94000          841.75791      42003.349      107584.7       58376.151      21877.021      36499.13       9432.7319      9275.517       9381.5213      1194.2578      1827.2385      16014.348     -10626.485     -1000.7153      80330.549      43.147958      43.147958      43.147958      1.5260065      44354.966      42489.265      39165.818    
     95000   95000          843.49199      39325.87       105084.44      58857.979      21922.089      36935.89       9563.9374      9323.4214      9535.0296      1232.438       1911.4655      16003.379     -10633.782     -997.36677      80600.252      43.196192      43.196192      43.196192      1.5209002      40907.052      37083.935      39986.625    
     96000   96000          859.14813      41883.379      108012.21      58805.555      22328.987      36476.568      9307.8635      9197.7435      9537.488       1281.4342      1750.659       16034.037     -10632.657     -997.89545      80557.55       43.188563      43.188563      43.188563      1.5217064      45121.681      42892.984      37635.472    
     97000   97000          842.58421      40327.916      106122.09      58538.304      21898.496      36639.808      9521.9223      9400.5386      9373.0749      1268.6032      1680.9687      16023.949     -10629.249     -993.6055       80905.362      43.25063       43.25063       43.25063       1.5151646      40650.185      40876.867      39456.697    
     98000   98000          851.11618      40880.438      106999.85      59087.038      22120.24       36966.798      9309.1709      9522.2813      9641.9479      1280.3619      1837.7321      16004.488     -10629.184     -1000.3019      80363.749      43.153901      43.153901      43.153901      1.5253761      40074.319      40683.295      41883.702    
     99000   99000          841.42856      39038.422      104627.24      58757.598      21868.461      36889.136      9360.1222      9460.7403      9627.7283      1271.1992      1806.9708      16000.739     -10638.364     -997.7783       80567.008      43.190253      43.190253      43.190253      1.5215278      38569.581      37943.304      40602.382    
    100000   100000         859.17069      40028.383      106104.74      59106.624      22329.574      36777.05       9371.9773      9434.6385      9362.1555      1264.72        1959.9029      16016.517     -10632.861     -998.51544      80507.531      43.179622      43.179622      43.179622      1.5226519      38809.95       38630.078      42645.121    
    101000   101000         853.41457      40081.559      105986.14      58791.628      22179.974      36611.654      9314.4856      9362.0562      9305.5807      1212.7986      2006.3601      16033.87      -10623.497     -995.6812       80736.699      43.220554      43.220554      43.220554      1.5183299      41813.826      40461.156      37969.693    
    102000   102000         842.87842      42992.926      109324.54      58879.657      21906.143      36973.515      9398.9836      9296.6722      9490.4967      1275.2965      2120.5733      16025.139     -10633.647     -999.18764      80453.37       43.169937      43.169937      43.169937      1.5236769      43849.961      45572.237      39556.581    
    103000   103000         859.25244      38935.238      104918.94      59038.516      22331.698      36706.818      9376.6186      9313.3621      9583.7537      1246.8292      1798.5323      16013.045     -10625.323     -994.90721      80799.508      43.231759      43.231759      43.231759      1.5171496      38714.202      38512.188      39579.324    
    104000   104000         863.42587      42701.336      109134.31      58912.11       22440.164      36471.946      9317.7767      9258.7662      9391.971       1226.436       1853.123       16047.792     -10623.919     -996.8113       80645.166      43.204215      43.204215      43.204215      1.5200532      41980.045      42920.26       43203.703    
    105000   105000         839.68017      36922.183      101830.8       58324.092      21823.021      36501.07       9224.4669      9231.8001      9570.8819      1269.0833      1784.5178      16048.892     -10628.572     -994.9432       80796.585      43.231238      43.231238      43.231238      1.5172045      35878.112      36799.815      38088.621    
    106000   106000         853.71639      38326.755      104078.6       58843.033      22187.818      36655.215      9424.6067      9313.4524      9484.8188      1284.6305      1767.1604      16009.777     -10629.23      -993.31999      80928.617      43.254773      43.254773      43.254773      1.5147292      37174.356      38981.706      38824.204    
    107000   107000         843.64694      41176.724      106866.19      58337.276      21926.117      36411.16       9454.3318      9184.8045      9331.3682      1203.5984      1836.2475      16024.54      -10623.731     -994.76027      80811.443      43.233887      43.233887      43.233887      1.5169255      42550.122      42906.642      38073.409    
    108000   108000         852.86272      40176.754      105979.98      58695.671      22165.631      36530.04       9318.7965      9277.9544      9418.736       1244.4587      1921.3846      15976.112     -10627.403     -996.15066      80698.649      43.213763      43.213763      43.213763      1.5190458      40431.783      40312.977      39785.501    
    109000   109000         841.34875      38482.202      103887.65      58473.375      21866.387      36606.988      9313.0869      9219.1644      9699.5709      1218.9155      1797.749       15991.214     -10632.713     -993.42417      80920.13       43.253261      43.253261      43.253261      1.5148881      38145.994      36853.209      40447.404    
    110000   110000         845.99481      39883.161      105559.39      58421.109      21987.137      36433.972      9214.527       9291.4195      9498.4191      1222.0556      1814.2058      16022.884     -10629.539     -991.93451      81041.654      43.274903      43.274903      43.274903      1.5126165      41416.365      38902.077      39331.042    
    111000   111000         849.61817      39413.577      105323.88      58750.878      22081.307      36669.571      9476.9229      9216.3312      9542.0734      1281.5732      1793.5969      15994.702     -10635.628     -992.15343      81023.772      43.271719      43.271719      43.271719      1.5129503      40648.75       38356.902      39235.078    
    112000   112000         834.78891      38620.429      103797.41      58031.481      21695.899      36335.582      9380.4031      9325.7287      9418.875       1220.2714      1601.5223      16021.134     -10632.352     -989.33187      81254.85       43.312817      43.312817      43.312817      1.5086477      39266.032      37774.085      38821.171    
    113000   113000         856.26606      39247.085      105125.68      58788.462      22254.083      36534.379      9386.3841      9280.1564      9558.361       1229.6366      1680.6521      16023.315     -10624.126     -992.98938      80955.562      43.259573      43.259573      43.259573      1.5142251      40003.502      38029.037      39708.715    
    114000   114000         853.64952      39921.911      105584.24      58411.74       22186.08       36225.66       9393.8602      9282.1774      9361.8805      1253.3644      1549.9894      16007.616     -10623.227     -992.17814      81021.754      43.27136       43.27136       43.27136       1.512988       38932.586      37920.909      42912.237    
    115000   115000         852.63547      36466.883      101630.59      58643.756      22159.725      36484.03       9302.0392      9526.4742      9437.3545      1245.0771      1585.4242      16011.721     -10624.06      -994.55853      80827.835      43.23681       43.23681       43.23681       1.5166179      36377.339      37044.225      35979.085    
    116000   116000         854.27965      38953.491      105046.61      58934.074      22202.457      36731.617      9499.4065      9317.9557      9596.8022      1243.5229      1670.2028      16031.356     -10627.629     -990.36337      81170.221      43.297775      43.297775      43.297775      1.5102206      41899.881      40100.902      34859.69     
    117000   117000         858.4474       35333.127      100601.01      58769.414      22310.776      36458.638      9326.6308      9268.9528      9607.4469      1198.5057      1705.0846      15977.448     -10625.43      -990.24993      81179.519      43.299428      43.299428      43.299428      1.5100476      35484.126      34210.125      36305.131    
    118000   118000         857.4919       36410.938      102020.54      58923.787      22285.943      36637.844      9265.2867      9456.1749      9518.1466      1224.7017      1797.5271      16002.798     -10626.79      -990.50011      81159.015      43.295782      43.295782      43.295782      1.5104291      35042.766      33323.599      40866.449    
    119000   119000         857.53583      36759.565      101954.38      58558.897      22287.084      36271.813      9268.2922      9233.8567      9580.3356      1179.5902      1611.2411      16025.991     -10627.494     -993.10004      80946.541      43.257966      43.257966      43.257966      1.5143938      35674.255      36713.243      37891.196    
    120000   120000         850.96564      39596.979      105541.93      58560.57       22116.327      36444.243      9401.8794      9229.8569      9545.0097      1264.9619      1616.7487      16016.54      -10630.754     -988.10621      81355.64       43.330718      43.330718      43.330718      1.5067787      38552.377      40537.334      39701.226    
    121000   121000         841.16964      38686.699      103856.71      58177.099      21861.732      36315.367      9305.4418      9296.2263      9498.2069      1247.2706      1580.9334      16017.234     -10629.946     -992.90219      80962.671      43.260839      43.260839      43.260839      1.5140921      38411.656      41897.114      35751.329    
    122000   122000         838.51852      40784.586      106665.39      58526.95       21792.83       36734.12       9624.8317      9358.4349      9331.2671      1232.199       1780.4282      16032.849     -10625.89      -993.27887      80931.968      43.25537       43.25537       43.25537       1.5146665      42571.884      39730.03       40051.843    
    123000   123000         846.10349      36222.953      101614.25      58513.399      21989.961      36523.437      9506.0244      9241.8729      9604.4222      1204.7778      1566.57        16023.443     -10623.673     -985.29251      81587.967      43.371926      43.371926      43.371926      1.502488       35643.132      37674.754      35350.972    
    124000   124000         858.59124      34227.904      99328.156      58737.095      22314.514      36422.581      9280.0496      9206.7329      9698.2223      1226.078       1639.4304      16004.77      -10632.703     -988.59198      81315.664      43.32362       43.32362       43.32362       1.5075194      32645.841      34439.957      35597.913    
    125000   125000         846.49098      36572.023      101599.51      58325.76       22000.032      36325.728      9378.7351      9314.9187      9438.8257      1227.8857      1590.2983      15996.928     -10621.864     -990.81296      81133.389      43.291225      43.291225      43.291225      1.5109062      37982.113      35088.12       36645.836    
    126000   126000         856.53361      37993.4        103758.86      58683.719      22261.037      36422.682      9439.2747      9383.6931      9474.0667      1258.4346      1494.7861      16000.83      -10628.403     -988.18497      81349.156      43.329567      43.329567      43.329567      1.5068988      41385.975      34717.732      37876.493    
    127000   127000         872.49793      34968.506      100379.86      58895.163      22675.945      36219.219      9253.1263      9429.1932      9465.3487      1228.5714      1447.669       16019.757     -10624.448     -988.22607      81345.773      43.328966      43.328966      43.328966      1.5069614      33448.272      35985.445      35471.8      
    128000   128000         842.05389      38247.656      103679.19      58429.866      21884.714      36545.153      9379.0529      9384.0966      9381.096       1250.9017      1763.6648      16011.587     -10625.246     -990.96874      81120.635      43.288956      43.288956      43.288956      1.5111438      37004.203      38292.72       39446.045    
    129000   129000         859.18873      36955.996      102557.77      58691.112      22330.043      36361.07       9490.1184      9168.5112      9452.8959      1277.0878      1590.5927      16008.304     -10626.44      -987.68301      81390.499      43.336906      43.336906      43.336906      1.5061333      37953.034      36372.252      36542.703    
    130000   130000         854.09453      36338.661      101953.97      58667.955      22197.646      36470.309      9205.8463      9541.4992      9564.4487      1236.1929      1524.9867      16023.274     -10625.939     -984.21161      81677.571      43.387797      43.387797      43.387797      1.5008397      34004.531      39912.812      35098.642    
    131000   131000         861.39307      37217.749      102845.61      58549.225      22387.333      36161.893      9271.6048      9262.4904      9527.7549      1254.896       1431.762       16039.718     -10626.334     -985.02907      81609.787      43.375792      43.375792      43.375792      1.5020863      37804.02       38247.718      35601.51     
    132000   132000         841.61054      38063.532      103184.33      58163.372      21873.191      36290.181      9517.4692      9253.8197      9303.1943      1219.541       1600.1693      16019.482     -10623.494     -991.20056      81101.662      43.285581      43.285581      43.285581      1.5114973      37817.703      37880.774      38492.117    
    133000   133000         851.47392      36892.256      102132.32      58279.629      22129.537      36150.091      9216.1646      9285.66        9507.3178      1199.3995      1553.34        16013.32      -10625.11      -986.29348      81505.165      43.357248      43.357248      43.357248      1.5040144      40508.412      33163.978      37004.376    
    134000   134000         846.02911      38409.066      103950.08      58277.356      21988.028      36289.328      9436.9959      9307.4385      9488.4912      1230.0986      1403.3925      16044.585     -10621.674     -985.92536      81535.597      43.362644      43.362644      43.362644      1.503453       38002.451      35959.591      41265.156    
    135000   135000         858.14416      37478.442      103041.25      58591.838      22302.895      36288.944      9046.0371      9337.9491      9663.8334      1243.1008      1612.5817      16012.628     -10627.187     -988.51377      81322.097      43.324762      43.324762      43.324762      1.5074002      38255.209      36281.494      37898.624    
    136000   136000         860.48878      36631.994      102104.17      58392.552      22363.83       36028.721      9291.4404      9325.7644      9472.8041      1244.2166      1326.7983      15998.407     -10630.71      -982.49608      81820.187      43.413036      43.413036      43.413036      1.4982237      37550.81       37549.232      34795.941    
    137000   137000         853.69006      36887.916      102625.03      58712.218      22187.134      36525.085      9417.4474      9488.4536      9500.9975      1217.3142      1511.8545      16018.653     -10629.636     -984.82721      81626.515      43.378755      43.378755      43.378755      1.5017785      37031.5        36070.7        37561.549    
    138000   138000         831.52506      37529.284      102582.36      57967.877      21611.073      36356.804      9347.0435      9384.9366      9386.4349      1197.4282      1666.7446      16002.621     -10628.405     -986.19223      81513.533      43.358732      43.358732      43.358732      1.50386        37349.676      37586.313      37651.862    
    139000   139000         854.8651       39064.508      105014.33      58559.809      22217.673      36342.136      9320.9094      9284.581       9466.7523      1274.0682      1583.006       16034.095     -10621.276     -985.87443      81539.81       43.36339       43.36339       43.36339       1.5033754      37627.24       42197.843      37368.441    
    140000   140000         844.63332      34447.07       99562.266      58484.098      21951.752      36532.346      9322.0112      9427.2173      9701.8141      1226.1884      1482.6481      15995.586     -10623.119     -983.12424      81767.908      43.403788      43.403788      43.403788      1.4991816      30956.937      36298.421      36085.853    
    141000   141000         851.70143      31358.257      95823.838      58259.885      22135.45       36124.435      9259.943       9132.7916      9741.9603      1281.8471      1364.3536      15970.729     -10627.19      -978.69597      82137.881      43.469152      43.469152      43.469152      1.4924288      32177.983      29341.508      32555.279    
    142000   142000         845.64732      37171.843      102028.52      57625.866      21978.106      35647.761      9147.1617      9221.7889      9265.6894      1199.9312      1409.6161      16027.465     -10623.892     -981.45941      81906.61       43.428315      43.428315      43.428315      1.4966428      37833.056      39454.289      34228.185    
    143000   143000         850.78634      37972.143      103426.65      58326.503      22111.667      36214.836      9429.4458      9245.7549      9390.2979      1237.7938      1535.9856      16006.791     -10631.233     -987.08442      81439.856      43.345665      43.345665      43.345665      1.5052205      39432.937      37041.119      37442.373    
    144000   144000         851.65134      36414.694      101760.52      58259.292      22134.148      36125.144      9334.985       9305.2132      9488.6372      1260.6571      1318.889       16038.84      -10622.077     -981.39149      81912.278      43.429317      43.429317      43.429317      1.4965393      34351.705      34500.507      40391.869    
    145000   145000         855.84504      37300.044      102965.97      58551.4        22243.141      36308.259      9433.7023      9223.5521      9621.0594      1238.5865      1406.213       16010.783     -10625.638     -984.58022      81646.992      43.382382      43.382382      43.382382      1.5014018      37089.45       38475.584      36335.098    
    146000   146000         844.75223      34421.005      99015.287      57724.767      21954.842      35769.925      9178.8966      9451.6962      9431.5868      1178.8736      1139.8131      16013.505     -10624.447     -977.3281       82252.842      43.489422      43.489422      43.489422      1.4903429      36751.551      32442.574      34068.891    
    147000   147000         840.60635      37986.489      103703.55      58415.876      21847.092      36568.783      9566.1049      9218.2348      9614.2242      1250.6255      1510.3913      16035.252     -10626.049     -983.36856      81747.593      43.400193      43.400193      43.400193      1.4995541      37485.06       38618.66       37855.747    
    148000   148000         856.89012      35647.118      101075.52      58507.206      22270.302      36236.904      9145.9087      9223.2766      9699.0131      1274.9329      1511.0937      16008.526     -10625.846     -981.75961      81881.565      43.423888      43.423888      43.423888      1.4971006      35585.008      36567.096      34789.249    
    149000   149000         843.22808      35107.449      99735.853      57693.326      21915.23       35778.096      9199.4184      9219.1702      9485.6605      1177.6987      1294.5112      16023.679     -10622.042     -978.98865      82113.325      43.464819      43.464819      43.464819      1.4928751      32303.675      34850.363      38168.309    
    150000   150000         850.36096      35890.716      101488.13      58459.853      22100.612      36359.241      9297.3258      9358.1462      9792.0597      1256.5956      1257.0566      16018.408     -10620.351     -977.90206      82204.564      43.480912      43.480912      43.480912      1.4912182      36332.763      35380.869      35958.515    
    151000   151000         860.59564      35052.326      100536.83      58590.662      22366.608      36224.054      9298.6629      9260.9265      9709.5177      1264.2651      1337.5278      15982.111     -10628.957     -979.69695      82053.958      43.454342      43.454342      43.454342      1.4939553      35364.34       36622.779      33169.86     
    152000   152000         841.52656      31521.064      95877.863      58044.188      21871.008      36173.18       9432.6677      9252.4379      9695.8691      1278.9872      1146.9832      15990.156     -10623.922     -976.76375      82300.365      43.497796      43.497796      43.497796      1.4894824      34631.238      29881.72       30050.235    
    153000   153000         850.83105      34307.68       99792.494      58697.884      22112.829      36585.054      9355.691       9500.6714      9685.4048      1310.7921      1369.6552      15983.481     -10620.641     -978.75427      82132.989      43.468289      43.468289      43.468289      1.4925177      35878.713      32297.362      34746.964    
    154000   154000         846.65803      32226.409      96838.401      58213.714      22004.374      36209.341      9352.3612      9314.7407      9704.1849      1220.4152      1228.0997      16008.62      -10619.081     -978.16952      82182.087      43.476949      43.476949      43.476949      1.491626       32355.212      34043.4        30280.615    
    155000   155000         851.40354      34705.831      99946.105      58523.259      22127.708      36395.551      9497.8553      9356.7527      9556.3797      1272.4081      1281.6873      16046.935     -10616.467     -982.26733      81839.241      43.416405      43.416405      43.416405      1.4978749      36492.633      33594.907      34029.952    
    156000   156000         842.81091      33131.018      98082.678      58337.664      21904.388      36433.275      9434.081       9303.0165      9794.6566      1315.8535      1207.0424      15995.782     -10617.157     -977.28065      82256.834      43.490126      43.490126      43.490126      1.4902706      35945.422      29587.148      33860.483    
    157000   157000         852.75537      35081.099      100186.98      58199.512      22162.842      36036.67       9187.7299      9212.8855      9589.4378      1282.1853      1359.3025      16018.132     -10613.003     -979.5366       82067.391      43.456713      43.456713      43.456713      1.4937107      36660.171      35269.666      33313.461    
    158000   158000         858.03278      36353.477      101946.8       58434.138      22300          36134.138      9548.6448      9305.5708      9484.2481      1203.3954      1208.3145      16006.913     -10622.948     -979.4842       82071.781      43.457488      43.457488      43.457488      1.4936308      35762.746      34906.326      38391.357    
    159000   159000         837.45084      35953.909      101076.81      57974.545      21765.082      36209.463      9527.0215      9320.68        9495.0026      1236.2449      1228.5105      16022.56      -10620.556     -977.94216      82201.194      43.480318      43.480318      43.480318      1.4912793      35992.995      33485.455      38383.278    
    160000   160000         848.56546      31046.868      95727.831      58487.417      22053.947      36433.47       9355.3508      9330.6728      9857.2194      1236.0902      1265.2047      16007.826     -10618.894     -977.39582      82247.142      43.488418      43.488418      43.488418      1.4904462      29445.664      32596.599      31098.341    
    161000   161000         852.68377      35059.517      100204.27      58054.731      22160.981      35893.75       9407.3764      9331.1184      9305.2724      1233.182       1250.8803      15987.14      -10621.22      -975.16995      82434.875      43.521481      43.521481      43.521481      1.4870519      35063.479      34767.139      35347.933    
    162000   162000         859.78837      35012.955      100608.44      58524.023      22345.627      36178.395      9336.6094      9340.55        9518.7623      1238.3329      1363.4372      16001.539     -10620.836     -975.38184      82416.967      43.518329      43.518329      43.518329      1.4873751      34622.508      33393.484      37022.873    
    163000   163000         836.33452      32755.31       97388.226      58129.864      21736.069      36393.795      9535.1422      9415.3846      9629.4753      1230.2573      1209.66        15994.533     -10620.657     -978.17537      82181.596      43.476862      43.476862      43.476862      1.491635       33741.212      32531.74       31992.977    
    164000   164000         847.43778      31106.084      95424.136      58045.609      22024.639      36020.97       9377.9221      9415.6324      9507.1322      1226.3815      1131.4948      15988.395     -10625.987     -975.64166      82395.019      43.514465      43.514465      43.514465      1.4877713      29304.885      34053.037      29960.329    
    165000   165000         851.7663       33703.335      98790.139      58217.078      22137.136      36079.942      9279.8169      9347.625       9612.0668      1242.6041      1176.4309      16041.5       -10620.102     -973.87292      82544.664      43.540793      43.540793      43.540793      1.4850741      33391.344      33477.345      34241.317    
    166000   166000         848.0154       34481.284      99557.764      58190.936      22039.651      36151.285      9301.9408      9371.2611      9445.9303      1269.6989      1366.992       16012.229     -10616.767     -977.23362      82260.793      43.490824      43.490824      43.490824      1.4901989      34795.229      30543.381      38105.243    
    167000   167000         842.86314      30229.976      94665.878      58136.286      21905.746      36230.54       9213.7583      9380.2951      9973.0463      1298.1392      960.28709      16030.214     -10625.199     -970.19754      82857.367      43.595705      43.595705      43.595705      1.4794694      33175.947      27651.449      29862.533    
    168000   168000         841.62589      30824.935      95205.364      58002.984      21873.59       36129.395      9389.2226      9329.6802      9683.1354      1278.3293      1086.8787      15985.055     -10622.907     -971.40121      82754.697      43.577691      43.577691      43.577691      1.4813049      31092.505      30631.565      30750.735    
    169000   169000         852.30194      30038.769      94222.214      58047.881      22151.057      35896.824      9301.3014      9091.347       9699.3917      1264.3384      1171.8865      15989.001     -10620.442     -973.52875      82573.846      43.545923      43.545923      43.545923      1.4845493      30660.402      30392.785      29063.12     
    170000   170000         847.07909      31196.55       95519.335      57833.612      22015.317      35818.295      9219.0802      9150.4737      9640.2459      1226.2293      1202.3012      15999.919     -10619.954     -970.50304      82831.284      43.59113       43.59113       43.59113       1.4799353      32999.762      30462.502      30127.384    
    171000   171000         837.36121      35207.605      100520.09      58054.948      21762.752      36292.196      9417.2489      9349.9155      9662.537       1241.9104      1220.0497      16015.348     -10614.813     -972.01068      82702.808      43.568581      43.568581      43.568581      1.4822343      36954.288      36570.58       32097.946    
    172000   172000         857.25366      32711.358      97755.678      58303.448      22279.751      36023.697      9420.5011      9255.8209      9574.3215      1292.6418      1118.4253      15985.328     -10623.341     -972.06253      82698.397      43.567807      43.567807      43.567807      1.4823134      31560.074      32930.744      33643.257    
    173000   173000         852.95766      32844.233      97747.068      58054.543      22168.099      35886.444      9399.2022      9212.7604      9464.2461      1226.774       1207.9194      15998.806     -10623.264     -970.10241      82865.491      43.59713       43.59713       43.59713       1.4793244      32442.051      31153.93       34936.718    
[...]
    455000   455000         858.39578      4409.0628      63650.448      57143.65       22309.434      34834.216      9238.3678      9359.9         9840.7769      1249.0766     -251.76373      16007.717     -10609.859     -794.41261      101191.76      46.59955       46.59955       46.59955       1.2114122      4281.0294      5262.1157      3684.0431    
    456000   456000         850.9625       5714.1162      65161.983      56694.986      22116.245      34578.74       9381.4228      9328.8344      9370.4485      1202.8916     -139.24081      16041.963     -10607.579     -791.20101      101602.52      46.662516      46.662516      46.662516      1.2065148      5881.1932      5227.8256      6033.3299    
    457000   457000         852.68015      3561.7087      62215.394      56853.472      22160.887      34692.585      9061.5919      9246.692       10016.042      1227.4203     -302.11824      16049.843     -10606.886     -778.76252      103225.32      46.909638      46.909638      46.909638      1.1875472      3647.5979      2886.2094      4151.3189    
    458000   458000         836.65043      4759.8691      63898.735      56828.09       21744.279      35083.811      9677.9906      9189.0737      9775.309       1265.6109     -243.54199      16025.63      -10606.262     -789.22928      101856.35      46.701343      46.701343      46.701343      1.2035081      5444.4532      3786.29        5048.8641    
    459000   459000         844.84332      4185.5932      62884.167      56571.682      21957.21       34614.472      9180.3234      9185.1022      9784.8371      1237.7774     -191.69558      16026.829     -10608.701     -777.36294      103411.17      46.937774      46.937774      46.937774      1.1854129      3082.961       3019.1995      6454.619     
    460000   460000         859.91597      5725.2562      65573.848      56953.512      22348.943      34604.569      9365.9812      9335.8174      9544.5169      1161.6235     -183.31858      15991.743     -10611.795     -778.64215      103241.28      46.912055      46.912055      46.912055      1.1873636      5412.8721      7434.8         4328.0963    
    461000   461000         854.9216       4271.844       63583.184      57108.406      22219.141      34889.264      9515.9933      9325.9502      9678.5231      1230.859      -300.996        16038.527     -10599.592     -773.49524      103928.26      47.015878      47.015878      47.015878      1.179515       6913.3921      2551.4997      3350.6401    
    462000   462000         852.80096      2296.2578      60730.942      57266.077      22164.026      35102.05       9435.8958      9350.1586      9908.7565      1262.7982     -282.8968       16031.875     -10604.537     -776.96495      103464.14      46.945787      46.945787      46.945787      1.184806       885.9847       3442.7554      2560.0333    
    463000   463000         841.64449      3993.3715      62908.169      56903.056      21874.073      35028.983      9395.5118      9333.4461      9968.3703      1236.2375     -325.08903      16033.497     -10612.991     -779.62495      103111.13      46.892334      46.892334      46.892334      1.1888623      4205.7532      4619.6556      3154.7058    
    464000   464000         851.78631      3654.5644      62370.475      56849.017      22137.656      34711.361      9389.2787      9281.7453      9712.0645      1229.015      -300.30471      16006.5       -10606.937     -775.97738      103595.82      46.965694      46.965694      46.965694      1.1833001      1930.8291      2583.1657      6449.6985    
    465000   465000         831.31344      2977.226       61109.062      56591.082      21605.573      34985.51       9381.2872      9291.1867      9816.3579      1221.0122     -126.2322       16012.968     -10611.07      -772.56451      104053.46      47.034751      47.034751      47.034751      1.1780957      1906.4099      2023.9939      5001.2742    
    466000   466000         849.15099      2185.5212      60320.659      57000.86       22069.165      34931.696      9224.9224      9445.1146      9858.4861      1161.0754     -186.80531      16033.268     -10604.365     -771.81013      104155.17      47.05007       47.05007       47.05007       1.1769454      2376.4143      451.28786      3728.8614    
    467000   467000         850.42782      4500.6936      63845.836      57012.591      22102.349      34910.242      9333.3446      9374.2067      9624.3392      1222.8009     -57.275868      16019.335     -10606.508     -772.18197      104105.01      47.042516      47.042516      47.042516      1.1775124      5610.5938      5564.065       2327.4221    
    468000   468000         843.82344      2896.8025      60939.785      56505.982      21930.703      34575.278      9034.1879      9269.9562      9718.288       1249.7646     -135.93602      16038.528     -10599.51      -765.96625      104949.81      47.169422      47.169422      47.169422      1.1680339      2340.4591      3185.8612      3164.0871    
    469000   469000         866.00946      2822.2853      61746.792      57404.813      22507.311      34897.502      9346.787       9393.9609      9700.4376      1209.3806     -197.03414      16049.858     -10605.888     -762.04468      105489.89      47.250197      47.250197      47.250197      1.1620539      1192.6067      4542.3923      2731.857     
    470000   470000         852.96077      366.75895      57626.923      57065.803      22168.18       34897.623      9300.7037      9038.1423      10085.845      1225.6984     -154.96044      16010.058     -10607.864     -766.28736      104905.83      47.162832      47.162832      47.162832      1.1685236      305.19261      1013.0411     -217.95683    
    471000   471000         841.83874      4266.3656      63372.639      56826.226      21879.122      34947.104      9422.9347      9194.0451      9776.8364      1216.6891     -90.643056      16033.202     -10605.96      -764.05008      105213.02      47.208821      47.208821      47.208821      1.165112       5667.1865      3387.1017      3744.8088    
    472000   472000         857.02755      2399.0866      61150.442      57434.887      22273.874      35161.013      9583.6918      9236.7301      9832.0279      1237.0436     -104.08597      15985.315     -10609.71      -756.98867      106194.47      47.35516       47.35516       47.35516       1.1543439      3004.8388      959.08229      3233.3387    
    473000   473000         839.1611       3586.0535      62339.316      56785.304      21809.531      34975.773      9399.2291      9284.7636      9775.6627      1234.4545     -122.39004      16008.654     -10604.601     -756.96722      106197.48      47.355607      47.355607      47.355607      1.1543112      4092.7561      2954.4381      3710.9663    
    474000   474000         867.23124      5358.2237      65724.832      57502.784      22539.065      34963.719      9437.4699      9380.33        9516.5578      1239.4729     -18.24038       16013.817     -10605.688     -764.02578      105216.36      47.209322      47.209322      47.209322      1.1650749      6919.7044      3391.4075      5763.5592    
    475000   475000         845.98402      4406.2265      63533.183      56724.017      21986.856      34737.161      9327.0683      9137.2405      9736.3385      1233.3934     -111.6548       16024.156     -10609.381     -758.64761      105962.26      47.320617      47.320617      47.320617      1.1568736      2440.0605      4605.782       6172.837     
    476000   476000         845.01154      2795.3546      61050.443      56717.985      21961.582      34756.403      9367.6952      9263.3001      9757.7742      1202.0813     -224.59412      16006.017     -10615.87      -756.4318       106272.65      47.366777      47.366777      47.366777      1.1534947      4999.9575      1598.0377      1788.0685    
    477000   477000         859.9917       2771.6502      61435.602      57140.773      22350.912      34789.862      9212.8826      9316.9088      9594.4383      1218.2853     -1.1816897      16044.147     -10595.618     -756.58848      106250.64      47.363507      47.363507      47.363507      1.1537336      4328.0793      581.54255      3405.3287    
    478000   478000         840.34382      2414.3709      60251.867      56482.526      21840.269      34642.257      9217.8048      9250.7548      9597.2473      1199.5149     -70.654109      16049.464     -10601.875     -750.94083      107049.73      47.481948      47.481948      47.481948      1.1451215      2694.7886      1005.4283      3542.8959    
    479000   479000         843.65492      1312.9697      58883.018      56834.707      21926.324      34908.383      9244.857       9332.77        9795.1786      1221.0734     -104.74572      16031.913     -10612.663     -751.49494      106970.8       47.470275      47.470275      47.470275      1.1459664      2733.49        1088.3993      117.0198     
    480000   480000         860.69603      687.22502      58821.258      57742.463      22369.217      35373.246      9444.3737      9408.9955      9794.5942      1230.358       54.143868      16046.158     -10605.377     -746.83958      107637.59      47.568704      47.568704      47.568704      1.1388674     -206.41113      2037.2625      230.82367    
    481000   481000         835.17915      2667.3591      60659.63       56450.929      21706.041      34744.888      9058.5257      9262.4875      9780.631       1239.6426     -55.215546      16052.694     -10593.877     -743.02019      108190.89      47.650072      47.650072      47.650072      1.1330431      4304.8936      1989.4938      1707.6899    
    482000   482000         849.49577      1955.6034      60337.459      57236.41       22078.126      35158.284      9486.6287      9253.6543      9840.2031      1274.2323     -128.35452      16028.476     -10596.556     -739.33155      108730.67      47.729185      47.729185      47.729185      1.1274183      1140.1541      2769.916       1956.7399    
    483000   483000         859.35453      2006.6503      60560.396      57386.035      22334.352      35051.684      9377.3803      9155.4712      9850.6487      1228.1195     -23.208954      16058.486     -10595.213     -741.10977      108469.78      47.69098       47.69098       47.69098       1.1301299      1654.8144      3477.0046      888.13194    
    484000   484000         853.8641       369.59662      57668.321      57072.295      22191.657      34880.638      9339.4069      9281.7298      9541.676       1195.9451      103.74794      16021.726     -10603.594     -726.99281      110576.08      47.997696      47.997696      47.997696      1.1086027      424.23821     -748.18915      1432.7408    
    485000   485000         850.91787      1372.7305      59375.79       57203.838      22115.086      35088.752      9362.55        9479.3087      9618.2488      1213.2438     -2.0086199      16018.152     -10600.742     -740.97264      108489.85      47.693922      47.693922      47.693922      1.1299208      2244.4479      2189.4462     -315.70269    
    486000   486000         842.10639      1492.4893      59511.104      57115.547      21886.078      35229.469      9403.4529      9274.6174      9816.9495      1238.2903      71.010271      16024.345     -10599.197     -730.41877      110057.43      47.922536      47.922536      47.922536      1.113827      -564.44981      2437.515       2604.4027    
    487000   487000         849.38619      2768.872       61274.26       56839.371      22075.278      34764.093      9268.7279      9145.1265      9712.496       1224.8632      27.602239      15998.352     -10613.075     -731.95986      109825.71      47.88888       47.88888       47.88888       1.1161771      1354.7117      3611.5882      3340.316     
    488000   488000         857.90665     -137.66499      57309.894      57533.317      22296.722      35236.596      9522.8003      9125.7207      9858.8244      1219.649       39.423333      16059.463     -10589.285     -722.37497      111282.94      48.099755      48.099755      48.099755      1.1015609      2001.4471     -1775.0033     -639.43878    
    489000   489000         851.3259       1769.0978      60026.861      57179.27       22125.69       35053.58       9362.5632      9183.1351      9834.4425      1230.4059      20.55976       16028.292     -10605.818     -728.35224      110369.69      47.967816      47.967816      47.967816      1.1106758      656.00306      1081.1553      3570.135     
    490000   490000         859.44102      1920.1176      60808.3        57661.86       22336.6        35325.26       9318.8686      9206.3018      9890.2682      1249.383       215.33387      16040.486     -10595.381     -715.44382      112361.04      48.254585      48.254585      48.254585      1.0909915      2468.8342      1624.3696      1667.1489    
    491000   491000         841.13092      1491.5985      59881.69       57437.212      21860.726      35576.486      9662.82        9363.3931      9762.8302      1203.6098      134.99912      16043.441     -10594.606     -715.37385      112372.03      48.256158      48.256158      48.256158      1.0908848      1671.1282      1146.0869      1657.5804    
    492000   492000         855.20055     -554.56027      56659.223      57574.245      22226.391      35347.854      9406.185       9293.8075      9924.4705      1188.0581      88.942564      16043.712     -10597.322     -710.53283      113137.65      48.365504      48.365504      48.365504      1.0835027     -1954.4437      556.25708     -265.49421    
    493000   493000         840.2625       805.22351      58541.661      57201.833      21838.156      35363.678      9283.0194      9216.6305      9925.5285      1179.8862      289.03423      16061.682     -10592.104     -704.58732      114092.34      48.501164      48.501164      48.501164      1.0744363      2550.916      -1450.9457      1315.7003    
    494000   494000         850.45355     -357.66984      56775.811      57375.097      22103.018      35272.079      9410.9187      9242.8529      9739.346       1195.5995      247.20606      16028.72      -10592.564     -699.70516      114888.41      48.613707      48.613707      48.613707      1.0669914     -1502.308       800.49193     -371.1934     
    495000   495000         855.93017      179.685        58017.384      57714.193      22245.354      35468.84       9324.2223      9340.1717      9780.8065      1207.2236      353.58923      16052.27      -10589.444     -694.80535      115698.61      48.727715      48.727715      48.727715      1.0595196      278.18116      670.17529     -409.30144    
    496000   496000         855.01094      1499.2656      60253.002      57733.162      22221.463      35511.699      9250.3312      9144.6647      10081.779      1295.5558      284.15565      16049.125     -10593.913     -697.54577      115244.07      48.66382       48.66382       48.66382       1.0636985      2958.8789      1626.1724     -87.254584    
    497000   497000         842.12342     -653.49472      56013.024      57125.469      21886.521      35238.948      9239.8224      9120.688       9905.0794      1211.0894      291.82933      16055.582     -10585.142     -688.7011       116724.1       48.871257      48.871257      48.871257      1.0502111     -1319.3456     -159.59446     -481.54409    
    498000   498000         857.28666      1911.6011      60733.535      57487.964      22280.608      35207.356      9259.9565      9174.5429      9727.1911      1178.5409      412.1117       16042.192     -10587.18      -690.51541      116417.41      48.828416      48.828416      48.828416      1.0529778      1106.3459      2779.2363      1849.221     
    499000   499000         851.33553      616.99853      58914.935      57852.679      22125.941      35726.738      9658.6707      9066.9431      9978.8497      1197.2066      372.95908      16034.68      -10582.571     -680.96064      118050.9       49.055732      49.055732      49.055732      1.0384076     -86.709992      2523.8762     -586.17061    
    500000   500000         851.2862       463.15735      58597.2        57789.152      22124.658      35664.493      9432.2635      9369.1408      9800.2228      1189.1497      443.34346      16024.757     -10594.384     -671.98297      119628.05      49.273227      49.273227      49.273227      1.0247174     -895.20701      1230.6074      1054.0717    
Loop time of 3048.14 on 1 procs for 500000 steps with 8720 atoms

Performance: 14.173 ns/day, 1.693 hours/ns, 164.035 timesteps/s, 1.430 Matom-step/s
99.9% CPU use with 1 MPI tasks x 1 OpenMP threads

MPI task timing breakdown:
Section |  min time  |  avg time  |  max time  |%varavg| %total
---------------------------------------------------------------
Pair    | 1303.3     | 1303.3     | 1303.3     |   0.0 | 42.76
Bond    | 360.17     | 360.17     | 360.17     |   0.0 | 11.82
Kspace  | 513.53     | 513.53     | 513.53     |   0.0 | 16.85
Neigh   | 599.54     | 599.54     | 599.54     |   0.0 | 19.67
Comm    | 42.204     | 42.204     | 42.204     |   0.0 |  1.38
Output  | 10.375     | 10.375     | 10.375     |   0.0 |  0.34
Modify  | 149.6      | 149.6      | 149.6      |   0.0 |  4.91
Other   |            | 69.44      |            |       |  2.28

Nlocal:           8720 ave        8720 max        8720 min
Histogram: 1 0 0 0 0 0 0 0 0 0
Nghost:          18851 ave       18851 max       18851 min
Histogram: 1 0 0 0 0 0 0 0 0 0
Neighs:              0 ave           0 max           0 min
Histogram: 1 0 0 0 0 0 0 0 0 0
FullNghs:  4.04418e+06 ave 4.04418e+06 max 4.04418e+06 min
Histogram: 1 0 0 0 0 0 0 0 0 0

Total # of neighbors = 4044184
Ave neighs/atom = 463.78257
Ave special neighs/atom = 5.6385321
Neighbor list builds = 43455
Dangerous builds = 0

# --- Cleanup ---
unfix npt_fix

undump dump_npt

# --- Write Output ---
write_dump all custom npt_pppm_last.dump id type mol x y z xu yu zu vx vy vz modify sort id
write_data /home/arz2/PolyJarvis/data/PEEK3/lammps/npt_pppm/npt_pppm_out.data
System init for write_data ...
PPPM Kokkos initialization ...
  using 12-bit tables for long-range coulomb
  G vector (1/distance) = 0.31156068
  grid = 40 40 40
  stencil order = 5
  estimated absolute RMS force accuracy = 0.00027274683
  estimated relative force accuracy = 8.2136898e-07
  using double precision cuFFT
  3d grid and FFT values/proc = 103823 64000
Generated 21 of 21 mixed pair_coeff terms from sixthpower/sixthpower mixing rule

print "STAGE COMPLETE: NPT T=850.0->850.0K P=50000.0->1.0atm steps=500000"
STAGE COMPLETE: NPT T=850.0->850.0K P=50000.0->1.0atm steps=500000
quit
.91
Other   |            | 69.44      |            |       |  2.28

Nlocal:           8720 ave        8720 max        8720 min
Histogram: 1 0 0 0 0 0 0 0 0 0
Nghost:          18851 ave       18851 max       18851 min
Histogram: 1 0 0 0 0 0 0 0 0 0
Neighs:              0 ave           0 max           0 min
Histogram: 1 0 0 0 0 0 0 0 0 0
FullNghs:  4.04418e+06 ave 4.04418e+06 max 4.04418e+06 min
Histogram: 1 0 0 0 0 0 0 0 0 0

Total # of neighbors = 4044184
Ave neighs/atom = 463.78257
Ave special neighs/atom = 5.6385321
Neighbor list builds = 43455
Dangerous builds = 0
System init for write_data ...
PPPM Kokkos initialization ...
  using 12-bit tables for long-range coulomb
  G vector (1/distance) = 0.31156068
  grid = 40 40 40
  stencil order = 5
  estimated absolute RMS force accuracy = 0.00027274683
  estimated relative force accuracy = 8.2136898e-07
  using double precision cuFFT
  3d grid and FFT values/proc = 103823 64000
Generated 21 of 21 mixed pair_coeff terms from sixthpower/sixthpower mixing rule
STAGE COMPLETE: NPT T=850.0->850.0K P=50000.0->1.0atm steps=500000
