units real
atom_style full
boundary p p p

# --- Force Field Styles ---
pair_style lj/class2/coul/long 9.5 9.5
kspace_style pppm 1e-6
dielectric 1.000000
bond_style class2
angle_style class2
dihedral_style class2
improper_style class2
special_bonds lj/coul 0 0 1
pair_modify mix sixthpower tail yes
neighbor 2.0 bin
neigh_modify delay 0 every 1 check yes
neigh_modify one 4000
package gpu 1 neigh no

read_data /home/alexzhao/PolyJarvis/data/PEG1/lammps/equil/minimize/minimize_out.data
Reading data file ...
  orthogonal box = (0 0 0) to (49.321133 49.321133 49.321133)
  1 by 2 by 2 MPI processor grid
  reading atoms ...
  7020 atoms
  reading velocities ...
  7020 velocities
  scanning bonds ...
  4 = max bonds/atom
  scanning angles ...
  6 = max angles/atom
  scanning dihedrals ...
  8 = max dihedrals/atom
  scanning impropers ...
  4 = max impropers/atom
  orthogonal box = (0 0 0) to (49.321133 49.321133 49.321133)
  1 by 2 by 2 MPI processor grid
  reading bonds ...
  7010 bonds
  reading angles ...
  13000 angles
  reading dihedrals ...
  14970 dihedrals
  reading impropers ...
  8000 impropers
Finding 1-2 1-3 1-4 neighbors ...
  special bond factors lj:    0        0        1       
  special bond factors coul:  0        0        1       
     4 = max # of 1-2 neighbors
     6 = max # of 1-3 neighbors
     8 = max # of special neighbors
  special bonds CPU = 0.001 seconds
  read_data CPU = 0.172 seconds
include /home/alexzhao/PolyJarvis/data/PEG1/lammps/cell/emc_build.params
# LAMMPS parameters created by EMC v9.4.4, build Jul 31 2025 20:33:44

# Variables

variable	seed		index	-1
variable	ntotal		index	7020
variable	fshape		index	1
variable	output		index	emc_build
variable	field		index	pcff/pcff
variable	location1	index	~/emc/field/
variable	nav		index	0.6022141179
variable	temperature	index	300
variable	radius		index	5
variable	nrelax		index	100
variable	weight_nonbond	index	0.0001
variable	weight_bond	index	0.0001
variable	weight_focus	index	1
variable	cutoff		index	9.5
variable	charge_cutoff	index	9.5
variable	kappa		index	4
variable	density1	index	0.61
variable	lprevious	index	0
variable	lphase		index	49.3211329242
variable	f_poly		index	10
variable	chem_repeat	index	*CCO*
variable	chem_cap	index	*[H]
variable	lg_repeat	index	7
variable	lg_cap		index	1
variable	norm_poly	index	100
variable	l_poly		index	702
variable	mg_repeat	index	16.04303
variable	mg_cap		index	0
variable	m_poly		index	1604.303
variable	n_poly		index	10
variable	mtotal		index	44073.7394
variable	nphase1		index	7020
variable	mphase1		index	44073.7394
variable	vphase1		index	119977.313144
variable	lbox		index	49.3211329242
variable	lphase1		index	49.3211329242
variable	lxx		index	49.3211329242
variable	lyy		index	49.3211329242
variable	lzz		index	49.3211329242
variable	lzy		index	0
variable	lzx		index	0
variable	lyx		index	0
variable	vtotal		index	119977.313144
variable	nl_poly		index	10

# Types

variable	type_c		index	1
variable	type_hc		index	2
variable	type_ho		index	3
variable	type_oc		index	4
variable	type_oh		index	5

variable	type_bond_c_c	index	1
variable	type_bond_c_hc	index	2
variable	type_bond_c_oc	index	3
variable	type_bond_c_oh	index	4
variable	type_bond_ho_oh	index	5

variable	type_angle_c_c_hc index	1
variable	type_angle_c_c_oc index	2
variable	type_angle_c_c_oh index	3
variable	type_angle_c_oc_c index	4
variable	type_angle_c_oh_ho index	5
variable	type_angle_hc_c_hc index	6
variable	type_angle_hc_c_oc index	7
variable	type_angle_hc_c_oh index	8

# Clusters

variable	n0_poly		index	1
variable	n1_poly		index	10
variable	nl_poly		index	10

# Flags

variable	flag_charged	index	1

# Masses

mass		1    12.01115  # c
mass		2     1.00797  # hc
mass		3     1.00797  # ho
mass		4    15.99940  # oc
mass		5    15.99940  # oh

# Potentials

pair_modify	mix sixthpower tail yes
special_bonds	lj/coul 0 0 1

# Pair Coeffs

pair_coeff	 1  1    0.05400    4.01000  # c,c
pair_coeff	 2  2    0.02000    2.99500  # hc,hc
pair_coeff	 3  3    0.01300    1.09800  # ho,ho
pair_coeff	 4  4    0.24000    3.53500  # oc,oc
pair_coeff	 5  5    0.24000    3.53500  # oh,oh

# Bond Coeffs

bond_coeff	1    1.53000  299.67000 -501.77000  679.81000  # c,c
bond_coeff	2    1.10100  345.00000 -691.89000  844.60000  # c,hc
bond_coeff	3    1.42000  400.39540 -835.19510 1313.01420  # c,oc
bond_coeff	4    1.42000  400.39540 -835.19510 1313.01420  # c,oh
bond_coeff	5    0.96500  532.50620 -1282.90500 2004.76580  # ho,oh

# Angle Coeffs

angle_coeff	1  110.77000   41.45300  -10.60400    5.12900  # c,c,hc
angle_coeff	2  111.27000   54.53810   -8.36420  -13.08380  # c,c,oc
angle_coeff	3  111.27000   54.53810   -8.36420  -13.08380  # c,c,oh
angle_coeff	4  104.50000   35.74540  -10.00670   -6.27290  # c,oc,c
angle_coeff	5  105.80000   52.70610  -12.10900   -9.86810  # c,oh,ho
angle_coeff	6  107.66000   39.64100  -12.92100   -2.43180  # hc,c,hc
angle_coeff	7  108.72800   58.54460  -10.80880  -12.40060  # hc,c,oc
angle_coeff	8  108.72800   58.54460  -10.80880  -12.40060  # hc,c,oh

# BondBond Coeffs

angle_coeff	1 bb    3.38720    1.53000    1.10100  # c,c,hc
angle_coeff	2 bb   11.43180    1.53000    1.42000  # c,c,oc
angle_coeff	3 bb   11.43180    1.53000    1.42000  # c,c,oh
angle_coeff	4 bb   -7.11310    1.42000    1.42000  # c,oc,c
angle_coeff	5 bb   -9.68790    1.42000    0.96500  # c,oh,ho
angle_coeff	6 bb    5.33160    1.10100    1.10100  # hc,c,hc
angle_coeff	7 bb   23.19790    1.10100    1.42000  # hc,c,oc
angle_coeff	8 bb   23.19790    1.10100    1.42000  # hc,c,oh

# BondAngle Coeffs

angle_coeff	1 ba   20.75400   11.42100    1.53000    1.10100  # c,c,hc
angle_coeff	2 ba    2.68680   20.40330    1.53000    1.42000  # c,c,oc
angle_coeff	3 ba    2.68680   20.40330    1.53000    1.42000  # c,c,oh
angle_coeff	4 ba   -2.81120   -2.81120    1.42000    1.42000  # c,oc,c
angle_coeff	5 ba   28.58000   18.92770    1.42000    0.96500  # c,oh,ho
angle_coeff	6 ba   18.10300   18.10300    1.10100    1.10100  # hc,c,hc
angle_coeff	7 ba    4.61890   55.32700    1.10100    1.42000  # hc,c,oc
angle_coeff	8 ba    4.61890   55.32700    1.10100    1.42000  # hc,c,oh

# Dihedral Coeffs

dihedral_coeff	1   -0.52030    0.00000   -0.30280    0.00000   -0.34500    0.00000  # c,c,oc,c
dihedral_coeff	2   -0.67320    0.00000   -0.47780    0.00000   -0.16700    0.00000  # c,c,oh,ho
dihedral_coeff	3    0.53020    0.00000    0.00000    0.00000   -0.39660    0.00000  # c,oc,c,hc
dihedral_coeff	4   -0.14320    0.00000    0.06170    0.00000   -0.10830    0.00000  # hc,c,c,hc
dihedral_coeff	5   -0.14350    0.00000    0.25300    0.00000   -0.09050    0.00000  # hc,c,c,oc
dihedral_coeff	6   -0.14350    0.00000    0.25300    0.00000   -0.09050    0.00000  # hc,c,c,oh
dihedral_coeff	7    0.18630    0.00000   -0.43380    0.00000   -0.21210    0.00000  # hc,c,oh,ho
dihedral_coeff	8   -0.18200    0.00000   -0.10840    0.00000   -0.70470    0.00000  # oc,c,c,oc
dihedral_coeff	9   -0.18200    0.00000   -0.10840    0.00000   -0.70470    0.00000  # oc,c,c,oh

# MiddleBondTorsion Coeffs

dihedral_coeff	1 mbt   -5.92880   -2.70070   -0.31750    1.42000  # c,c,oc,c
dihedral_coeff	2 mbt    1.24720    0.00000    0.74850    1.42000  # c,c,oh,ho
dihedral_coeff	3 mbt   -6.80070   -4.65460   -1.41010    1.42000  # c,oc,c,hc
dihedral_coeff	4 mbt  -14.26100   -0.53220   -0.48640    1.53000  # hc,c,c,hc
dihedral_coeff	5 mbt  -16.79750   -1.22960   -0.27500    1.53000  # hc,c,c,oc
dihedral_coeff	6 mbt  -16.79750   -1.22960   -0.27500    1.53000  # hc,c,c,oh
dihedral_coeff	7 mbt    0.00000    0.92410   -0.58890    1.42000  # hc,c,oh,ho
dihedral_coeff	8 mbt  -17.25850   -3.61570   -0.83640    1.53000  # oc,c,c,oc
dihedral_coeff	9 mbt  -17.25850   -3.61570   -0.83640    1.53000  # oc,c,c,oh

# EndBondTorsion Coeffs

dihedral_coeff	1 ebt   -0.24560    1.05170   -0.77950    0.47410    1.26350    0.55760    1.53000    1.42000  # c,c,oc,c
dihedral_coeff	2 ebt   -0.58000    0.90040    0.00000    0.00000    0.53430    0.90250    1.53000    0.96500  # c,c,oh,ho
dihedral_coeff	3 ebt   -0.16200    0.15640   -1.14080   -0.60540    1.33390    0.96480    1.42000    1.10100  # c,oc,c,hc
dihedral_coeff	4 ebt    0.21300    0.31200    0.07770    0.21300    0.31200    0.07770    1.10100    1.10100  # hc,c,c,hc
dihedral_coeff	5 ebt    0.96810    0.95510    0.04360    0.59030    0.66690    0.85840    1.10100    1.42000  # hc,c,c,oc
dihedral_coeff	6 ebt    0.96810    0.95510    0.04360    0.59030    0.66690    0.85840    1.10100    1.42000  # hc,c,c,oh
dihedral_coeff	7 ebt   -1.75540    1.31450    0.22630    0.24930    0.68030    0.00000    1.10100    0.96500  # hc,c,oh,ho
dihedral_coeff	8 ebt    1.01650    0.75530   -0.46090    1.01650    0.75530   -0.46090    1.42000    1.42000  # oc,c,c,oc
dihedral_coeff	9 ebt    1.01650    0.75530   -0.46090    1.01650    0.75530   -0.46090    1.42000    1.42000  # oc,c,c,oh

# AngleTorsion Coeffs

dihedral_coeff	1 at   -2.74660    1.48770   -0.89550    0.56760    0.94500    0.07030  111.27000  104.50000  # c,c,oc,c
dihedral_coeff	2 at   -3.59030    2.52250    0.48880    0.87260   -0.35770    0.38880  111.27000  105.80000  # c,c,oh,ho
dihedral_coeff	3 at   -0.77770    0.43400   -0.66530   -1.82340    1.63930    0.51440  104.50000  108.72800  # c,oc,c,hc
dihedral_coeff	4 at   -0.80850    0.55690   -0.24660   -0.80850    0.55690   -0.24660  110.77000  110.77000  # hc,c,c,hc
dihedral_coeff	5 at    2.36680    2.49200   -1.01220   -0.18920    0.49180    0.72730  110.77000  111.27000  # hc,c,c,oc
dihedral_coeff	6 at    2.36680    2.49200   -1.01220   -0.18920    0.49180    0.72730  110.77000  111.27000  # hc,c,c,oh
dihedral_coeff	7 at   -3.40600    1.63960    0.07370    0.00000   -0.28100   -0.59440  108.72800  105.80000  # hc,c,oh,ho
dihedral_coeff	8 at    0.55110    0.97370   -0.66730    0.55110    0.97370   -0.66730  111.27000  111.27000  # oc,c,c,oc
dihedral_coeff	9 at    0.55110    0.97370   -0.66730    0.55110    0.97370   -0.66730  111.27000  111.27000  # oc,c,c,oh

# AngleAngleTorsion Coeffs

dihedral_coeff	1 aat  -19.00590  111.27000  104.50000  # c,c,oc,c
dihedral_coeff	2 aat  -12.10380  111.27000  105.80000  # c,c,oh,ho
dihedral_coeff	3 aat  -16.44380  104.50000  108.72800  # c,oc,c,hc
dihedral_coeff	4 aat  -12.56400  110.77000  110.77000  # hc,c,c,hc
dihedral_coeff	5 aat  -20.20060  110.77000  111.27000  # hc,c,c,oc
dihedral_coeff	6 aat  -20.20060  110.77000  111.27000  # hc,c,c,oh
dihedral_coeff	7 aat  -10.50930  108.72800  105.80000  # hc,c,oh,ho
dihedral_coeff	8 aat  -14.04840  111.27000  111.27000  # oc,c,c,oc
dihedral_coeff	9 aat  -14.04840  111.27000  111.27000  # oc,c,c,oh

# BondBond13 Coeffs

dihedral_coeff	1 bb13    0.00000    1.53000    1.42000  # c,c,oc,c
dihedral_coeff	2 bb13    0.00000    1.53000    0.96500  # c,c,oh,ho
dihedral_coeff	3 bb13    0.00000    1.42000    1.10100  # c,oc,c,hc
dihedral_coeff	4 bb13    0.00000    1.10100    1.10100  # hc,c,c,hc
dihedral_coeff	5 bb13    0.00000    1.10100    1.42000  # hc,c,c,oc
dihedral_coeff	6 bb13    0.00000    1.10100    1.42000  # hc,c,c,oh
dihedral_coeff	7 bb13    0.00000    1.10100    0.96500  # hc,c,oh,ho
dihedral_coeff	8 bb13    0.00000    1.42000    1.42000  # oc,c,c,oc
dihedral_coeff	9 bb13    0.00000    1.42000    1.42000  # oc,c,c,oh

# Improper Coeffs

improper_coeff	1    0.00000    0.00000  # c,c,hc,hc
improper_coeff	2    0.00000    0.00000  # c,c,hc,oc
improper_coeff	3    0.00000    0.00000  # c,c,oc,hc
improper_coeff	4    0.00000    0.00000  # c,c,oh,hc
improper_coeff	5    0.00000    0.00000  # c,hc,hc,hc
improper_coeff	6    0.00000    0.00000  # c,hc,hc,oc
improper_coeff	7    0.00000    0.00000  # c,hc,hc,oh

# AngleAngle Coeffs

improper_coeff	1 aa    0.27380   -0.48250    0.27380  110.77000  110.77000  107.66000  # c,c,hc,hc
improper_coeff	2 aa    3.91770    2.59260    0.16890  110.77000  111.27000  108.72800  # c,c,hc,oc
improper_coeff	3 aa    0.16890    2.59260    3.91770  111.27000  110.77000  108.72800  # c,c,oc,hc
improper_coeff	4 aa    0.16890    2.59260    3.91770  111.27000  110.77000  108.72800  # c,c,oh,hc
improper_coeff	5 aa   -0.31570   -0.31570   -0.31570  107.66000  107.66000  107.66000  # c,hc,hc,hc
improper_coeff	6 aa    2.42590    2.42590    2.12830  107.66000  108.72800  108.72800  # c,hc,hc,oc
improper_coeff	7 aa    2.42590    2.42590    2.12830  107.66000  108.72800  108.72800  # c,hc,hc,oh


# --- Thermo Output ---
thermo_style custom step time temp press enthalpy etotal ke pe ebond eangle edihed eimp evdwl ecoul elong etail vol lx ly lz density pxx pyy pzz
thermo_modify flush yes
thermo 1000

# --- Trajectory ---
dump dump_nvt all custom 1000 nvt_softheat.dump id type mol x y z ix iy iz vx vy vz

# --- Restart Checkpointing ---
restart 10000 nvt_1.rst nvt_2.rst

# --- Initial Velocities (optional) ---
velocity all create 300.0 548980 mom yes rot yes dist gaussian

# --- SHAKE Constraints ---
# Constrains H-X bonds to allow 2fs timestep
# SHAKE disabled

# --- NVT Thermostat (Nose-Hoover) ---
# T_damp = 50.0 fs  (coupling timescale for heat exchange)
# Ramp: 300.0 K -> 580.0 K over 500000 steps
timestep 0.5
fix nvt_fix all nvt temp 300.0 580.0 50.0

run 500000

CITE-CITE-CITE-CITE-CITE-CITE-CITE-CITE-CITE-CITE-CITE-CITE-CITE

Your simulation uses code contributions which should be cited:

- GPU package (short-range, long-range and three-body potentials): doi:10.1016/j.cpc.2010.12.021, doi:10.1016/j.cpc.2011.10.012, doi:10.1016/j.cpc.2013.08.002, doi:10.1016/j.commatsci.2014.10.068, doi:10.1016/j.cpc.2016.10.020, doi:10.3233/APC200086

@Article{Brown11,
 author = {W. M. Brown and P. Wang and S. J. Plimpton and A. N. Tharrington},
 title = {Implementing Molecular Dynamics on Hybrid High Performance Computers---Short Range Forces},
 journal = {Comput.\ Phys.\ Commun.},
 year =    2011,
 volume =  182,
 pages =   {898--911},
 doi =     {10.1016/j.cpc.2010.12.021}
}

@Article{Brown12,
 author = {W. M. Brown and A. Kohlmeyer and S. J. Plimpton and A. N. Tharrington},
 title = {Implementing Molecular Dynamics on Hybrid High Performance Computers - Particle-Particle Particle-Mesh},
 journal = {Comput.\ Phys.\ Commun.},
 year =    2012,
 volume =  183,
 doi =     {10.1016/j.cpc.2011.10.012},
 pages =   {449--459}
}

@Article{Brown13,
 author = {W. M. Brown and Y. Masako},
 title = {Implementing Molecular Dynamics on Hybrid High Performance Computers---Three-Body Potentials},
 journal = {Comput.\ Phys.\ Commun.},
 year =    2013,
 volume =  184,
 pages =   {2785--2793},
 doi =     {10.1016/j.cpc.2013.08.002},
}

@Article{Trung15,
 author = {T. D. Nguyen and S. J. Plimpton},
 title = {Accelerating Dissipative Particle Dynamics Simulations for Soft Matter Systems},
 journal = {Comput.\ Mater.\ Sci.},
 year =    2015,
 doi =     {10.1016/j.commatsci.2014.10.068},
 volume =  100,
 pages =   {173--180}
}

@Article{Trung17,
 author = {T. D. Nguyen},
 title = {{GPU}-Accelerated {T}ersoff Potentials for Massively Parallel
    Molecular Dynamics Simulations},
 journal = {Comput.\ Phys.\ Commun.},
 year =    2017,
 doi =     {10.1016/j.cpc.2016.10.020},
 volume =  212,
 pages =   {113--122}
}

@inproceedings{Nikolskiy19,
 author = {V. Nikolskiy and V. Stegailov},
 title = {{GPU} Acceleration of Four-Site Water Models in {LAMMPS}},
 booktitle = {Proceedings of the International Conference on Parallel
    Computing (ParCo 2019), Prague, Czech Republic},
 doi =     {10.3233/APC200086},
 year =    2019
}

CITE-CITE-CITE-CITE-CITE-CITE-CITE-CITE-CITE-CITE-CITE-CITE-CITE

PPPM initialization ...
  using 12-bit tables for long-range coulomb
  G vector (1/distance) = 0.29292283
  grid = 32 32 32
  stencil order = 5
  estimated absolute RMS force accuracy = 0.00039792135
  estimated relative force accuracy = 1.1983283e-06
  using double precision KISS FFT
  3d grid and FFT values/proc = 20631 8192
Generated 10 of 10 mixed pair_coeff terms from sixthpower/sixthpower mixing rule
Neighbor list info ...
  update: every = 1 steps, delay = 0 steps, check = yes
  max neighbors/atom: 4000, page size: 100000
  master list distance cutoff = 11.5
  ghost atom cutoff = 11.5
  binsize = 5.75, bins = 9 9 9
  1 neighbor lists, perpetual/occasional/extra = 1 0 0
  (1) pair lj/class2/coul/long/gpu, perpetual
      attributes: full, newton on
      pair build: full/bin
      stencil: full/bin/3d
      bin: standard
Per MPI rank memory allocation (min/avg/max) = 18 | 19.25 | 20.74 Mbytes
   Step          Time           Temp          Press         Enthalpy        TotEng         KinEng         PotEng         E_bond        E_angle        E_dihed        E_impro         E_vdwl         E_coul         E_long         E_tail         Volume           Lx             Ly             Lz          Density          Pxx            Pyy            Pzz      
         0   0              300            1534.3976      2733.6814      48.875162      6276.6917     -6227.8166      81.158996      2355.4743     -8672.2084     -14.17066      -2404.1053      7053.9495     -4627.915      -267.5732       119977.31      49.321133      49.321133      49.321133      0.60999999     1553.5465      1508.1309      1541.5155    
      1000   500            309.85075     -379.44315      6182.7683      6846.6975      6482.792       363.90547      2446.0593      5317.6035     -8121.5592     -55.785885     -1671.8102      7075.7156     -4626.3176     -267.5732       119977.31      49.321133      49.321133      49.321133      0.60999999    -1229.2478      158.52607     -67.607678    
      2000   1000           303.43352     -916.70304      4980.027       6584.0245      6348.5289      235.49559      2338.7409      5286.9587     -8222.0291     -56.910051     -1575.5791      7090.837      -4626.5227     -267.5732       119977.31      49.321133      49.321133      49.321133      0.60999999    -338.527       -273.60143     -2137.9807    
      3000   1500           294.91999     -1491.3543      3975.4361      6584.9273      6170.4063      414.521        2428.0994      5359.8674     -8223.6024     -58.133441     -1529.3162      7067.9733     -4630.3671     -267.5732       119977.31      49.321133      49.321133      49.321133      0.60999999    -492.40563     -1976.1023     -2005.5549    
      4000   2000           304.54476     -1428.1217      4150.3691      6649.2195      6371.7786      277.44089      2421.1279      5293.2045     -8250.6501     -57.497773     -1560.9758      7069.0178     -4636.7856     -267.5732       119977.31      49.321133      49.321133      49.321133      0.60999999    -2273.7767     -1059.0281     -951.56045    
      5000   2500           297.00467     -811.51856      5108.5825      6528.5339      6214.0225      314.51136      2351.4385      5447.1382     -8321.5636     -54.658952     -1539.5902      7074.3274     -4642.58       -267.5732       119977.31      49.321133      49.321133      49.321133      0.60999999    -1168.8627     -716.79025     -548.90275    
      6000   3000           304.47555     -1302.614       4374.4178      6653.6614      6370.3306      283.33083      2348.097       5290.9043     -8245.3142     -57.873881     -1477.1078      7066.7072     -4642.0819     -267.5732       119977.31      49.321133      49.321133      49.321133      0.60999999    -1178.568      -1517.6975     -1211.5764    
      7000   3500           303.0763      -1078.2551      4664.7938      6551.4664      6341.055       210.41144      2349.9558      5282.3108     -8284.5561     -53.179579     -1499.121       7062.8309     -4647.8294     -267.5732       119977.31      49.321133      49.321133      49.321133      0.60999999    -877.9052      -1347.1729     -1009.6872    
      8000   4000           304.56144     -1159.5968      4581.7088      6610.7087      6372.1276      238.58114      2362.6105      5381.8029     -8278.6197     -54.494352     -1589.0577      7064.3473     -4648.0077     -267.5732       119977.31      49.321133      49.321133      49.321133      0.60999999    -1003.7413     -904.63529     -1570.4139    
      9000   4500           306.76359     -473.09775      5721.6657      6549.4667      6418.2016      131.2651       2333.0031      5201.2261     -8229.7815     -58.174583     -1533.5709      7066.2722     -4647.7094     -267.5732       119977.31      49.321133      49.321133      49.321133      0.60999999    -365.40799     -1119.6062      65.720892    
     10000   5000           306.11052     -960.83261      4879.7075      6560.9206      6404.5378      156.38274      2341.1137      5298.3429     -8286.5394     -53.769235     -1573.0826      7072.1437     -4641.8262     -267.5732       119977.31      49.321133      49.321133      49.321133      0.60999999    -738.27799     -1288.6166     -855.60321    
     11000   5500           301.16744     -702.51951      5208.1609      6437.3916      6301.1172      136.27442      2322.0118      5292.1737     -8273.7171     -52.962686     -1537.3543      7036.6578     -4650.5347     -267.5732       119977.31      49.321133      49.321133      49.321133      0.60999999    -532.02544     -968.13576     -607.39732    
     12000   6000           309.22782     -444.80973      5699.5665      6477.8706      6469.7589      8.1116741      2325.6288      5201.9188     -8240.7183     -52.232339     -1615.1647      7039.3293     -4650.65       -267.5732       119977.31      49.321133      49.321133      49.321133      0.60999999     321.12672     -730.07371     -925.48218    
     13000   6500           306.19022     -1071.0692      4622.495       6496.594       6406.2055      90.388566      2256.891       5343.0102     -8237.7167     -57.265644     -1580.9711      7019.2511     -4652.8103     -267.5732       119977.31      49.321133      49.321133      49.321133      0.60999999    -875.71849     -1235.408      -1102.081     
     14000   7000           304.27055     -780.43588      5069.1378      6434.7024      6366.0415      68.660848      2359.3033      5200.305      -8192.1886     -54.207264     -1612.2346      7023.7392     -4656.0562     -267.5732       119977.31      49.321133      49.321133      49.321133      0.60999999    -1483.1251     -190.88911     -667.29344    
     15000   7500           308.13685     -800.28514      5109.0418      6509.3376      6446.9334      62.404127      2348.0893      5290.1037     -8267.4608     -57.341134     -1620.1855      7026.7773     -4657.5787     -267.5732       119977.31      49.321133      49.321133      49.321133      0.60999999     61.093801     -1904.2051     -557.74414    
     16000   8000           312.37749     -225.2666       6207.2713      6601.4306      6535.6574      65.773247      2301.1029      5368.5856     -8318.2846     -54.666435     -1594.1679      7022.6858     -4659.4822     -267.5732       119977.31      49.321133      49.321133      49.321133      0.60999999    -283.46287     -105.16516     -287.17176    
     17000   8500           303.49855      548.06713      7413.5409      6454.5626      6349.8895      104.67304      2314.2851      5337.7253     -8287.2799     -54.798687     -1555.0027      7010.42       -4660.6761     -267.5732       119977.31      49.321133      49.321133      49.321133      0.60999999     63.720024      1029.7364      550.745      
     18000   9000           307.42095     -447.53192      5546.0231      6329.0903      6431.9551     -102.86485      2331.2076      5193.3019     -8250.7647     -56.942748     -1655.7528      7005.0578     -4668.9719     -267.5732       119977.31      49.321133      49.321133      49.321133      0.60999999    -469.03709     -839.32253     -34.23613     
     19000   9500           307.69458     -881.74674      4984.9197      6527.7526      6437.6801      90.072513      2350.6737      5306.0275     -8249.4612     -54.55191      -1586.9991      6992.8628     -4668.4793     -267.5732       119977.31      49.321133      49.321133      49.321133      0.60999999    -1351.3856     -508.16751     -785.68716    
     20000   10000          312.31929     -344.85574      6096.5797      6699.9897      6534.4396      165.55007      2362.9352      5368.8096     -8280.8688     -56.314039     -1577.7703      7007.6869     -4658.9286     -267.5732       119977.31      49.321133      49.321133      49.321133      0.60999999    -1225.7038     -80.433174      271.56979    
     21000   10500          309.34157     -590.69133      5491.8886      6525.4485      6472.139       53.309504      2341.4814      5390.7242     -8333.6128     -55.889147     -1627.2458      7001.0985     -4663.2468     -267.5732       119977.31      49.321133      49.321133      49.321133      0.60999999    -146.71954     -245.46768     -1379.8868    
     22000   11000          313.19968      66.494849      6786.3642      6670.0151      6552.8595      117.15564      2391.3676      5368.2348     -8300.4918     -52.094647     -1627.8348      7005.5092     -4667.5347     -267.5732       119977.31      49.321133      49.321133      49.321133      0.60999999    -561.45782      411.46198      349.48038    
     23000   11500          316.04718      854.55393      8091.5536      6596.3012      6612.4356     -16.134427      2332.1389      5315.6958     -8280.0307     -56.54204      -1637.3507      6984.086      -4674.1316     -267.5732       119977.31      49.321133      49.321133      49.321133      0.60999999     383.18655      612.37987      1568.0954    
     24000   12000          310.54021     -630.47241      5625.0576      6728.2242      6497.2172      231.00707      2438.6009      5451.1516     -8250.8311     -55.879594     -1688.1615      6999.9713     -4663.8445     -267.5732       119977.31      49.321133      49.321133      49.321133      0.60999999    -49.652852     -1364.7513     -477.01306    
     25000   12500          315.63758      178.69109      7059.8318      6747.1678      6603.8659      143.3019       2442.8942      5386.4476     -8322.1347     -59.120244     -1612.3623      6980.6052     -4673.0278     -267.5732       119977.31      49.321133      49.321133      49.321133      0.60999999     445.10385      561.81743     -470.84801    
     26000   13000          312.23282     -326.98413      5987.9944      6560.1336      6532.6304      27.503132      2351.3174      5312.3542     -8273.3067     -55.605718     -1634.4216      6996.2504     -4669.0849     -267.5732       119977.31      49.321133      49.321133      49.321133      0.60999999    -943.36508      246.10031     -283.68761    
     27000   13500          313.80526      73.68127       6783.0747      6654.1512      6565.5295      88.621689      2457.4731      5237.3355     -8273.7002     -54.723457     -1607.123       6996.2478     -4666.888      -267.5732       119977.31      49.321133      49.321133      49.321133      0.60999999    -722.08515      246.91639      696.21257    
     28000   14000          315.20097     -439.76615      6024.4958      6793.9748      6594.7311      199.24374      2463.4815      5503.0097     -8316.3783     -55.500797     -1703.535       6974.6153     -4666.4485     -267.5732       119977.31      49.321133      49.321133      49.321133      0.60999999    -299.95527     -1151.8636      132.52042    
     29000   14500          314.46038      82.32106       6802.1555      6658.1145      6579.2363      78.878256      2383.7248      5265.4768     -8241.3448     -56.505965     -1582.7598      6980.264      -4669.9768     -267.5732       119977.31      49.321133      49.321133      49.321133      0.60999999    -411.14007     -46.78948       704.89273    
     30000   15000          322.65681     -842.28574      5355.5396      6829.3257      6750.7245      78.601216      2448.7297      5263.327      -8283.4986     -57.085373     -1611.3251      6985.4978     -4667.0443     -267.5732       119977.31      49.321133      49.321133      49.321133      0.60999999    -1078.8738     -1552.0436      104.06019    
     31000   15500          317.62817     -537.9777       5831.9002      6773.2245      6645.5137      127.71082      2433.2988      5355.8031     -8266.4366     -59.308881     -1640.1467      6976.5885     -4672.0874     -267.5732       119977.31      49.321133      49.321133      49.321133      0.60999999    -856.1275      -181.33089     -576.47472    
     32000   16000          314.75136     -702.57453      5456.6983      6686.0253      6585.3243      100.70098      2414.9949      5375.116      -8300.7022     -59.630413     -1617.9708      6965.1318     -4676.2383     -267.5732       119977.31      49.321133      49.321133      49.321133      0.60999999    -324.41738     -560.5065      -1222.7997    
     33000   16500          317.77134     -624.10855      5674.7422      6766.7737      6648.5092      118.26452      2505.4432      5338.4948     -8373.6236     -57.57961      -1600.5371      6979.7386     -4673.6719     -267.5732       119977.31      49.321133      49.321133      49.321133      0.60999999    -609.35613     -446.28112     -816.6884     
     34000   17000          324.09692     -81.687312      6754.7896      6897.7216      6780.8548      116.86683      2416.6913      5338.9996     -8297.7052     -59.061481     -1584.9892      6972.7372     -4669.8053     -267.5732       119977.31      49.321133      49.321133      49.321133      0.60999999     651.08057     -776.09675     -120.04576    
     35000   17500          321.18217     -875.48585      5229.6636      6761.5415      6719.8716      41.669914      2417.3637      5325.5187     -8328.02       -57.592488     -1631.3452      6986.0501     -4670.3049     -267.5732       119977.31      49.321133      49.321133      49.321133      0.60999999    -521.13981     -926.85946     -1178.4583    
     36000   18000          317.6015      -586.98657      5761.688       6788.7655      6644.9558      143.80972      2462.9682      5413.637      -8303.5084     -58.458496     -1671.4093      6971.9624     -4671.3816     -267.5732       119977.31      49.321133      49.321133      49.321133      0.60999999    -221.06504     -767.83405     -772.06064    
     37000   18500          319.83869     -358.59476      6113.3347      6740.7844      6691.7629      49.02148       2415.2104      5417.3824     -8377.1471     -59.670481     -1628.4547      6956.6557     -4674.9548     -267.5732       119977.31      49.321133      49.321133      49.321133      0.60999999    -312.37002     -840.91421      77.499961    
     38000   19000          320.53479     -819.01126      5448.6237      6881.6854      6706.3268      175.35858      2532.2697      5370.199      -8344.6789     -55.67971      -1598.9431      6948.4276     -4676.236      -267.5732       119977.31      49.321133      49.321133      49.321133      0.60999999    -55.423739     -871.55426     -1530.0558    
     39000   19500          323.02185     -431.21074      6040.9123      6795.4216      6758.362       37.059613      2486.1619      5215.2364     -8239.2321     -56.052753     -1644.1957      6951.9545     -4676.8127     -267.5732       119977.31      49.321133      49.321133      49.321133      0.60999999     210.28671     -799.2549      -704.66404    
     40000   20000          318.2631      -1167.4791      4676.9784      6719.7703      6658.798       60.972278      2434.0677      5481.4341     -8362.9895     -57.080484     -1701.8509      6940.7883     -4673.3969     -267.5732       119977.31      49.321133      49.321133      49.321133      0.60999999    -1225.6201     -902.57219     -1374.245     
     41000   20500          318.32231      231.79997      7121.5706      6715.9795      6660.0367      55.94283       2494.054       5409.899      -8387.4035     -59.553013     -1659.1428      6931.3974     -4673.3082     -267.5732       119977.31      49.321133      49.321133      49.321133      0.60999999    -1097.7266      1293.8636      499.26299    
     42000   21000          324.97592      125.31565      7089.4008      6870.1302      6799.2455      70.88471       2492.232       5377.362      -8308.5168     -57.288126     -1683.34        6930.3641     -4679.9284     -267.5732       119977.31      49.321133      49.321133      49.321133      0.60999999    -305.59333      230.28346      451.25683    
     43000   21500          328.02406     -548.27347      5929.9764      6889.3158      6863.0198      26.295994      2453.4156      5448.2091     -8380.6272     -55.373717     -1717.7011      6946.9764     -4668.6031     -267.5732       119977.31      49.321133      49.321133      49.321133      0.60999999    -579.71154     -836.88071     -228.22816    
     44000   22000          327.17491     -805.96727      5630.8114      7041.0494      6845.2535      195.79597      2558.4563      5334.8785     -8269.0981     -55.415744     -1656.1269      6954.1764     -4671.0744     -267.5732       119977.31      49.321133      49.321133      49.321133      0.60999999    -1009.4387     -906.92144     -501.54164    
     45000   22500          322.6345      -557.31519      5897.7446      6872.9047      6750.2576      122.64708      2556.6686      5270.832      -8288.6318     -56.567146     -1636.7379      6947.8768     -4670.7935     -267.5732       119977.31      49.321133      49.321133      49.321133      0.60999999    -397.58184     -630.42237     -643.94135    
     46000   23000          323.06947     -472.82212      6013.9093      6841.2279      6759.3583      81.869672      2505.9296      5366.6097     -8304.8997     -56.758153     -1723.281       6961.9837     -4667.7145     -267.5732       119977.31      49.321133      49.321133      49.321133      0.60999999     369.05103     -767.65547     -1019.8619    
     47000   23500          324.62186     -741.15882      5580.6816      6877.5213      6791.8378      85.683489      2521.2084      5280.3197     -8323.8914     -58.574848     -1604.7168      6944.9291     -4673.5907     -267.5732       119977.31      49.321133      49.321133      49.321133      0.60999999    -1495.7166     -388.39075     -339.3691     
     48000   24000          330.98747     -252.03357      6675.1016      7116.0964      6925.021       191.07534      2480.0737      5447.1614     -8235.6321     -60.218489     -1726.4966      6960.6038     -4674.4163     -267.5732       119977.31      49.321133      49.321133      49.321133      0.60999999    -376.08803      1.2866663     -381.29935    
     49000   24500          327.72686     -980.79402      5229.4659      6945.6063      6856.8016      88.804719      2543.53        5236.899      -8260.2996     -57.234189     -1641.2659      6946.97       -4679.7946     -267.5732       119977.31      49.321133      49.321133      49.321133      0.60999999    -838.0441      -687.20542     -1417.1325    
     50000   25000          327.26983      37.938778      6941.3261      6874.9428      6847.2394      27.703453      2554.3574      5244.2414     -8295.4821     -54.18113      -1660.6808      6925.7748     -4686.3261     -267.5732       119977.31      49.321133      49.321133      49.321133      0.60999999     212.25366      185.45093     -283.88825    
     51000   25500          335.79288     -214.37968      6763.5273      7138.6373      7025.5614      113.0759       2522.5336      5376.5139     -8324.3631     -59.161374     -1659.5929      6940.3943     -4683.2486     -267.5732       119977.31      49.321133      49.321133      49.321133      0.60999999    -330.55026     -439.09163      126.50286    
     52000   26000          323.40584     -444.04855      6150.024       6926.9962      6766.3958      160.60039      2476.406       5464.0581     -8318.1191     -59.690217     -1646.3022      6929.4414     -4685.1936     -267.5732       119977.31      49.321133      49.321133      49.321133      0.60999999    -1806.2977     -214.49588      688.64788    
     53000   26500          335.1184      -403.9714       6563.6945      7270.5419      7011.4496      259.09228      2592.1959      5552.5489     -8330.282      -58.257204     -1724.0865      6909.0626     -4682.0895     -267.5732       119977.31      49.321133      49.321133      49.321133      0.60999999    -322.87532     -956.80605      67.767172    
     54000   27000          328.92076      549.28368      8048.6164      7087.5094      6881.7807      205.72875      2536.8543      5473.9606     -8351.4816     -54.234904     -1646.3368      6933.0615     -4686.0943     -267.5732       119977.31      49.321133      49.321133      49.321133      0.60999999     591.15224      382.56876      674.13005    
     55000   27500          327.0342      -1520.9609      4325.3866      6986.6819      6842.3095      144.37243      2534.7115      5464.6823     -8361.4465     -58.171997     -1674.2793      6924.5792     -4685.7028     -267.5732       119977.31      49.321133      49.321133      49.321133      0.60999999    -1521.4987     -1565.065      -1476.3189    
     56000   28000          335.75823      25.078337      7264.7901      7220.9094      7024.8364      196.073        2589.3417      5415.2754     -8375.2742     -59.902068     -1623.7506      6934.5184     -4684.1356     -267.5732       119977.31      49.321133      49.321133      49.321133      0.60999999    -72.309634      377.84872     -230.30407    
     57000   28500          330.70121     -708.9451       5805.2821      7045.756       6919.0318      126.72426      2517.4336      5542.4939     -8385.7272     -57.039217     -1741.893       6932.9493     -4681.4931     -267.5732       119977.31      49.321133      49.321133      49.321133      0.60999999    -458.93387     -916.76258     -751.13885    
     58000   29000          324.84427     -394.63538      6312.0872      7002.5989      6796.4911      206.10787      2580.938       5378.2698     -8272.1412     -58.723974     -1672.4956      6935.0769     -4684.8159     -267.5732       119977.31      49.321133      49.321133      49.321133      0.60999999     627.72881     -1040.67       -770.96498    
     59000   29500          332.744        291.49046      7681.9656      7171.9314      6961.7717      210.15964      2543.8748      5441.8401     -8320.093      -60.394659     -1635.3815      6923.2525     -4682.9387     -267.5732       119977.31      49.321133      49.321133      49.321133      0.60999999     685.20015      569.56816     -380.29693    
     60000   30000          332.72921     -1230.7469      4985.6888      7139.1832      6961.4623      177.7209       2629.8445      5426.4042     -8383.4624     -57.828635     -1689.092       6935.9455     -4684.0902     -267.5732       119977.31      49.321133      49.321133      49.321133      0.60999999    -698.21023     -2204.4271     -789.60327    
     61000   30500          339.59423     -32.365194      7252.055       7308.6859      7105.0942      203.59169      2532.2782      5477.5423     -8290.3621     -57.583623     -1707.5252      6936.0079     -4686.7657     -267.5732       119977.31      49.321133      49.321133      49.321133      0.60999999     159.94272     -262.23695      5.1986485    
     62000   31000          337.93043     -765.90021      5869.2802      7209.411       7070.2837      139.12736      2588.0397      5384.25       -8342.6835     -56.056114     -1690.1664      6939.8357     -4684.092      -267.5732       119977.31      49.321133      49.321133      49.321133      0.60999999    -1020.9467      495.36568     -1772.1197    
     63000   31500          339.68665     -201.50614      6924.6992      7277.2838      7107.0279      170.25586      2545.826       5522.4364     -8318.9602     -57.143615     -1774.117       6934.5301     -4682.3159     -267.5732       119977.31      49.321133      49.321133      49.321133      0.60999999    -829.18299      324.31348     -99.648914    
     64000   32000          336.42928     -951.94065      5759.3848      7425.0392      7038.8763      386.16291      2669.7247      5489.8214     -8289.4777     -57.788963     -1674.1078      6930.5962     -4682.6049     -267.5732       119977.31      49.321133      49.321133      49.321133      0.60999999    -501.36753     -1512.9833     -841.47108    
     65000   32500          336.92947     -537.89586      6296.9358      7238.117       7049.3413      188.77566      2571.3405      5503.4808     -8356.9268     -61.885241     -1691.4122      6910.169      -4685.9904     -267.5732       119977.31      49.321133      49.321133      49.321133      0.60999999    -91.274413     -738.76627     -783.64689    
     66000   33000          340.37209     -985.92822      5649.0841      7374.2081      7121.3689      252.83922      2635.0055      5451.1227     -8288.5039     -53.899415     -1710.8193      6902.0274     -4682.0937     -267.5732       119977.31      49.321133      49.321133      49.321133      0.60999999    -1718.5366     -285.15522     -954.09287    
     67000   33500          336.63115      25.903569      7348.9485      7303.6238      7043.0999      260.52391      2617.5905      5436.9874     -8370.4319     -57.924361     -1600.9732      6922.489      -4687.2135     -267.5732       119977.31      49.321133      49.321133      49.321133      0.60999999    -371.99725      172.38436      277.3236     
     68000   34000          330.54596     -1061.0734      5436.0658      7292.6747      6915.7836      376.89113      2679.2198      5538.0298     -8367.7352     -57.828909     -1632.4891      6911.9344     -4694.2398     -267.5732       119977.31      49.321133      49.321133      49.321133      0.60999999    -2137.3502     -954.11398     -91.755977    
     69000   34500          337.20705     -402.57231      6545.5505      7249.9498      7055.1491      194.80074      2536.9557      5522.1801     -8376.5023     -59.807912     -1651.2451      6910.1676     -4686.9473     -267.5732       119977.31      49.321133      49.321133      49.321133      0.60999999    -709.03494     -304.61196     -194.07003    
     70000   35000          335.94336     -612.02003      6221.0762      7291.9558      7028.7097      263.24606      2619.1076      5408.7445     -8244.0778     -57.366257     -1704.8109      6919.1213     -4677.4724     -267.5732       119977.31      49.321133      49.321133      49.321133      0.60999999    -121.00702     -999.47164     -715.58143    
     71000   35500          343.15368     -99.739653      7376.6384      7551.1575      7179.5662      371.59134      2711.8326      5477.8934     -8321.3673     -58.95844      -1669.5393      6916.5133     -4684.783      -267.5732       119977.31      49.321133      49.321133      49.321133      0.60999999     413.48764     -548.33527     -164.37133    
     72000   36000          346.43384     -835.45033      6145.066       7606.8919      7248.1947      358.69723      2659.5691      5482.1413     -8280.3569     -59.356577     -1656.1134      6905.2516     -4692.4378     -267.5732       119977.31      49.321133      49.321133      49.321133      0.60999999    -1054.7645     -589.18696     -862.39953    
     73000   36500          335.87416     -773.04626      5969.4308      7322.0654      7027.2619      294.80349      2654.9627      5495.3027     -8306.6509     -58.397398     -1705.5279      6906.7447     -4691.6304     -267.5732       119977.31      49.321133      49.321133      49.321133      0.60999999    -822.81638     -1367.4213     -128.90115    
     74000   37000          343.88227     -296.52669      7126.3834      7645.2298      7194.81        450.41978      2653.9978      5621.7774     -8270.297      -59.681353     -1714.6719      6908.0461     -4688.7513     -267.5732       119977.31      49.321133      49.321133      49.321133      0.60999999     110.31308     -419.00223     -580.89093    
     75000   37500          342.52722     -724.00547      6189.199       7456.0247      7166.4593      289.5654       2698.171       5504.0376     -8354.3508     -57.848469     -1715.8773      6904.195      -4688.7617     -267.5732       119977.31      49.321133      49.321133      49.321133      0.60999999    -1633.4961      380.35615     -918.8765     
     76000   38000          348.27553     -960.76946      5888.3367      7569.4392      7286.7272      282.71208      2659.1178      5477.8139     -8307.5928     -58.778107     -1709.9748      6910.5899     -4688.4638     -267.5732       119977.31      49.321133      49.321133      49.321133      0.60999999    -1356.3115     -28.37202      -1497.6249    
     77000   38500          340.93215     -573.49045      6450.1115      7453.5742      7133.0867      320.48755      2626.3229      5502.8708     -8316.1846     -54.479023     -1677.2155      6925.7803     -4686.6073     -267.5732       119977.31      49.321133      49.321133      49.321133      0.60999999    -269.86198     -767.24221     -683.36717    
     78000   39000          342.10294     -724.26765      6273.7436      7541.0281      7157.5823      383.44583      2732.9988      5575.2519     -8353.3724     -59.357262     -1714.8487      6893.0424     -4690.2689     -267.5732       119977.31      49.321133      49.321133      49.321133      0.60999999    -370.5333      -33.519983     -1768.7497    
     79000   39500          346.02121     -1468.2453      5142.2448      7711.3012      7239.5615      471.73969      2725.1421      5626.3675     -8331.192      -62.990993     -1682.01        6888.5288     -4692.1057     -267.5732       119977.31      49.321133      49.321133      49.321133      0.60999999    -1536.261      -1168.0334     -1700.4413    
     80000   40000          347.08792     -388.60183      6985.5231      7665.4776      7261.8797      403.59793      2689.9626      5532.937      -8273.5625     -58.648516     -1680.1289      6889.1265     -4696.0882     -267.5732       119977.31      49.321133      49.321133      49.321133      0.60999999    -176.31289     -380.44855     -609.04404    
     81000   40500          344.24745     -780.04618      5972.2932      7337.1759      7202.4503      134.72556      2527.0121      5557.2612     -8337.5445     -58.835599     -1765.7334      6899.1207     -4686.555      -267.5732       119977.31      49.321133      49.321133      49.321133      0.60999999    -474.49205     -504.10286     -1361.5436    
     82000   41000          342.89275     -727.60028      6282.9783      7556.094       7174.1069      381.98716      2716.9914      5565.8853     -8319.2632     -57.286527     -1742.9073      6905.7388     -4687.1712     -267.5732       119977.31      49.321133      49.321133      49.321133      0.60999999    -976.4121      -135.32329     -1071.0655    
     83000   41500          345.50575     -719.50988      6337.1617      7596.1213      7228.7769      367.34433      2673.3128      5604.9278     -8342.6045     -62.823178     -1713.7385      6900.8707     -4692.6007     -267.5732       119977.31      49.321133      49.321133      49.321133      0.60999999    -354.05981     -1157.2307     -647.23916    
     84000   42000          347.91771      71.814331      7920.9292      7795.2724      7279.2408      516.0316       2720.5982      5633.2144     -8299.9784     -57.819546     -1672.799       6886.1978     -4693.3819     -267.5732       119977.31      49.321133      49.321133      49.321133      0.60999999     545.32012     -65.588354     -264.28877    
     85000   42500          348.5708      -714.71641      6353.2176      7603.7898      7292.9049      310.88489      2619.9787      5561.8208     -8271.6536     -58.973795     -1734.9494      6886.2977     -4691.6354     -267.5732       119977.31      49.321133      49.321133      49.321133      0.60999999    -1070.4456     -325.83602     -747.86762    
     86000   43000          346.05664     -886.38273      6086.5398      7637.4845      7240.3027      397.18178      2715.3916      5640.6871     -8356.3582     -56.605213     -1744.4287      6890.1657     -4691.6706     -267.5732       119977.31      49.321133      49.321133      49.321133      0.60999999    -380.58479     -1261.4176     -1017.1458    
     87000   43500          347.61825     -786.89618      6305.9108      7682.7793      7272.9753      409.80396      2711.3676      5652.5374     -8332.9586     -59.554439     -1758.9926      6893.0507     -4695.6461     -267.5732       119977.31      49.321133      49.321133      49.321133      0.60999999    -845.47531     -727.22943     -787.98381    
     88000   44000          348.80101     -217.1217       7273.0431      7652.951       7297.7214      355.22959      2776.738       5492.7369     -8348.2846     -61.118891     -1703.331       6890.5828     -4692.0936     -267.5732       119977.31      49.321133      49.321133      49.321133      0.60999999    -275.5033       174.73409     -550.5959     
     89000   44500          353.43608     -1187.0434      5660.4903      7737.5148      7394.6976      342.81719      2727.6362      5512.0512     -8317.5673     -60.598253     -1727.988       6897.5236     -4688.2404     -267.5732       119977.31      49.321133      49.321133      49.321133      0.60999999     464.24185     -2039.7731     -1985.599     
     90000   45000          353.26383     -140.79051      7675.4315      7921.7791      7391.0939      530.68526      2743.7623      5667.5782     -8323.4016     -62.898748     -1717.8133      6907.7268     -4684.2684     -267.5732       119977.31      49.321133      49.321133      49.321133      0.60999999     220.03793      180.35139     -822.76085    
     91000   45500          356.7539      -239.81602      7536.1855      7955.8027      7464.1142      491.68847      2707.9872      5576.8283     -8235.3807     -59.728463     -1690.8236      6883.5952     -4690.7895     -267.5732       119977.31      49.321133      49.321133      49.321133      0.60999999    -236.49055     -7.8795076     -475.07802    
     92000   46000          349.2503      -936.33737      6112.5992      7750.9518      7307.1216      443.83025      2699.1398      5730.5994     -8377.3325     -60.876584     -1742.9124      6882.7057     -4687.4933     -267.5732       119977.31      49.321133      49.321133      49.321133      0.60999999    -131.13793     -1669.0718     -1008.8024    
     93000   46500          351.95976     -141.24504      7519.0042      7766.1472      7363.8096      402.33754      2678.5235      5595.7161     -8304.2775     -59.639112     -1696.5284      6882.7254     -4694.1824     -267.5732       119977.31      49.321133      49.321133      49.321133      0.60999999     877.5702      -768.05971     -533.24561    
     94000   47000          351.40373     -117.92918      7721.2594      7927.6055      7352.1762      575.42924      2734.3032      5736.3122     -8330.673      -61.447646     -1702.3654      6893.2611     -4693.9613     -267.5732       119977.31      49.321133      49.321133      49.321133      0.60999999    -66.545472      318.70045     -605.94252    
     95000   47500          349.19023     -923.01084      6267.5934      7882.6279      7305.8648      576.76312      2803.8737      5670.9627     -8289.3395     -59.480292     -1747.9902      6887.2407     -4688.504      -267.5732       119977.31      49.321133      49.321133      49.321133      0.60999999    -506.83966     -1136.9359     -1125.257     
     96000   48000          353.6953      -916.69448      6389.7685      7993.751       7400.1212      593.6298       2768.8197      5706.1765     -8354.3982     -59.100482     -1674.0917      6896.471      -4690.2471     -267.5732       119977.31      49.321133      49.321133      49.321133      0.60999999    -1036.9606     -792.20891     -920.91397    
     97000   48500          356.32059     -875.79255      6424.7449      7957.1594      7455.0482      502.11121      2825.6045      5606.3438     -8333.5978     -59.569416     -1744.352       6896.1954     -4688.5132     -267.5732       119977.31      49.321133      49.321133      49.321133      0.60999999    -396.24786     -1126.7295     -1104.4003    
     98000   49000          355.67731     -696.79418      6755.8926      7975.1055      7441.5894      533.51611      2709.8112      5626.5244     -8248.6386     -65.737722     -1689.399       6891.8429     -4690.8871     -267.5732       119977.31      49.321133      49.321133      49.321133      0.60999999    -821.02182     -167.81261     -1101.5481    
     99000   49500          354.15208     -769.22796      6698.1381      8044.0917      7409.6781      634.41355      2800.49        5745.7702     -8355.6853     -63.186306     -1713.4918      6909.4781     -4688.9613     -267.5732       119977.31      49.321133      49.321133      49.321133      0.60999999    -1089.249      -1278.6064      60.171539    
    100000   50000          356.38676     -727.62358      6742.1477      8015.3042      7456.4328      558.87144      2734.7702      5804.6976     -8381.5551     -62.623713     -1745.507       6898.07       -4688.9806     -267.5732       119977.31      49.321133      49.321133      49.321133      0.60999999    -1306.8721     -1029.3435      153.34486    
    101000   50500          358.5978      -5.1159703      8157.1594      8166.1111      7502.6929      663.41819      2802.558       5675.2507     -8338.9045     -64.367251     -1635.666       6911.3414     -4686.7942     -267.5732       119977.31      49.321133      49.321133      49.321133      0.60999999    -62.915776      151.3795      -103.81163    
    102000   51000          351.35756     -1322.1804      5662.2891      7975.7691      7351.2103      624.55874      2710.931       5751.9466     -8347.0048     -63.149808     -1637.0076      6895.2698     -4686.4264     -267.5732       119977.31      49.321133      49.321133      49.321133      0.60999999    -1299.7065     -1518.6845     -1148.1503    
    103000   51500          353.05322     -751.09635      6678.5036      7992.7315      7386.6874      606.04412      2841.1486      5638.7796     -8340.6433     -64.627136     -1684.7043      6909.6556     -4693.5651     -267.5732       119977.31      49.321133      49.321133      49.321133      0.60999999    -2239.7138     -636.2443       622.66905    
    104000   52000          360.07959     -1119.8574      6225.5109      8184.977       7533.6953      651.28166      2824.5767      5685.4106     -8340.8921     -63.114045     -1669.2579      6897.8737     -4683.3152     -267.5732       119977.31      49.321133      49.321133      49.321133      0.60999999    -1903.3179     -1018.9845     -437.26978    
    105000   52500          360.23541     -515.07439      7238.9377      8140.187       7536.9553      603.23175      2769.1373      5669.6371     -8318.1267     -60.925595     -1692.5655      6915.342      -4679.2669     -267.5732       119977.31      49.321133      49.321133      49.321133      0.60999999    -216.30343     -318.33821     -1010.5815    
    106000   53000          358.0335      -1119.396       6224.4116      8183.0703      7490.8864      692.18391      2803.8524      5749.8209     -8325.8031     -60.433878     -1695.871       6905.7336     -4685.115      -267.5732       119977.31      49.321133      49.321133      49.321133      0.60999999    -1218.4828     -1143.7903     -995.9148     
    107000   53500          357.53432     -401.31841      7297.5288      7999.7341      7480.4425      519.29161      2748.5815      5640.1949     -8312.2541     -63.969818     -1713.3252      6907.4568     -4687.3925     -267.5732       119977.31      49.321133      49.321133      49.321133      0.60999999    -1025.5845     -630.59104      452.2203     
    108000   54000          356.70312     -895.60366      6574.441       8141.5199      7463.0518      678.46814      2836.7008      5721.4594     -8332.343      -61.662761     -1694.9145      6893.4463     -4684.218      -267.5732       119977.31      49.321133      49.321133      49.321133      0.60999999    -894.21281     -393.80359     -1398.7946    
    109000   54500          359.15791     -740.4938       6936.5526      8232.2287      7514.4117      717.81704      2792.9995      5699.925      -8298.9795     -65.079926     -1636.814       6912.7796     -4687.0136     -267.5732       119977.31      49.321133      49.321133      49.321133      0.60999999    -1310.4124     -237.21055     -673.85843    
    110000   55000          364.54792     -1235.1411      6265.5426      8426.7259      7627.1829      799.54292      2821.5987      5751.2558     -8301.1989     -62.473476     -1629.1213      6905.7142     -4686.2321     -267.5732       119977.31      49.321133      49.321133      49.321133      0.60999999    -1492.1882     -1288.7924     -924.44265    
    111000   55500          363.3759      -890.17073      6758.9697      8316.5424      7602.6617      713.88065      2805.0803      5657.6239     -8344.5093     -64.177502     -1573.8469      6916.6888     -4682.9787     -267.5732       119977.31      49.321133      49.321133      49.321133      0.60999999    -816.33997     -985.77303     -868.39918    
    112000   56000          364.2267       161.73465      8775.7483      8492.7537      7620.4624      872.29128      2802.8501      5836.5678     -8366.4726     -66.541769     -1561.5147      6910.0179     -4682.6154     -267.5732       119977.31      49.321133      49.321133      49.321133      0.60999999     282.62201     -456.45751      659.03945    
    113000   56500          363.34309     -1.3148633      8376.4326      8378.7332      7601.9752      776.75802      2770.803       5797.251      -8343.2986     -66.014247     -1612.0616      6919.2245     -4689.146      -267.5732       119977.31      49.321133      49.321133      49.321133      0.60999999     474.15462     -191.59386     -286.50534    
    114000   57000          366.63239      237.33746      8761.3627      8346.0824      7670.7949      675.28746      2743.0036      5770.1613     -8350.353      -62.392031     -1647.9803      6910.1845     -4687.3367     -267.5732       119977.31      49.321133      49.321133      49.321133      0.60999999    -780.99598     -24.871183      1517.8796    
    115000   57500          366.03085      824.58503      10038.098      8595.284       7658.2093      937.07467      2873.204       5796.3973     -8297.1719     -64.803163     -1587.8293      6907.9339     -4690.6562     -267.5732       119977.31      49.321133      49.321133      49.321133      0.60999999     384.4636       1151.9989      937.29257    
    116000   58000          362.32451     -758.61176      6982.8077      8310.1856      7580.6641      729.52151      2859.5751      5764.2827     -8294.5101     -65.318617     -1724.6545      6882.072      -4691.925      -267.5732       119977.31      49.321133      49.321133      49.321133      0.60999999    -1484.5109     -854.03876      62.714429    
    117000   58500          361.8201      -169.53318      8007.0329      8303.6729      7570.1108      733.56203      2861.1483      5637.0425     -8289.5999     -66.092277     -1627.0388      6907.6817     -4689.5795     -267.5732       119977.31      49.321133      49.321133      49.321133      0.60999999     439.56405     -764.50253     -183.66108    
    118000   59000          365.59266     -268.80361      7995.0942      8465.4323      7649.0413      816.39094      2832.012       5837.174      -8336.8649     -65.979559     -1645.5106      6890.3365     -4694.7765     -267.5732       119977.31      49.321133      49.321133      49.321133      0.60999999    -796.9695      -296.69157      287.25023    
    119000   59500          367.07729     -1075.2464      6700.5591      8581.9673      7680.1034      901.86387      2954.9199      5682.5939     -8203.1395     -61.970612     -1677.1959      6900.2777     -4693.6216     -267.5732       119977.31      49.321133      49.321133      49.321133      0.60999999    -313.30049     -1740.0933     -1172.3455    
    120000   60000          369.54003     -1314.657       6427.7448      8728.0606      7731.6296      996.43106      2933.2568      5920.2842     -8282.8927     -64.981172     -1711.9784      6897.3425     -4694.6001     -267.5732       119977.31      49.321133      49.321133      49.321133      0.60999999    -1627.945      -879.90168     -1436.1243    
    121000   60500          369.97691     -200.25191      8213.0081      8563.3981      7740.77        822.62813      2805.5201      5816.7004     -8282.3205     -63.382221     -1665.4365      6902.3294     -4690.7827     -267.5732       119977.31      49.321133      49.321133      49.321133      0.60999999     208.13042     -37.035142     -771.85103    
    122000   61000          360.38137     -725.53716      7127.067       8396.5728      7540.0092      856.56362      2830.8588      5792.2693     -8282.2376     -61.335867     -1614.3156      6887.986      -4696.6615     -267.5732       119977.31      49.321133      49.321133      49.321133      0.60999999    -1331.4829      393.72013     -1238.8487    
    123000   61500          371.50807     -230.03527      8198.9175      8601.4209      7772.8054      828.61549      2892.9115      5752.07       -8341.0949     -67.813856     -1627.6881      6909.2049     -4688.974      -267.5732       119977.31      49.321133      49.321133      49.321133      0.60999999    -375.96157     -39.13677      -275.00747    
    124000   62000          368.00524     -820.29425      7292.198       8727.5047      7699.5181      1027.9866      2879.555       5965.0756     -8335.0678     -67.775808     -1635.2853      6911.8112     -4690.3263     -267.5732       119977.31      49.321133      49.321133      49.321133      0.60999999    -842.18459     -570.32943     -1048.3687    
    125000   62500          365.32138     -1381.3251      6151.6511      8568.6192      7643.3656      925.2536       2874.9763      5839.8459     -8281.7348     -68.008064     -1655.1115      6901.2345     -4685.9487     -267.5732       119977.31      49.321133      49.321133      49.321133      0.60999999    -361.71876     -2287.922      -1494.3345    
    126000   63000          369.02877     -1079.0376      6770.3042      8658.3459      7720.9328      937.41313      2881.4881      5799.9195     -8272.3541     -63.487435     -1615.872       6898.9257     -4691.2067     -267.5732       119977.31      49.321133      49.321133      49.321133      0.60999999    -1491.0134     -833.62496     -912.47441    
    127000   63500          366.4677      -811.64807      7075.1082      8495.2862      7667.3493      827.93691      2818.2181      5822.7623     -8266.3191     -66.061045     -1700.3237      6906.2727     -4686.6124     -267.5732       119977.31      49.321133      49.321133      49.321133      0.60999999    -1054.0503     -993.98242     -386.91149    
    128000   64000          377.3691      -1179.6502      6719.7826      8783.8709      7895.4317      888.43921      2848.0983      5780.0938     -8234.0385     -59.954268     -1652.5838      6891.2485     -4684.4249     -267.5732       119977.31      49.321133      49.321133      49.321133      0.60999999    -1120.606      -1775.563      -642.78167    
    129000   64500          370.4224      -1026.8266      6879.9271      8676.6129      7750.0906      926.52233      2956.4499      5708.816      -8173.5334     -63.935        -1703.0998      6891.9522     -4690.1277     -267.5732       119977.31      49.321133      49.321133      49.321133      0.60999999    -817.5981      -1542.286      -720.59575    
    130000   65000          373.29921     -800.05613      7438.0357      8837.9307      7810.2803      1027.6505      2910.6202      5911.7218     -8299.1339     -63.710172     -1627.7024      6889.853      -4693.9979     -267.5732       119977.31      49.321133      49.321133      49.321133      0.60999999     202.35623     -1795.8963     -806.62832    
    131000   65500          374.60918     -388.4221       8058.9131      8738.5531      7837.6877      900.86538      2882.2198      5887.8744     -8341.808      -63.255328     -1680.311       6904.2479     -4688.1023     -267.5732       119977.31      49.321133      49.321133      49.321133      0.60999999     540.2593      -1321.1562     -384.3694     
    132000   66000          369.29459     -30.448098      8641.0884      8694.3649      7726.4943      967.87058      2896.1506      5685.3626     -8202.8805     -59.943242     -1566.2623      6903.964      -4688.5206     -267.5732       119977.31      49.321133      49.321133      49.321133      0.60999999     203.65096     -622.22691      327.23166    
    133000   66500          375.44392     -414.34541      8089.1957      8814.195       7855.1526      959.04243      2903.2144      5799.8733     -8290.8756     -62.592347     -1609.2633      6907.631      -4688.9451     -267.5732       119977.31      49.321133      49.321133      49.321133      0.60999999    -974.50299      517.8938      -786.42704    
    134000   67000          375.13459     -526.13593      7924.1667      8844.7709      7848.6806      996.09036      2902.5865      5844.2361     -8290.0618     -62.016847     -1607.8474      6899.789      -4690.5952     -267.5732       119977.31      49.321133      49.321133      49.321133      0.60999999    -1592.3224     -134.55023      148.46482    
    135000   67500          382.2281      -406.40898      8189.7712      8900.8837      7997.0932      903.79052      2844.8094      5832.9088     -8289.6341     -64.920776     -1619.0694      6890.7565     -4691.0599     -267.5732       119977.31      49.321133      49.321133      49.321133      0.60999999    -771.92134     -666.83129      219.52569    
    136000   68000          375.73364     -681.61926      7622.4844      8815.145       7861.214       953.93095      2882.1777      5920.7767     -8315.403      -63.614272     -1675.4324      6895.0328     -4689.6066     -267.5732       119977.31      49.321133      49.321133      49.321133      0.60999999    -663.5984      -954.12639     -427.13298    
    137000   68500          373.93237     -766.23735      7671.4559      9012.1767      7823.5274      1188.6494      2911.2978      6011.5524     -8242.1664     -65.076693     -1636.5418      6897.0284     -4687.4444     -267.5732       119977.31      49.321133      49.321133      49.321133      0.60999999    -946.17657     -1390.9841      38.448563    
    138000   69000          373.902       -296.81447      8352.1324      8871.4823      7822.892       1048.5903      2898.0215      5828.0147     -8240.5968     -68.238116     -1571.6037      6895.5192     -4692.5264     -267.5732       119977.31      49.321133      49.321133      49.321133      0.60999999     77.236955     -537.9857      -429.69467    
    139000   69500          381.60618      24.26438       9076.781       9034.3245      7984.0811      1050.2434      2898.5927      5859.1454     -8247.8061     -65.925398     -1615.2501      6908.7129     -4687.226      -267.5732       119977.31      49.321133      49.321133      49.321133      0.60999999     347.65735     -119.82323     -155.04098    
    140000   70000          382.85808     -869.3902       7609.6448      9130.8569      8010.2738      1120.583       2963.6636      5960.5261     -8258.5131     -63.997608     -1692.363       6899.8201     -4688.5531     -267.5732       119977.31      49.321133      49.321133      49.321133      0.60999999    -507.62053     -1150.9412     -949.60888    
    141000   70500          381.71534     -289.11484      8542.0895      9047.967       7986.365       1061.6021      2988.025       5743.296      -8222.387      -64.058806     -1585.0232      6893.7644     -4692.0144     -267.5732       119977.31      49.321133      49.321133      49.321133      0.60999999    -632.72743      264.84945     -499.46654    
    142000   71000          377.21571      433.26762      9804.3359      9046.2276      7892.2223      1154.0053      2993.0599      5885.7513     -8271.2466     -67.643481     -1591.9092      6892.6573     -4686.664      -267.5732       119977.31      49.321133      49.321133      49.321133      0.60999999     26.327391      1821.4017     -547.92627    
    143000   71500          384.33545     -230.59362      8780.6706      9184.1508      8041.1838      1142.967       2950.7995      5906.2848     -8279.3048     -59.198689     -1566.9034      6884.5521     -4693.2625     -267.5732       119977.31      49.321133      49.321133      49.321133      0.60999999     394.96343     -792.84899     -293.89529    
    144000   72000          380.44793     -919.23575      7601.8416      9210.2707      7959.8479      1250.4228      3036.7121      5902.4684     -8233.4064     -68.076707     -1578.6246      6883.802      -4692.4521     -267.5732       119977.31      49.321133      49.321133      49.321133      0.60999999    -610.28089     -828.60864     -1318.8177    
    145000   72500          379.33808     -411.88661      8443.5727      9164.2697      7936.6273      1227.6424      2946.8412      5915.8593     -8165.6413     -70.724518     -1595.8517      6891.036      -4693.8765     -267.5732       119977.31      49.321133      49.321133      49.321133      0.60999999    -449.66963      375.44994     -1161.4401    
    146000   73000          381.88882      296.07666      9726.287       9208.228       7989.9947      1218.2334      2975.4843      5880.5541     -8194.1754     -61.909786     -1584.2898      6894.7563     -4692.1863     -267.5732       119977.31      49.321133      49.321133      49.321133      0.60999999     1.2020342      816.14761      70.880325    
    147000   73500          381.41323     -512.13491      8419.2142      9315.3202      7980.0441      1335.2761      3064.9089      5951.4194     -8228.1805     -61.655045     -1582.957       6887.1273     -4695.387      -267.5732       119977.31      49.321133      49.321133      49.321133      0.60999999    -586.5959      -497.07974     -452.72909    
    148000   74000          381.66056      548.32772      10160.495      9201.061       7985.2189      1215.8421      3034.6154      5763.3219     -8130.093      -64.685989     -1571.9375      6886.2209     -4701.5997     -267.5732       119977.31      49.321133      49.321133      49.321133      0.60999999     552.45607      1109.8694     -17.342278    
    149000   74500          391.24337      224.5577       9819.6846      9426.7657      8185.7135      1241.0522      2968.6786      6028.6191     -8283.1604     -61.35801      -1615.7658      6899.4449     -4695.4062     -267.5732       119977.31      49.321133      49.321133      49.321133      0.60999999     153.77124      1.2670056      518.63484    
    150000   75000          379.77964     -988.19094      7521.5268      9250.61        7945.8657      1304.7443      3040.6256      5861.6496     -8115.4721     -64.824409     -1623.9237      6900.2989     -4693.6096     -267.5732       119977.31      49.321133      49.321133      49.321133      0.60999999    -1573.0271     -1250.4067     -141.13908    
    151000   75500          385.82896     -248.14992      8933.6049      9367.8042      8072.4315      1295.3728      2990.2172      5995.434      -8252.0959     -64.403228     -1595.1314      6914.5828     -4693.2309     -267.5732       119977.31      49.321133      49.321133      49.321133      0.60999999     333.09455     -236.06212     -841.48219    
    152000   76000          388.2516      -1102.3347      7446.5924      9375.3982      8123.1188      1252.2794      3004.309       5932.9165     -8215.282      -66.274228     -1625.6692      6916.9465     -4694.6672     -267.5732       119977.31      49.321133      49.321133      49.321133      0.60999999    -826.50335     -1661.8731     -818.62764    
    153000   76500          378.26676     -422.11039      8459.2641      9197.8501      7914.2128      1283.6373      3033.8492      5961.7187     -8259.9358     -67.985763     -1612.6749      6920.0593     -4691.3933     -267.5732       119977.31      49.321133      49.321133      49.321133      0.60999999    -863.20808     -714.20505      311.08194    
    154000   77000          377.5684      -1464.5738      6893.4161      9456.0484      7899.6016      1556.4468      3103.1762      6109.6309     -8173.7307     -65.999139     -1640.5163      6917.0297     -4693.1439     -267.5732       119977.31      49.321133      49.321133      49.321133      0.60999999    -1776.6768     -1304.9184     -1312.1263    
    155000   77500          391.76237     -290.17758      8839.5816      9347.3186      8196.5721      1150.7465      2948.995       6009.7679     -8318.329      -67.092818     -1642.3644      6908.3139     -4688.544      -267.5732       119977.31      49.321133      49.321133      49.321133      0.60999999    -810.4204       77.924768     -138.03712    
    156000   78000          387.65914      212.84266      9725.8019      9353.3813      8110.7231      1242.6582      2923.3499      6060.9501     -8241.2801     -65.019748     -1658.865       6912.262      -4688.739      -267.5732       119977.31      49.321133      49.321133      49.321133      0.60999999    -463.43101      385.71044      716.24856    
    157000   78500          389.0181      -243.85226      9098.0102      9524.6897      8139.1557      1385.534       3001.0803      6220.7529     -8342.8756     -68.583952     -1630.0769      6895.2213     -4689.9839     -267.5732       119977.31      49.321133      49.321133      49.321133      0.60999999     321.54895     -201.02754     -852.07819    
    158000   79000          385.75684     -758.94391      8002.6795      9330.6387      8070.9225      1259.7161      3030.6742      6050.1639     -8269.9591     -67.798131     -1683.6296      6898.4105     -4698.1457     -267.5732       119977.31      49.321133      49.321133      49.321133      0.60999999    -990.05216     -932.83568     -353.9439     
    159000   79500          389.3634      -1340.2735      7148.7928      9493.931       8146.3801      1347.5509      3102.2974      6013.4591     -8198.9753     -66.513065     -1712.3913      6907.0629     -4697.3888     -267.5732       119977.31      49.321133      49.321133      49.321133      0.60999999    -1175.651      -933.59723     -1911.5722    
    160000   80000          394.27314     -280.61902      9000.1787      9491.1907      8249.1032      1242.0875      3053.7403      5909.4499     -8247.0887     -64.971014     -1635.5914      6918.245      -4691.6966     -267.5732       119977.31      49.321133      49.321133      49.321133      0.60999999    -297.93156     -65.764681     -478.16082    
    161000   80500          383.98345     -312.19828      8757.5734      9303.8412      8033.8192      1270.0219      3019.5389      5949.9795     -8181.2719     -68.506864     -1670.5092      6908.831      -4688.0394     -267.5732       119977.31      49.321133      49.321133      49.321133      0.60999999    -976.54381     -784.86134      824.8103     
    162000   81000          388.31879     -498.86992      8701.8584      9574.7541      8124.5245      1450.2296      3062.6741      6064.9781     -8176.7835     -71.48006      -1643.8565      6907.5565     -4692.859      -267.5732       119977.31      49.321133      49.321133      49.321133      0.60999999    -914.4873      -315.59615     -266.52632    
    163000   81500          382.8736      -616.74248      8511.2216      9590.3643      8010.5986      1579.7657      3127.1684      6094.6045     -8209.605      -65.321665     -1560.6251      6886.3853     -4692.8407     -267.5732       119977.31      49.321133      49.321133      49.321133      0.60999999    -493.69017      29.892132     -1386.4294    
    164000   82000          395.06901      397.14303      10580.838      9885.939       8265.7546      1620.1844      3022.1746      6114.3718     -8125.7164     -69.566904     -1525.2274      6896.5716     -4692.423      -267.5732       119977.31      49.321133      49.321133      49.321133      0.60999999     214.27691      185.62229      791.52988    
    165000   82500          390.12925      99.408258      9786.5701      9612.6309      8162.4035      1450.2274      3009.7074      6088.8531     -8203.9773     -67.264522     -1562.7237      6883.7923     -4698.1599     -267.5732       119977.31      49.321133      49.321133      49.321133      0.60999999     865.21781     -593.40986      26.41682     
    166000   83000          395.77332     -472.95128      8950.1669      9777.7116      8280.4903      1497.2212      3029.3406      6099.488      -8157.2611     -65.742095     -1607.4398      6897.0551     -4698.2196     -267.5732       119977.31      49.321133      49.321133      49.321133      0.60999999     290.50481     -709.21979     -1000.1389    
    167000   83500          400.42166     -526.9041       8951.5467      9873.4951      8377.7445      1495.7506      3114.4236      6100.1852     -8214.5795     -69.092665     -1628.1634      6890.1468     -4697.1694     -267.5732       119977.31      49.321133      49.321133      49.321133      0.60999999    -1051.1906     -32.517365     -497.00431    
    168000   84000          393.33463     -625.11018      8684.1973      9777.9814      8229.4673      1548.5141      3126.7625      6002.0213     -8138.392      -71.618964     -1575.731       6901.1065     -4695.6342     -267.5732       119977.31      49.321133      49.321133      49.321133      0.60999999     94.866123     -706.3143      -1263.8824    
    169000   84500          391.60723     -234.02984      9474.6222      9884.115       8193.3262      1690.7888      3104.4846      6136.3213     -8210.0512     -71.689116     -1480.0858      6904.9418     -4693.1328     -267.5732       119977.31      49.321133      49.321133      49.321133      0.60999999    -427.63069     -216.36235     -58.096488    
    170000   85000          394.65866     -27.229852      9873.6998      9921.3451      8257.1692      1664.1759      3109.3174      6080.7144     -8118.5899     -68.142184     -1549.9579      6903.8189     -4692.9848     -267.5732       119977.31      49.321133      49.321133      49.321133      0.60999999     461.01949     -246.3319      -296.37715    
    171000   85500          391.4327      -454.42804      8886.6167      9681.7504      8189.6747      1492.0757      3091.1012      6079.9178     -8191.949      -69.938355     -1622.1696      6897.4135     -4692.2999     -267.5732       119977.31      49.321133      49.321133      49.321133      0.60999999    -632.23907     -791.24832      60.203284    
    172000   86000          400.52767     -237.99406      9495.4129      9911.8421      8379.9623      1531.8798      3065.9121      6061.4457     -8149.0378     -65.671358     -1592.5821      6906.0023     -4694.189      -267.5732       119977.31      49.321133      49.321133      49.321133      0.60999999    -445.6442      -324.46204      56.124077    
    173000   86500          396.88871      414.98911      10592.144      9866.0182      8303.8269      1562.1914      3048.5915      6075.651      -8203.865      -70.93529      -1516.156       6918.8305     -4689.9253     -267.5732       119977.31      49.321133      49.321133      49.321133      0.60999999    -457.57145      582.13509      1120.4037    
    174000   87000          399.44297     -1304.4348      7790.1576      10072.587      8357.268       1715.3192      3078.0026      6113.4917     -8152.8038     -69.068318     -1484.4791      6915.4752     -4685.299      -267.5732       119977.31      49.321133      49.321133      49.321133      0.60999999    -2575.5702     -459.12459     -878.60961    
    175000   87500          406.4598      -548.85538      9106.1653      10066.523      8504.0761      1562.4468      3004.8873      6156.482      -8248.1684     -67.820174     -1510.245       6916.0957     -4688.7847     -267.5732       119977.31      49.321133      49.321133      49.321133      0.60999999    -154.51585     -1934.1362      442.08586    
    176000   88000          392.099       -186.40932      9410.2987      9736.4676      8203.6153      1532.8524      3034.6666      6053.2261     -8188.1374     -62.818767     -1524.938       6911.8871     -4691.0332     -267.5732       119977.31      49.321133      49.321133      49.321133      0.60999999     173.68507      143.75454     -876.66757    
[...]
    458000   229000         556.14661     -360.46241      16938.795      17569.513      11635.869      5933.6435      4476.0053      8141.2176     -7890.0949     -94.038067     -968.22304      6938.3242     -4669.5476     -267.5732       119977.31      49.321133      49.321133      49.321133      0.60999999    -659.77485      404.61714     -826.22952    
    459000   229500         559.15362     -1006.3153      15860.551      17621.347      11698.783      5922.5641      4397.8822      8038.1552     -7789.0643     -95.121264     -934.97119      6962.2072     -4656.5238     -267.5732       119977.31      49.321133      49.321133      49.321133      0.60999999    -1863.4118     -967.58447     -187.94963    
    460000   230000         552.0214      -578.02211      16369.1        17380.492      11549.56       5830.9317      4334.5433      8073.9935     -7864.0788     -97.361254     -908.64138      6957.5172     -4665.041      -267.5732       119977.31      49.321133      49.321133      49.321133      0.60999999    -1350.7438     -329.23568     -54.086843    
    461000   230500         557.04334     -568.62251      16456.969      17451.914      11654.631      5797.2828      4447.3214      7757.2482     -7801.0431     -94.08104      -836.44012      6981.7767     -4657.4993     -267.5732       119977.31      49.321133      49.321133      49.321133      0.60999999    -1088.9766     -29.115718     -587.77525    
    462000   231000         571.36798     -156.86718      17545.01       17819.487      11954.336      5865.1517      4341.7824      7964.7163     -7750.6744     -94.351937     -903.45445      6972.948      -4665.8143     -267.5732       119977.31      49.321133      49.321133      49.321133      0.60999999    -237.68581      591.00443     -823.92016    
    463000   231500         555.77191      177.82133      17820.466      17509.324      11628.03       5881.2938      4421.2753      7876.1251     -7762.8014     -87.944823     -877.15109      6975.6414     -4663.8506     -267.5732       119977.31      49.321133      49.321133      49.321133      0.60999999    -270.0511      -1293.7689      2097.284     
    464000   232000         565.62518      295.60875      18162.901      17645.661      11834.183      5811.4782      4315.48        7935.072      -7771.7046     -94.07585      -882.41446      6969.3425     -4660.2214     -267.5732       119977.31      49.321133      49.321133      49.321133      0.60999999    -758.93685      1105.8916      539.87146    
    465000   232500         564.63744     -1356.4177      15614.598      17987.985      11813.517      6174.4678      4476.659       8002.6208     -7655.8191     -89.71341      -902.47677      6997.1177     -4653.9204     -267.5732       119977.31      49.321133      49.321133      49.321133      0.60999999    -845.31406     -2493.3553     -730.58359    
    466000   233000         558.50199     -341.35748      17356.243      17953.532      11685.149      6268.3826      4509.5334      8148.7419     -7715.45       -96.109603     -917.4389       6999.8739     -4660.7682     -267.5732       119977.31      49.321133      49.321133      49.321133      0.60999999     947.63851     -1645.4903     -326.22061    
    467000   233500         554.91388     -458.68988      16866.729      17669.319      11610.078      6059.2416      4480.1295      7975.0524     -7730.4888     -89.93122      -879.39055      6972.5784     -4668.7081     -267.5732       119977.31      49.321133      49.321133      49.321133      0.60999999     140.52294     -448.06204     -1068.5305    
    468000   234000         556.6013      -435.11688      17090.82       17852.164      11645.383      6206.7813      4613.6448      8067.1768     -7744.268      -92.918605     -933.70774      6966.3755     -4669.5214     -267.5732       119977.31      49.321133      49.321133      49.321133      0.60999999    -139.99825     -543.56186     -621.79054    
    469000   234500         563.86068     -329.9697       17158.829      17736.192      11797.265      5938.9266      4367.1651      8025.1262     -7720.5623     -92.491899     -934.48595      6962.6252     -4668.4497     -267.5732       119977.31      49.321133      49.321133      49.321133      0.60999999    -630.76455      322.1916      -681.33614    
    470000   235000         563.51892     -574.54727      17046.635      18051.946      11790.115      6261.8313      4416.9445      8229.3014     -7738.1578     -90.641647     -873.19836      6981.7502     -4664.1669     -267.5732       119977.31      49.321133      49.321133      49.321133      0.60999999    -429.88713     -1479.4816      185.72689    
    471000   235500         579.85711     -743.58211      16771.142      18072.221      12131.948      5940.2737      4540.9062      7920.4948     -7855.158      -91.404897     -869.14734      6969.1733     -4674.5902     -267.5732       119977.31      49.321133      49.321133      49.321133      0.60999999    -408.55931     -1136.7309     -685.45612    
    472000   236000         560.22114     -1005.5125      15931.43       17690.821      11721.118      5969.7033      4457.4187      8116.9264     -7842.6061     -96.07842      -951.15323      6949.4097     -4664.2138     -267.5732       119977.31      49.321133      49.321133      49.321133      0.60999999    -366.17537     -1590.695      -1059.6672    
    473000   236500         558.80446      149.66401      17886.51       17624.636      11691.478      5933.158       4412.112       7995.8883     -7775.4202     -89.451303     -894.79005      6949.6473     -4664.828      -267.5732       119977.31      49.321133      49.321133      49.321133      0.60999999     831.09027     -364.95046     -17.147785    
    474000   237000         572.46856     -487.07306      17138.306      17990.561      11977.362      6013.1982      4511.0424      7981.2219     -7715.3941     -93.80689      -953.84928      6955.5566     -4671.5724     -267.5732       119977.31      49.321133      49.321133      49.321133      0.60999999    -992.43312     -53.013793     -415.77226    
    475000   237500         565.38511     -378.4331       17252.375      17914.537      11829.16       6085.3766      4520.8538      8067.3944     -7834.1851     -93.255348     -886.86326      6974.426      -4662.994      -267.5732       119977.31      49.321133      49.321133      49.321133      0.60999999    -1552.9505      577.37439     -159.72321    
    476000   238000         568.79305     -112.88393      17894.045      18091.563      11900.462      6191.1012      4462.9911      8179.3422     -7781.8992     -94.76617      -895.21261      6983.0353     -4662.3895     -267.5732       119977.31      49.321133      49.321133      49.321133      0.60999999     45.86445       309.68245     -694.19869    
    477000   238500         560.17182     -1412.6467      15325.503      17797.276      11720.086      6077.1896      4483.4024      7988.0366     -7756.4754     -92.467538     -870.80129      6986.333      -4660.838      -267.5732       119977.31      49.321133      49.321133      49.321133      0.60999999    -2009.2642     -1489.4086     -739.26747    
    478000   239000         565.94452     -285.01923      17474.047      17972.758      11840.864      6131.8938      4345.554       8313.5454     -7879.3524     -94.487748     -874.77725      6982.5935     -4661.1816     -267.5732       119977.31      49.321133      49.321133      49.321133      0.60999999    -209.93325     -210.5999      -434.52454    
    479000   239500         564.14102     -1208.4559      16001.371      18115.862      11803.131      6312.7313      4652.2001      8089.1249     -7765.9977     -90.52858      -884.2589       6976.9527     -4664.7612     -267.5732       119977.31      49.321133      49.321133      49.321133      0.60999999    -1394.0978     -1447.0909     -784.17917    
    480000   240000         563.39798     -561.11134      16892.738      17874.54       11787.585      6086.9552      4474.9457      8061.202      -7812.1989     -95.70537      -866.21419      6978.6511     -4653.7251     -267.5732       119977.31      49.321133      49.321133      49.321133      0.60999999     171.91217     -1115.5544     -739.69179    
    481000   240500         571.69849     -721.59781      16979.718      18242.331      11961.251      6281.0805      4508.8287      8237.728      -7893.72       -96.791984     -807.76967      6995.7477     -4662.9423     -267.5732       119977.31      49.321133      49.321133      49.321133      0.60999999    -777.2264      -1064.7314     -322.83564    
    482000   241000         569.85061     -937.3188       16376.682      18016.751      11922.589      6094.1628      4506.1845      8044.3659     -7811.4377     -88.713955     -857.91935      6969.1478     -4667.4643     -267.5732       119977.31      49.321133      49.321133      49.321133      0.60999999    -742.78815     -930.55618     -1138.6121    
    483000   241500         577.77105     -430.90177      17772.579      18526.547      12088.302      6438.245       4539.3312      8313.0231     -7774.2655     -91.856384     -868.87789      6979.3276     -4658.4371     -267.5732       119977.31      49.321133      49.321133      49.321133      0.60999999    -50.63234      -1203.5768     -38.496152    
    484000   242000         571.57041     -332.02335      17665.537      18246.493      11958.571      6287.9222      4477.1621      8153.5893     -7766.5359     -93.34699      -793.48738      6969.5803     -4659.0393     -267.5732       119977.31      49.321133      49.321133      49.321133      0.60999999    -159.95693     -134.84129     -701.27183    
    485000   242500         570.47125      314.72287      18757.162      18206.477      11935.574      6270.9031      4440.3913      8277.2341     -7819.8757     -100.28411     -845.59002      6979.1955     -4660.168      -267.5732       119977.31      49.321133      49.321133      49.321133      0.60999999     797.60165      307.70522     -161.13827    
    486000   243000         576.83685     -1384.6604      16064.912      18487.716      12068.757      6418.9592      4545.7524      8338.9219     -7846.3468     -92.46571      -832.10546      6967.3016     -4662.0987     -267.5732       119977.31      49.321133      49.321133      49.321133      0.60999999    -1370.9078     -1133.0463     -1650.0272    
    487000   243500         574.8376      -817.41425      17015.022      18445.289      12026.928      6418.3615      4515.0616      8213.4581     -7750.106      -94.279879     -789.08741      6986.1597     -4662.8445     -267.5732       119977.31      49.321133      49.321133      49.321133      0.60999999    -658.78562     -32.182769     -1761.2744    
    488000   244000         564.21624     -684.39711      16883.541      18081.063      11804.705      6276.3579      4450.2157      8237.4648     -7864.8048     -94.327579     -783.50043      6990.5473     -4659.237      -267.5732       119977.31      49.321133      49.321133      49.321133      0.60999999    -229.34334     -722.25558     -1101.5924    
    489000   244500         571.74656      238.62628      18697.135      18279.6        11962.256      6317.3437      4503.2798      8147.3658     -7815.8264     -95.040758     -772.01649      7006.4216     -4656.8399     -267.5732       119977.31      49.321133      49.321133      49.321133      0.60999999     558.91528      714.60122     -557.63767    
    490000   245000         575.31036      2.7548756      18351.471      18346.651      12036.819      6309.8314      4398.1354      8402.5742     -7912.3768     -93.822858     -848.78858      7018.368      -4654.258      -267.5732       119977.31      49.321133      49.321133      49.321133      0.60999999    -167.4578       370.40359     -194.68116    
    491000   245500         582.00777     -57.132043      18583.451      18683.417      12176.944      6506.4727      4622.4182      8307.4136     -7883.147      -94.837005     -775.59976      6989.6352     -4659.4106     -267.5732       119977.31      49.321133      49.321133      49.321133      0.60999999     1516.6246     -1102.4426     -585.57815    
    492000   246000         580.08195      28.124271      18477.437      18428.226      12136.652      6291.5745      4555.0109      8054.5834     -7746.1961     -90.050191     -839.34361      7010.9535     -4653.3833     -267.5732       119977.31      49.321133      49.321133      49.321133      0.60999999    -435.2775      -337.53571      857.18603    
    493000   246500         573.27371      709.0658       19580.665      18339.98       11994.208      6345.7725      4479.2033      8139.1023     -7722.8336     -87.926142     -775.4181       6977.5843     -4663.9396     -267.5732       119977.31      49.321133      49.321133      49.321133      0.60999999     782.25162      970.23221      374.71358    
    494000   247000         577.31239      345.1694       19086.749      18482.791      12078.706      6404.0842      4525.9091      8258.6478     -7826.725      -91.489309     -774.79166      6973.9317     -4661.3984     -267.5732       119977.31      49.321133      49.321133      49.321133      0.60999999     151.61864      662.53275      221.35681    
    495000   247500         579.65071     -364.46032      17950.984      18588.697      12127.629      6461.0674      4601.7128      8240.5034     -7782.6335     -99.441899     -799.71772      6965.633      -4664.9887     -267.5732       119977.31      49.321133      49.321133      49.321133      0.60999999    -739.1196      -266.5212      -87.740154    
    496000   248000         577.42792     -66.743024      18465.762      18582.545      12081.123      6501.4214      4571.4618      8278.1228     -7775.315      -98.911615     -796.66772      6982.6336     -4659.9025     -267.5732       119977.31      49.321133      49.321133      49.321133      0.60999999     32.771825     -566.01379      333.01289    
    497000   248500         580.06313     -505.03703      17400.521      18284.208      12136.258      6147.9496      4415.5316      8095.8245     -7755.5727     -93.446055     -827.23647      6970.5761     -4657.7274     -267.5732       119977.31      49.321133      49.321133      49.321133      0.60999999    -953.83187      310.38514     -871.66436    
    498000   249000         581.31099      198.13367      19068.277      18721.593      12162.366      6559.227       4661.5677      8125.5647     -7630.1989     -94.928233     -838.66989      6993.9969     -4658.1053     -267.5732       119977.31      49.321133      49.321133      49.321133      0.60999999    -838.50256      1434.2539     -1.3503798    
    499000   249500         580.34633      436.86796      19233.098      18468.69       12142.183      6326.5063      4510.4062      8199.6152     -7796.7878     -95.86681      -796.31092      6965.5111     -4660.0607     -267.5732       119977.31      49.321133      49.321133      49.321133      0.60999999     28.903126      297.52378      984.17697    
    500000   250000         582.7228      -977.64575      16796.899      18507.531      12191.905      6315.6263      4407.556       8431.2342     -7843.3072     -105.45072     -864.37847      6960.9204     -4670.9479     -267.5732       119977.31      49.321133      49.321133      49.321133      0.60999999    -83.023501     -2165.2029     -684.71084    
Loop time of 2760.21 on 4 procs for 500000 steps with 7020 atoms

Performance: 7.825 ns/day, 3.067 hours/ns, 181.146 timesteps/s, 1.272 Matom-step/s
95.5% CPU use with 4 MPI tasks x 1 OpenMP threads

MPI task timing breakdown:
Section |  min time  |  avg time  |  max time  |%varavg| %total
---------------------------------------------------------------
Pair    | 273.74     | 330.58     | 366.19     | 198.0 | 11.98
Bond    | 558.06     | 824.21     | 1112.7     | 814.6 | 29.86
Kspace  | 872.65     | 1161.2     | 1426       | 684.1 | 42.07
Neigh   | 117.65     | 187.57     | 269.41     | 473.2 |  6.80
Comm    | 84.855     | 87.018     | 89.307     |  19.7 |  3.15
Output  | 2.4871     | 2.5656     | 2.6355     |   3.6 |  0.09
Modify  | 84.185     | 153.46     | 213.04     | 398.7 |  5.56
Other   |            | 13.58      |            |       |  0.49

Nlocal:           1755 ave        2271 max        1230 min
Histogram: 2 0 0 0 0 0 0 0 0 2
Nghost:        8293.75 ave        8751 max        7846 min
Histogram: 1 1 0 0 0 0 0 0 1 1
Neighs:              0 ave           0 max           0 min
Histogram: 4 0 0 0 0 0 0 0 0 0
FullNghs:       748131 ave 1.02691e+06 max      467134 min
Histogram: 2 0 0 0 0 0 0 0 0 2

Total # of neighbors = 2992524
Ave neighs/atom = 426.28547
Ave special neighs/atom = 5.7008547
Neighbor list builds = 9868
Dangerous builds = 0

# --- Cleanup ---
unfix nvt_fix

undump dump_nvt

# --- Write Output ---
write_dump all custom nvt_softheat_last.dump id type mol x y z xu yu zu vx vy vz modify sort id
write_data /home/alexzhao/PolyJarvis/data/PEG1/lammps/equil/nvt_softheat/nvt_softheat_out.data
System init for write_data ...
PPPM initialization ...
  using 12-bit tables for long-range coulomb
  G vector (1/distance) = 0.29292283
  grid = 32 32 32
  stencil order = 5
  estimated absolute RMS force accuracy = 0.00039792135
  estimated relative force accuracy = 1.1983283e-06
  using double precision KISS FFT
  3d grid and FFT values/proc = 20631 8192
Generated 10 of 10 mixed pair_coeff terms from sixthpower/sixthpower mixing rule

print "STAGE COMPLETE: NVT T=300.0->580.0K steps=500000"
STAGE COMPLETE: NVT T=300.0->580.0K steps=500000
quit
 FFT
  3d grid and FFT values/proc = 20631 8192


---------------------------------------------------------------------
    Device Time Info (average) for kspace: 
---------------------------------------------------------------------
CPU Poisson:     1148.8187 s.
CPU Data Cast:   2.0488 s.
CPU Idle Time:   1.4571 s.
Max Mem / Proc:  5.13 MB.
---------------------------------------------------------------------


--------------------------------------------------------------------------
- Using acceleration for pppm:
-  with 4 proc(s) per device.
-  with 1 thread(s) per proc.
-  Horizontal vector operations: ENABLED
-  Shared memory system: No
--------------------------------------------------------------------------
Device 0: NVIDIA A800 40GB Active, 108 CUs, 38/39 GB, 1.4 GHZ (Mixed Precision)
--------------------------------------------------------------------------

Initializing Device and compiling on process 0...Done.
Initializing Device 0 on core 0...Done.
Initializing Device 0 on core 1...Done.
Initializing Device 0 on core 2...Done.
Initializing Device 0 on core 3...Done.



---------------------------------------------------------------------
      Device Time Info (average): 
---------------------------------------------------------------------
CPU Cast/Pack:   2.8634 s.
CPU Driver_Time: 7.2111 s.
CPU Idle_Time:   1.0996 s.
Average split:   1.0000.
Max Mem / Proc:  8.31 MB.
Prefetch mode:   None.
Vector width:    32.
Lanes / atom:    8.
Pair block:      256.
Neigh block:     128.
Neigh mode:      Host.
---------------------------------------------------------------------


--------------------------------------------------------------------------
- Using acceleration for lj/class2/coul/long:
-  with 4 proc(s) per device.
-  with 1 thread(s) per proc.
-  Horizontal vector operations: ENABLED
-  Shared memory system: No
--------------------------------------------------------------------------
Device 0: NVIDIA A800 40GB Active, 108 CUs, 38/39 GB, 1.4 GHZ (Mixed Precision)
--------------------------------------------------------------------------

Initializing Device and compiling on process 0...Done.
Initializing Device 0 on core 0...Done.
Initializing Device 0 on core 1...Done.
Initializing Device 0 on core 2...Done.
Initializing Device 0 on core 3...Done.

Generated 10 of 10 mixed pair_coeff terms from sixthpower/sixthpower mixing rule
STAGE COMPLETE: NVT T=300.0->580.0K steps=500000
