units real
atom_style full
boundary p p p

# --- Force Field Styles ---
pair_style lj/class2/coul/long 9.5 9.5
kspace_style pppm 1e-6
dielectric 1.000000
bond_style class2
angle_style class2
dihedral_style class2
improper_style class2
special_bonds lj/coul 0 0 1
pair_modify mix sixthpower tail yes
neighbor 2.0 bin
neigh_modify delay 0 every 1 check yes
neigh_modify one 4000
# KOKKOS: package loaded via -pk kokkos on the command line

read_data /home/alexzhao/PolyJarvis/data/PS3/lammps/equil/npt_compress/npt_compress_out.data
Reading data file ...
  orthogonal box = (6.8317098 6.8317098 6.8317098) to (43.902975 43.902975 43.902975)
  1 by 1 by 1 MPI processor grid
WARNING: Pair style lj/class2/coul/cut/kk in data file differs from currently defined pair style lj/class2/coul/long/kk (src/read_data.cpp:811)
  reading atoms ...
  6420 atoms
  reading velocities ...
  6420 velocities
  scanning bonds ...
  4 = max bonds/atom
  scanning angles ...
  14 = max angles/atom
  scanning dihedrals ...
  34 = max dihedrals/atom
  scanning impropers ...
  11 = max impropers/atom
  orthogonal box = (6.8317098 6.8317098 6.8317098) to (43.902975 43.902975 43.902975)
  1 by 1 by 1 MPI processor grid
  reading bonds ...
  6810 bonds
  reading angles ...
  12000 angles
  reading dihedrals ...
  19110 dihedrals
  reading impropers ...
  5600 impropers
Finding 1-2 1-3 1-4 neighbors ...
  special bond factors lj:    0        0        1       
  special bond factors coul:  0        0        1       
     4 = max # of 1-2 neighbors
     8 = max # of 1-3 neighbors
    12 = max # of special neighbors
  special bonds CPU = 0.007 seconds
  read_data CPU = 0.281 seconds
include /home/alexzhao/PolyJarvis/data/PS3/lammps/equil/emc_build.params
# LAMMPS parameters created by EMC v9.4.4, build Jul 31 2025 20:33:44

# Variables

variable	seed		index	472913
variable	ntotal		index	6420
variable	fshape		index	1
variable	output		index	emc_build
variable	field		index	pcff/pcff
variable	location1	index	~/emc/field/
variable	nav		index	0.6022141179
variable	temperature	index	300
variable	radius		index	5
variable	nrelax		index	100
variable	weight_nonbond	index	0.0001
variable	weight_bond	index	0.0001
variable	weight_focus	index	1
variable	cutoff		index	9.5
variable	charge_cutoff	index	9.5
variable	kappa		index	4
variable	density1	index	0.53
variable	lprevious	index	0
variable	lphase		index	50.7346850343
variable	f_poly		index	10
variable	chem_repeat	index	*CC(c1ccccc1)*
variable	chem_cap	index	*[H]
variable	lg_repeat	index	16
variable	lg_cap		index	1
variable	norm_poly	index	100
variable	l_poly		index	642
variable	mg_repeat	index	92.14181
variable	mg_cap		index	1.00797
variable	m_poly		index	3687.68834
variable	n_poly		index	10
variable	mtotal		index	41681.3434
variable	nphase1		index	6420
variable	mphase1		index	41681.3434
variable	vphase1		index	130591.498627
variable	lbox		index	50.7346850343
variable	lphase1		index	50.7346850343
variable	lxx		index	50.7346850343
variable	lyy		index	50.7346850343
variable	lzz		index	50.7346850343
variable	lzy		index	0
variable	lzx		index	0
variable	lyx		index	0
variable	vtotal		index	130591.498627
variable	nl_poly		index	10

# Types

variable	type_c		index	1
variable	type_c1		index	2
variable	type_cp		index	3
variable	type_hc		index	4

variable	type_bond_c_c	index	1
variable	type_bond_c_c1	index	2
variable	type_bond_c_cp	index	3
variable	type_bond_c_hc	index	4
variable	type_bond_c1_cp	index	5
variable	type_bond_c1_hc	index	6
variable	type_bond_cp_cp	index	7
variable	type_bond_cp_hc	index	8

variable	type_angle_c_c_c1 index	1
variable	type_angle_c_c_cp index	2
variable	type_angle_c_c_hc index	3
variable	type_angle_c_c1_c index	4
variable	type_angle_c_c1_cp index	5
variable	type_angle_c_c1_hc index	6
variable	type_angle_c_cp_cp index	7
variable	type_angle_c1_c_c1 index	8
variable	type_angle_c1_c_hc index	9
variable	type_angle_c1_cp_cp index	10
variable	type_angle_cp_c_hc index	11
variable	type_angle_cp_c1_hc index	12
variable	type_angle_cp_cp_cp index	13
variable	type_angle_cp_cp_hc index	14
variable	type_angle_hc_c_hc index	15

# Clusters

variable	n0_poly		index	1
variable	n1_poly		index	10
variable	nl_poly		index	10

# Flags

variable	flag_charged	index	1

# Masses

mass		1    12.01115  # c
mass		2    12.01115  # c1
mass		3    12.01115  # cp
mass		4     1.00797  # hc

# Potentials

pair_modify	mix sixthpower tail yes
special_bonds	lj/coul 0 0 1

# Pair Coeffs

pair_coeff	 1  1    0.05400    4.01000  # c,c
pair_coeff	 2  2    0.05400    4.01000  # c1,c1
pair_coeff	 3  3    0.06400    4.01000  # cp,cp
pair_coeff	 4  4    0.02000    2.99500  # hc,hc

# Bond Coeffs

bond_coeff	1    1.53000  299.67000 -501.77000  679.81000  # c,c
bond_coeff	2    1.53000  299.67000 -501.77000  679.81000  # c,c1
bond_coeff	3    1.50100  321.90210 -521.82080  572.16280  # c,cp
bond_coeff	4    1.10100  345.00000 -691.89000  844.60000  # c,hc
bond_coeff	5    1.50100  321.90210 -521.82080  572.16280  # c1,cp
bond_coeff	6    1.10100  345.00000 -691.89000  844.60000  # c1,hc
bond_coeff	7    1.41700  470.83610 -627.61790 1327.63450  # cp,cp
bond_coeff	8    1.09820  372.82510 -803.45260  894.31730  # cp,hc

# Angle Coeffs

angle_coeff	 1  112.67000   39.51600   -7.44300   -9.55830  # c,c,c1
angle_coeff	 2  108.40000   43.95940   -8.39240   -9.33790  # c,c,cp
angle_coeff	 3  110.77000   41.45300  -10.60400    5.12900  # c,c,hc
angle_coeff	 4  112.67000   39.51600   -7.44300   -9.55830  # c,c1,c
angle_coeff	 5  108.40000   43.95940   -8.39240   -9.33790  # c,c1,cp
angle_coeff	 6  110.77000   41.45300  -10.60400    5.12900  # c,c1,hc
angle_coeff	 7  120.05000   44.71480  -22.73520    0.00000  # c,cp,cp
angle_coeff	 8  112.67000   39.51600   -7.44300   -9.55830  # c1,c,c1
angle_coeff	 9  110.77000   41.45300  -10.60400    5.12900  # c1,c,hc
angle_coeff	10  120.05000   44.71480  -22.73520    0.00000  # c1,cp,cp
angle_coeff	11  111.00000   44.32340   -9.44540    0.00000  # cp,c,hc
angle_coeff	12  111.00000   44.32340   -9.44540    0.00000  # cp,c1,hc
angle_coeff	13  118.90000   61.02260  -34.99310    0.00000  # cp,cp,cp
angle_coeff	14  117.94000   35.15580  -12.46820    0.00000  # cp,cp,hc
angle_coeff	15  107.66000   39.64100  -12.92100   -2.43180  # hc,c,hc

# BondBond Coeffs

angle_coeff	 1 bb    0.00000    1.53000    1.53000  # c,c,c1
angle_coeff	 2 bb    0.00000    1.53000    1.50100  # c,c,cp
angle_coeff	 3 bb    3.38720    1.53000    1.10100  # c,c,hc
angle_coeff	 4 bb    0.00000    1.53000    1.53000  # c,c1,c
angle_coeff	 5 bb    0.00000    1.53000    1.50100  # c,c1,cp
angle_coeff	 6 bb    3.38720    1.53000    1.10100  # c,c1,hc
angle_coeff	 7 bb   12.06760    1.50100    1.41700  # c,cp,cp
angle_coeff	 8 bb    0.00000    1.53000    1.53000  # c1,c,c1
angle_coeff	 9 bb    3.38720    1.53000    1.10100  # c1,c,hc
angle_coeff	10 bb   12.06760    1.50100    1.41700  # c1,cp,cp
angle_coeff	11 bb    2.91680    1.50100    1.10100  # cp,c,hc
angle_coeff	12 bb    2.91680    1.50100    1.10100  # cp,c1,hc
angle_coeff	13 bb   68.28560    1.41700    1.41700  # cp,cp,cp
angle_coeff	14 bb    1.07950    1.41700    1.09820  # cp,cp,hc
angle_coeff	15 bb    5.33160    1.10100    1.10100  # hc,c,hc

# BondAngle Coeffs

angle_coeff	 1 ba    8.01600    8.01600    1.53000    1.53000  # c,c,c1
angle_coeff	 2 ba    0.00000    0.00000    1.53000    1.50100  # c,c,cp
angle_coeff	 3 ba   20.75400   11.42100    1.53000    1.10100  # c,c,hc
angle_coeff	 4 ba    8.01600    8.01600    1.53000    1.53000  # c,c1,c
angle_coeff	 5 ba    0.00000    0.00000    1.53000    1.50100  # c,c1,cp
angle_coeff	 6 ba   20.75400   11.42100    1.53000    1.10100  # c,c1,hc
angle_coeff	 7 ba   47.05790   31.07710    1.50100    1.41700  # c,cp,cp
angle_coeff	 8 ba    8.01600    8.01600    1.53000    1.53000  # c1,c,c1
angle_coeff	 9 ba   20.75400   11.42100    1.53000    1.10100  # c1,c,hc
angle_coeff	10 ba   47.05790   31.07710    1.50100    1.41700  # c1,cp,cp
angle_coeff	11 ba   26.46080   11.77170    1.50100    1.10100  # cp,c,hc
angle_coeff	12 ba   26.46080   11.77170    1.50100    1.10100  # cp,c1,hc
angle_coeff	13 ba   28.87080   28.87080    1.41700    1.41700  # cp,cp,cp
angle_coeff	14 ba   20.00330   24.21830    1.41700    1.09820  # cp,cp,hc
angle_coeff	15 ba   18.10300   18.10300    1.10100    1.10100  # hc,c,hc

# Dihedral Coeffs

dihedral_coeff	 1    0.00000    0.00000    0.05140    0.00000   -0.14300    0.00000  # c,c,c1,c
dihedral_coeff	 2    0.00000    0.00000    0.00000    0.00000    0.15800  180.00000  # c,c,c1,cp
dihedral_coeff	 3    0.00000    0.00000    0.03160    0.00000   -0.16810    0.00000  # c,c,c1,hc
dihedral_coeff	 4   -0.28020    0.00000   -0.06780    0.00000   -0.01220    0.00000  # c,c,cp,cp
dihedral_coeff	 5    0.00000    0.00000    0.05140    0.00000   -0.14300    0.00000  # c,c1,c,c1
dihedral_coeff	 6    0.00000    0.00000    0.03160    0.00000   -0.16810    0.00000  # c,c1,c,hc
dihedral_coeff	 7   -0.28020    0.00000   -0.06780    0.00000   -0.01220    0.00000  # c,c1,cp,cp
dihedral_coeff	 8    0.00000    0.00000    4.40720    0.00000    0.00000    0.00000  # c,cp,cp,cp
dihedral_coeff	 9    0.00000    0.00000    1.55900    0.00000    0.00000    0.00000  # c,cp,cp,hc
dihedral_coeff	10    0.00000    0.00000    0.00000    0.00000    0.15800  180.00000  # c1,c,c,cp
dihedral_coeff	11    0.00000    0.00000    0.03160    0.00000   -0.16810    0.00000  # c1,c,c,hc
dihedral_coeff	12    0.00000    0.00000    0.00000    0.00000    0.15800  180.00000  # c1,c,c1,cp
dihedral_coeff	13    0.00000    0.00000    0.03160    0.00000   -0.16810    0.00000  # c1,c,c1,hc
dihedral_coeff	14    0.00000    0.00000    4.40720    0.00000    0.00000    0.00000  # c1,cp,cp,cp
dihedral_coeff	15    0.00000    0.00000    1.55900    0.00000    0.00000    0.00000  # c1,cp,cp,hc
dihedral_coeff	16   -0.02280    0.00000    0.02800    0.00000   -0.18630    0.00000  # cp,c,c,hc
dihedral_coeff	17   -0.02280    0.00000    0.02800    0.00000   -0.18630    0.00000  # cp,c1,c,hc
dihedral_coeff	18   -0.28010    0.00000   -0.06780    0.00000   -0.01220    0.00000  # cp,cp,c,hc
dihedral_coeff	19   -0.28010    0.00000   -0.06780    0.00000   -0.01220    0.00000  # cp,cp,c1,hc
dihedral_coeff	20    8.36670    0.00000    1.19320    0.00000    0.00000    0.00000  # cp,cp,cp,cp
dihedral_coeff	21    0.00000    0.00000    3.96610    0.00000    0.00000    0.00000  # cp,cp,cp,hc
dihedral_coeff	22   -0.14320    0.00000    0.06170    0.00000   -0.10830    0.00000  # hc,c,c,hc
dihedral_coeff	23   -0.14320    0.00000    0.06170    0.00000   -0.10830    0.00000  # hc,c,c1,hc
dihedral_coeff	24    0.00000    0.00000    1.87690    0.00000    0.00000    0.00000  # hc,cp,cp,hc

# MiddleBondTorsion Coeffs

dihedral_coeff	 1 mbt  -17.78700   -7.18770    0.00000    1.53000  # c,c,c1,c
dihedral_coeff	 2 mbt    0.00000    0.00000    0.00000    1.53000  # c,c,c1,cp
dihedral_coeff	 3 mbt  -14.87900   -3.65810   -0.31380    1.53000  # c,c,c1,hc
dihedral_coeff	 4 mbt    0.00000    0.00000    0.00000    1.50100  # c,c,cp,cp
dihedral_coeff	 5 mbt  -17.78700   -7.18770    0.00000    1.53000  # c,c1,c,c1
dihedral_coeff	 6 mbt  -14.87900   -3.65810   -0.31380    1.53000  # c,c1,c,hc
dihedral_coeff	 7 mbt    0.00000    0.00000    0.00000    1.50100  # c,c1,cp,cp
dihedral_coeff	 8 mbt    0.00000    9.17920    0.00000    1.41700  # c,cp,cp,cp
dihedral_coeff	 9 mbt    0.00000    3.94210    0.00000    1.41700  # c,cp,cp,hc
dihedral_coeff	10 mbt    0.00000    0.00000    0.00000    1.53000  # c1,c,c,cp
dihedral_coeff	11 mbt  -14.87900   -3.65810   -0.31380    1.53000  # c1,c,c,hc
dihedral_coeff	12 mbt    0.00000    0.00000    0.00000    1.53000  # c1,c,c1,cp
dihedral_coeff	13 mbt  -14.87900   -3.65810   -0.31380    1.53000  # c1,c,c1,hc
dihedral_coeff	14 mbt    0.00000    9.17920    0.00000    1.41700  # c1,cp,cp,cp
dihedral_coeff	15 mbt    0.00000    3.94210    0.00000    1.41700  # c1,cp,cp,hc
dihedral_coeff	16 mbt    0.00000    0.00000    0.00000    1.53000  # cp,c,c,hc
dihedral_coeff	17 mbt    0.00000    0.00000    0.00000    1.53000  # cp,c1,c,hc
dihedral_coeff	18 mbt   -5.56790    1.40830    0.30100    1.50100  # cp,cp,c,hc
dihedral_coeff	19 mbt   -5.56790    1.40830    0.30100    1.50100  # cp,cp,c1,hc
dihedral_coeff	20 mbt   27.59890   -2.31200    0.00000    1.41700  # cp,cp,cp,cp
dihedral_coeff	21 mbt    0.00000   -1.15210    0.00000    1.41700  # cp,cp,cp,hc
dihedral_coeff	22 mbt  -14.26100   -0.53220   -0.48640    1.53000  # hc,c,c,hc
dihedral_coeff	23 mbt  -14.26100   -0.53220   -0.48640    1.53000  # hc,c,c1,hc
dihedral_coeff	24 mbt    0.00000    4.82280    0.00000    1.41700  # hc,cp,cp,hc

# EndBondTorsion Coeffs

dihedral_coeff	 1 ebt   -0.07320    0.00000    0.00000   -0.07320    0.00000    0.00000    1.53000    1.53000  # c,c,c1,c
dihedral_coeff	 2 ebt    0.00000    0.00000    0.00000    0.00000    0.00000    0.00000    1.53000    1.50100  # c,c,c1,cp
dihedral_coeff	 3 ebt    0.24860    0.24220   -0.09250    0.08140    0.05910    0.22190    1.53000    1.10100  # c,c,c1,hc
dihedral_coeff	 4 ebt    0.00000    0.00000    0.00000    0.00000    0.00000    0.00000    1.53000    1.41700  # c,c,cp,cp
dihedral_coeff	 5 ebt   -0.07320    0.00000    0.00000   -0.07320    0.00000    0.00000    1.53000    1.53000  # c,c1,c,c1
dihedral_coeff	 6 ebt    0.24860    0.24220   -0.09250    0.08140    0.05910    0.22190    1.53000    1.10100  # c,c1,c,hc
dihedral_coeff	 7 ebt    0.00000    0.00000    0.00000    0.00000    0.00000    0.00000    1.53000    1.41700  # c,c1,cp,cp
dihedral_coeff	 8 ebt    0.00000    0.24210    0.00000    0.00000   -0.69180    0.00000    1.50100    1.41700  # c,cp,cp,cp
dihedral_coeff	 9 ebt    0.00000   -1.79700    0.00000    0.00000   -0.48790    0.00000    1.50100    1.09820  # c,cp,cp,hc
dihedral_coeff	10 ebt    0.00000    0.00000    0.00000    0.00000    0.00000    0.00000    1.53000    1.50100  # c1,c,c,cp
dihedral_coeff	11 ebt    0.24860    0.24220   -0.09250    0.08140    0.05910    0.22190    1.53000    1.10100  # c1,c,c,hc
dihedral_coeff	12 ebt    0.00000    0.00000    0.00000    0.00000    0.00000    0.00000    1.53000    1.50100  # c1,c,c1,cp
dihedral_coeff	13 ebt    0.24860    0.24220   -0.09250    0.08140    0.05910    0.22190    1.53000    1.10100  # c1,c,c1,hc
dihedral_coeff	14 ebt    0.00000    0.24210    0.00000    0.00000   -0.69180    0.00000    1.50100    1.41700  # c1,cp,cp,cp
dihedral_coeff	15 ebt    0.00000   -1.79700    0.00000    0.00000   -0.48790    0.00000    1.50100    1.09820  # c1,cp,cp,hc
dihedral_coeff	16 ebt    0.00000    0.00000    0.00000    0.00000    0.00000    0.00000    1.50100    1.10100  # cp,c,c,hc
dihedral_coeff	17 ebt    0.00000    0.00000    0.00000    0.00000    0.00000    0.00000    1.50100    1.10100  # cp,c1,c,hc
dihedral_coeff	18 ebt   -0.58350    1.12200    0.39780    1.39970    0.77560    0.00000    1.41700    1.10100  # cp,cp,c,hc
dihedral_coeff	19 ebt   -0.58350    1.12200    0.39780    1.39970    0.77560    0.00000    1.41700    1.10100  # cp,cp,c1,hc
dihedral_coeff	20 ebt   -0.11850    6.32040    0.00000   -0.11850    6.32040    0.00000    1.41700    1.41700  # cp,cp,cp,cp
dihedral_coeff	21 ebt    0.00000   -6.89580    0.00000    0.00000   -0.46690    0.00000    1.41700    1.09820  # cp,cp,cp,hc
dihedral_coeff	22 ebt    0.21300    0.31200    0.07770    0.21300    0.31200    0.07770    1.10100    1.10100  # hc,c,c,hc
dihedral_coeff	23 ebt    0.21300    0.31200    0.07770    0.21300    0.31200    0.07770    1.10100    1.10100  # hc,c,c1,hc
dihedral_coeff	24 ebt    0.00000   -0.68900    0.00000    0.00000   -0.68900    0.00000    1.09820    1.09820  # hc,cp,cp,hc

# AngleTorsion Coeffs

dihedral_coeff	 1 at    0.38860   -0.31390    0.13890    0.38860   -0.31390    0.13890  112.67000  112.67000  # c,c,c1,c
dihedral_coeff	 2 at    0.00000    0.00000    0.00000    0.00000    0.00000    0.00000  112.67000  108.40000  # c,c,c1,cp
dihedral_coeff	 3 at   -0.24540    0.00000   -0.11360    0.31130    0.45160   -0.19880  112.67000  110.77000  # c,c,c1,hc
dihedral_coeff	 4 at    0.00000    0.00000    0.00000    0.00000    0.00000    0.00000  108.40000  120.05000  # c,c,cp,cp
dihedral_coeff	 5 at    0.38860   -0.31390    0.13890    0.38860   -0.31390    0.13890  112.67000  112.67000  # c,c1,c,c1
dihedral_coeff	 6 at   -0.24540    0.00000   -0.11360    0.31130    0.45160   -0.19880  112.67000  110.77000  # c,c1,c,hc
dihedral_coeff	 7 at    0.00000    0.00000    0.00000    0.00000    0.00000    0.00000  108.40000  120.05000  # c,c1,cp,cp
dihedral_coeff	 8 at    0.00000   -4.46830    0.00000    0.00000    3.89870    0.00000  120.05000  118.90000  # c,cp,cp,cp
dihedral_coeff	 9 at    0.00000   -0.12420    0.00000    0.00000    3.46010    0.00000  120.05000  117.94000  # c,cp,cp,hc
dihedral_coeff	10 at    0.00000    0.00000    0.00000    0.00000    0.00000    0.00000  112.67000  108.40000  # c1,c,c,cp
dihedral_coeff	11 at   -0.24540    0.00000   -0.11360    0.31130    0.45160   -0.19880  112.67000  110.77000  # c1,c,c,hc
dihedral_coeff	12 at    0.00000    0.00000    0.00000    0.00000    0.00000    0.00000  112.67000  108.40000  # c1,c,c1,cp
dihedral_coeff	13 at   -0.24540    0.00000   -0.11360    0.31130    0.45160   -0.19880  112.67000  110.77000  # c1,c,c1,hc
dihedral_coeff	14 at    0.00000   -4.46830    0.00000    0.00000    3.89870    0.00000  120.05000  118.90000  # c1,cp,cp,cp
dihedral_coeff	15 at    0.00000   -0.12420    0.00000    0.00000    3.46010    0.00000  120.05000  117.94000  # c1,cp,cp,hc
dihedral_coeff	16 at    0.00000    0.00000    0.00000    0.00000    0.00000    0.00000  108.40000  110.77000  # cp,c,c,hc
dihedral_coeff	17 at    0.00000    0.00000    0.00000    0.00000    0.00000    0.00000  108.40000  110.77000  # cp,c1,c,hc
dihedral_coeff	18 at    0.22510    0.65480    0.12370    4.62660    0.16320    0.04610  120.05000  111.00000  # cp,cp,c,hc
dihedral_coeff	19 at    0.22510    0.65480    0.12370    4.62660    0.16320    0.04610  120.05000  111.00000  # cp,cp,c1,hc
dihedral_coeff	20 at    1.97670    1.02390    0.00000    1.97670    1.02390    0.00000  118.90000  118.90000  # cp,cp,cp,cp
dihedral_coeff	21 at    0.00000    2.50140    0.00000    0.00000    2.71470    0.00000  118.90000  117.94000  # cp,cp,cp,hc
dihedral_coeff	22 at   -0.80850    0.55690   -0.24660   -0.80850    0.55690   -0.24660  110.77000  110.77000  # hc,c,c,hc
dihedral_coeff	23 at   -0.80850    0.55690   -0.24660   -0.80850    0.55690   -0.24660  110.77000  110.77000  # hc,c,c1,hc
dihedral_coeff	24 at    0.00000    2.45010    0.00000    0.00000    2.45010    0.00000  117.94000  117.94000  # hc,cp,cp,hc

# AngleAngleTorsion Coeffs

dihedral_coeff	 1 aat  -22.04500  112.67000  112.67000  # c,c,c1,c
dihedral_coeff	 2 aat    0.00000  112.67000  108.40000  # c,c,c1,cp
dihedral_coeff	 3 aat  -16.16400  112.67000  110.77000  # c,c,c1,hc
dihedral_coeff	 4 aat    0.00000  108.40000  120.05000  # c,c,cp,cp
dihedral_coeff	 5 aat  -22.04500  112.67000  112.67000  # c,c1,c,c1
dihedral_coeff	 6 aat  -16.16400  112.67000  110.77000  # c,c1,c,hc
dihedral_coeff	 7 aat    0.00000  108.40000  120.05000  # c,c1,cp,cp
dihedral_coeff	 8 aat  -14.40970  120.05000  118.90000  # c,cp,cp,cp
dihedral_coeff	 9 aat    4.44440  120.05000  117.94000  # c,cp,cp,hc
dihedral_coeff	10 aat    0.00000  112.67000  108.40000  # c1,c,c,cp
dihedral_coeff	11 aat  -16.16400  112.67000  110.77000  # c1,c,c,hc
dihedral_coeff	12 aat    0.00000  112.67000  108.40000  # c1,c,c1,cp
dihedral_coeff	13 aat  -16.16400  112.67000  110.77000  # c1,c,c1,hc
dihedral_coeff	14 aat  -14.40970  120.05000  118.90000  # c1,cp,cp,cp
dihedral_coeff	15 aat    4.44440  120.05000  117.94000  # c1,cp,cp,hc
dihedral_coeff	16 aat    0.00000  108.40000  110.77000  # cp,c,c,hc
dihedral_coeff	17 aat    0.00000  108.40000  110.77000  # cp,c1,c,hc
dihedral_coeff	18 aat   -5.88880  120.05000  111.00000  # cp,cp,c,hc
dihedral_coeff	19 aat   -5.88880  120.05000  111.00000  # cp,cp,c1,hc
dihedral_coeff	20 aat    0.00000  118.90000  118.90000  # cp,cp,cp,cp
dihedral_coeff	21 aat   -4.81410  118.90000  117.94000  # cp,cp,cp,hc
dihedral_coeff	22 aat  -12.56400  110.77000  110.77000  # hc,c,c,hc
dihedral_coeff	23 aat  -12.56400  110.77000  110.77000  # hc,c,c1,hc
dihedral_coeff	24 aat    0.35980  117.94000  117.94000  # hc,cp,cp,hc

# BondBond13 Coeffs

dihedral_coeff	 1 bb13    0.00000    1.53000    1.53000  # c,c,c1,c
dihedral_coeff	 2 bb13    0.00000    1.53000    1.50100  # c,c,c1,cp
dihedral_coeff	 3 bb13    0.00000    1.53000    1.10100  # c,c,c1,hc
dihedral_coeff	 4 bb13    0.00000    1.53000    1.41700  # c,c,cp,cp
dihedral_coeff	 5 bb13    0.00000    1.53000    1.53000  # c,c1,c,c1
dihedral_coeff	 6 bb13    0.00000    1.53000    1.10100  # c,c1,c,hc
dihedral_coeff	 7 bb13    0.00000    1.53000    1.41700  # c,c1,cp,cp
dihedral_coeff	 8 bb13    2.50850    1.50100    1.41700  # c,cp,cp,cp
dihedral_coeff	 9 bb13    0.87430    1.50100    1.09820  # c,cp,cp,hc
dihedral_coeff	10 bb13    0.00000    1.53000    1.50100  # c1,c,c,cp
dihedral_coeff	11 bb13    0.00000    1.53000    1.10100  # c1,c,c,hc
dihedral_coeff	12 bb13    0.00000    1.53000    1.50100  # c1,c,c1,cp
dihedral_coeff	13 bb13    0.00000    1.53000    1.10100  # c1,c,c1,hc
dihedral_coeff	14 bb13    2.50850    1.50100    1.41700  # c1,cp,cp,cp
dihedral_coeff	15 bb13    0.87430    1.50100    1.09820  # c1,cp,cp,hc
dihedral_coeff	16 bb13    0.00000    1.50100    1.10100  # cp,c,c,hc
dihedral_coeff	17 bb13    0.00000    1.50100    1.10100  # cp,c1,c,hc
dihedral_coeff	18 bb13   -3.48260    1.41700    1.10100  # cp,cp,c,hc
dihedral_coeff	19 bb13   -3.48260    1.41700    1.10100  # cp,cp,c1,hc
dihedral_coeff	20 bb13   53.00000    1.41700    1.41700  # cp,cp,cp,cp
dihedral_coeff	21 bb13   -6.27410    1.41700    1.09820  # cp,cp,cp,hc
dihedral_coeff	22 bb13    0.00000    1.10100    1.10100  # hc,c,c,hc
dihedral_coeff	23 bb13    0.00000    1.10100    1.10100  # hc,c,c1,hc
dihedral_coeff	24 bb13   -1.70770    1.09820    1.09820  # hc,cp,cp,hc

# Improper Coeffs

improper_coeff	 1    0.00000    0.00000  # c,c,cp,hc
improper_coeff	 2    0.00000    0.00000  # c,c,hc,c1
improper_coeff	 3    0.00000    0.00000  # c,c,hc,cp
improper_coeff	 4    0.00000    0.00000  # c,c,hc,hc
improper_coeff	 5    0.00000    0.00000  # c,c1,c1,hc
improper_coeff	 6    0.00000    0.00000  # c,c1,hc,hc
improper_coeff	 7    0.00000    0.00000  # c,cp,hc,hc
improper_coeff	 8    0.00000    0.00000  # c,hc,hc,hc
improper_coeff	 9    0.00000    0.00000  # c1,c,c,cp
improper_coeff	10    0.00000    0.00000  # c1,c,c,hc
improper_coeff	11    0.00000    0.00000  # c1,c,cp,hc
improper_coeff	12    7.81530    0.00000  # cp,c,cp,cp
improper_coeff	13    7.81530    0.00000  # cp,c1,cp,cp
improper_coeff	14    4.89120    0.00000  # cp,cp,cp,hc

# AngleAngle Coeffs

improper_coeff	 1 aa    2.04030   -1.82020    1.08270  108.40000  110.77000  111.00000  # c,c,cp,hc
improper_coeff	 2 aa    0.11840   -1.31990   -1.31990  110.77000  112.67000  110.77000  # c,c,hc,c1
improper_coeff	 3 aa    1.08270   -1.82020    2.04030  110.77000  108.40000  111.00000  # c,c,hc,cp
improper_coeff	 4 aa    0.27380   -0.48250    0.27380  110.77000  110.77000  107.66000  # c,c,hc,hc
improper_coeff	 5 aa   -1.31990   -1.31990    0.11840  112.67000  110.77000  110.77000  # c,c1,c1,hc
improper_coeff	 6 aa    0.27380   -0.48250    0.27380  110.77000  110.77000  107.66000  # c,c1,hc,hc
improper_coeff	 7 aa    2.37940    3.01180    2.37940  111.00000  111.00000  107.66000  # c,cp,hc,hc
improper_coeff	 8 aa   -0.31570   -0.31570   -0.31570  107.66000  107.66000  107.66000  # c,hc,hc,hc
improper_coeff	 9 aa    0.00000    0.00000    0.00000  112.67000  108.40000  108.40000  # c1,c,c,cp
improper_coeff	10 aa   -1.31990   -1.31990    0.11840  112.67000  110.77000  110.77000  # c1,c,c,hc
improper_coeff	11 aa    2.04030   -1.82020    1.08270  108.40000  110.77000  111.00000  # c1,c,cp,hc
improper_coeff	12 aa    0.00000    0.00000    0.00000  120.05000  120.05000  118.90000  # cp,c,cp,cp
improper_coeff	13 aa    0.00000    0.00000    0.00000  120.05000  120.05000  118.90000  # cp,c1,cp,cp
improper_coeff	14 aa    0.00000    0.00000    0.00000  118.90000  117.94000  117.94000  # cp,cp,cp,hc


# --- Thermo Output ---
thermo_style custom step time temp press enthalpy etotal ke pe ebond eangle edihed eimp evdwl ecoul elong etail vol lx ly lz density pxx pyy pzz
thermo_modify flush yes
thermo 1000

# --- Trajectory ---
dump dump_npt all custom 1000 npt_pppm.dump id type mol x y z ix iy iz vx vy vz

# --- Restart Checkpointing ---
restart 10000 npt_1.rst npt_2.rst

# --- Initial Velocities (optional) ---
# Velocities read from data file

# --- SHAKE Constraints ---
# SHAKE disabled

# --- NPT Thermostat + Barostat (Nose-Hoover) ---
# T_damp = 100.0 fs  (heat bath coupling)
# P_damp = 1000.0 fs  (pressure bath coupling, ~10x T_damp typical)
# Ramp: T=630.0->630.0K  P=50000.0->1.0atm
timestep 1.0
fix npt_fix all npt temp 630.0 630.0 100.0 iso 50000.0 1.0 1000.0

run 500000
PPPM Kokkos initialization ...
  using 12-bit tables for long-range coulomb
  G vector (1/distance) = 0.30276459
  grid = 27 27 27
  stencil order = 5
  estimated absolute RMS force accuracy = 0.00031644928
  estimated relative force accuracy = 9.5297761e-07
  using double precision cuFFT
  3d grid and FFT values/proc = 39304 19683
Generated 6 of 6 mixed pair_coeff terms from sixthpower/sixthpower mixing rule
Neighbor list info ...
  update: every = 1 steps, delay = 0 steps, check = yes
  max neighbors/atom: 4000, page size: 100000
  master list distance cutoff = 11.5
  ghost atom cutoff = 11.5
  binsize = 11.5, bins = 4 4 4
  1 neighbor lists, perpetual/occasional/extra = 1 0 0
  (1) pair lj/class2/coul/long/kk, perpetual
      attributes: full, newton off, kokkos_device
      pair build: full/bin/kk/device
      stencil: full/bin/3d
      bin: kk/device
Per MPI rank memory allocation (min/avg/max) = 45.92 | 45.92 | 45.92 Mbytes
   Step          Time           Temp          Press         Enthalpy        TotEng         KinEng         PotEng         E_bond        E_angle        E_dihed        E_impro         E_vdwl         E_coul         E_long         E_tail         Volume           Lx             Ly             Lz          Density          Pxx            Pyy            Pzz      
         0   0              613.02691      46974.02       59441.081      24539.439      11729.546      12809.893      4997.895       4961.6847     -728.80249      457.58352      3267.8364      3861.9459     -4008.2502     -564.56159      50946.251      37.071265      37.071265      37.071265      1.3585591      44804.193      48710.439      47407.429    
      1000   1000           625.57643      50913.648      62645.343      24902.927      11969.667      12933.26       5276.5785      5044.4231     -896.46135      437.39197      3234.2325      3844.1922     -4007.0968     -565.85345      50829.939      37.043032      37.043032      37.043032      1.3616678      50008.466      50791.215      51941.264    
      2000   2000           632.38308      46175.794      59059.184      24627.313      12099.904      12527.409      5148.7622      4973.8012     -916.66047      428.8292       3064.546       3838.9912     -4010.8605     -562.53973      51129.36       37.115626      37.115626      37.115626      1.3536937      45101.427      44763.036      48662.92     
      3000   3000           629.06326      49090.182      61234.172      24777.467      12036.383      12741.084      5218.0405      5075.4897     -955.55385      430.50214      3140.1046      3842.562      -4010.0614     -564.82859      50922.168      37.065423      37.065423      37.065423      1.3592016      46468.316      50941.497      49860.731    
      4000   4000           636.6069       49726.815      61793.643      24841.702      12180.722      12660.981      5192.8083      4955.7649     -877.4204       437.57593      3113.2287      3850.339      -4011.3159     -564.48556      50953.113      37.07293       37.07293       37.07293       1.3583761      49055.667      49555.951      50568.826    
      5000   5000           622.47291      47095.845      59767.364      24640.914      11910.284      12730.629      5251.2929      4922.2641     -845.78449      448.3705       3123.3381      3841.431      -4010.283      -562.40319      51141.773      37.118629      37.118629      37.118629      1.3533651      46547.578      48541.549      46198.408    
      6000   6000           635.09211      47245.682      60060.714      24865.607      12151.738      12713.869      5142.2254      5072.1482     -825.64586      441.49521      3028.8709      3861.3334     -4006.558      -563.0919       51079.222      37.10349       37.10349       37.10349       1.3550225      46577.685      46293.628      48865.735    
      7000   7000           632.38283      49841.95       61809.206      24819.871      12099.899      12719.972      5104.9246      5007.4549     -778.72589      455.6175       3101.7429      3842.4216     -4013.4633     -565.22057      50886.853      37.056853      37.056853      37.056853      1.3601449      50827.236      50858.342      47840.273    
      8000   8000           635.51256      50063.359      62195.203      24893.735      12159.783      12733.952      5264.0174      5051.3993     -944.8522       436.38176      3093.0324      3846.7419     -4012.7684     -562.9807       51089.312      37.105933      37.105933      37.105933      1.3547548      47404.648      51036.485      51748.943    
      9000   9000           630.19821      52081.555      63355.056      24674.372      12058.099      12616.273      5204.8932      4946.4841     -1061.8073      429.37136      3257.5635      3852.8164     -4013.0484     -564.79292      50925.384      37.066203      37.066203      37.066203      1.3591158      48513.981      56573.735      51156.95     
     10000   10000          630.54117      49472.418      61707.942      24810.904      12064.661      12746.243      5271.2867      4953.1743     -830.28338      458.45724      3026.8766      3870.0445     -4003.3131     -562.43336      51139.03       37.117965      37.117965      37.117965      1.3534377      47343.891      50678.317      50395.044    
     11000   11000          626.31059      49989.616      61681.765      24514.847      11983.714      12531.133      5117.4094      5008.1651     -990.79159      433.13088      3146.0519      3830.8778     -4013.7104     -564.18651      50980.121      37.079479      37.079479      37.079479      1.3576565      49057.036      53828.193      47083.619    
     12000   12000          641.92663      49683.315      61668.29       24691.123      12282.508      12408.615      5116.9686      4990.9319     -959.01537      435.34356      2979.3605      3853.2042     -4008.1787     -563.607        51032.539      37.092183      37.092183      37.092183      1.356262       49742.061      51439.233      47868.65     
     13000   13000          625.05287      48542.145      60725.893      24613.254      11959.649      12653.605      5100.6004      5014.588      -813.0467       439.43892      3074.2051      3846.627      -4008.8079     -563.84429      51011.063      37.086979      37.086979      37.086979      1.356833       46681.849      49583.899      49360.688    
     14000   14000          632.19984      46246.258      59089.873      24504.962      12096.398      12408.564      5119.6559      4884.5945     -916.21568      443.16701      3056.9794      3832.696      -4012.3127     -560.90509      51278.366      37.151646      37.151646      37.151646      1.3497601      44906.56       47426.797      46405.416    
     15000   15000          632.42151      47585.438      60217.513      24746.744      12100.639      12646.105      5131.0398      5122.303      -902.59659      428.4862       3042.1553      3834.3333     -4009.6164     -562.73368      51111.738      37.111361      37.111361      37.111361      1.3541604      45938.534      48257.544      48560.235    
     16000   16000          626.49789      47528.895      59819.135      24399.607      11987.298      12412.309      5124.4898      4923.8192     -941.13948      424.71103      3046.813       3847.2986     -4013.6827     -562.87815      51098.62       37.108186      37.108186      37.108186      1.3545081      46967.076      46720.387      48899.221    
     17000   17000          633.74837      46426.218      59310.027      24638.338      12126.027      12512.311      5055.2057      5068.3185     -861.57175      442.73641      2976.3854      3843.892      -4012.6557     -561.67844      51207.763      37.134587      37.134587      37.134587      1.3516211      47673.125      46492.288      45113.242    
     18000   18000          628.55747      48276.149      60659.48       24609.726      12026.705      12583.021      5152.0948      5000.7568     -875.30081      432.86809      3039.6699      3844.0924     -4011.1603     -561.73278      51202.81       37.13339       37.13339       37.13339       1.3517519      48010.149      49077.113      47741.186    
     19000   19000          641.15277      47586.719      60515.16       25055.34       12267.702      12787.638      4995.6524      5103.9135     -728.47205      445.12072      3142.5457      3842.4615     -4013.5834     -562.9226       51094.585      37.107209      37.107209      37.107209      1.354615       48037.117      48322.806      46400.235    
     20000   20000          630.60644      48069.328      60497.153      24677.453      12065.91       12611.543      5190.0578      5014.4405     -878.38722      437.57685      3006.7168      3853.9167     -4012.7784     -562.91854      51094.953      37.107298      37.107298      37.107298      1.3546053      45799.041      49852.619      48556.323    
     21000   21000          636.70521      45758.184      58793.093      24490.818      12182.603      12308.215      5069.7305      4842.6645     -896.39191      424.99432      3031.2903      3844.0328     -4008.1054     -559.55825      51401.791      37.18143       37.18143       37.18143       1.3465191      46172.632      47915.334      43186.587    
     22000   22000          629.63864      45498.613      58503.263      24529.347      12047.392      12481.954      5211.835       4909.2653     -886.12113      441.13401      2981.8663      3837.3228     -4013.3478     -561.76153      51200.189      37.132756      37.132756      37.132756      1.351821       43586.167      47165.635      45744.036    
     23000   23000          636.94981      43476.402      57226.608      24643.803      12187.283      12456.52       5108.3148      4949.1285     -786.0893       453.42092      2871.7366      3867.5884     -4007.5796     -559.71194      51387.677      37.178026      37.178026      37.178026      1.3468889      41159.074      48655.312      40614.82     
     24000   24000          623.99616      47115.175      59831.364      24650.018      11939.43       12710.588      5160.6938      5060.7004     -878.19607      452.97354      3074.5614      3851.4117     -4011.5565     -561.75611      51200.683      37.132876      37.132876      37.132876      1.351808       49843.548      47743.469      43758.508    
     25000   25000          623.10982      45923.451      58859.585      24519.185      11922.471      12596.714      5143.6635      4945.83       -822.54352      441.81364      3047.6683      3851.1837     -4010.9011     -560.95576      51273.734      37.150527      37.150527      37.150527      1.349882       44092.144      46973.696      46704.512    
     26000   26000          637.3229       46831.012      59834.12       24848.257      12194.421      12653.835      5285.8093      4946.8197     -783.18916      467.19994      2902.4315      3846.5337     -4011.7698     -561.48789      51225.141      37.138788      37.138788      37.138788      1.3511626      46778.855      47321.246      46392.936    
     27000   27000          629.00997      48276.068      60653.098      24612.023      12035.363      12576.66       5261.3932      5029.1928     -967.12909      436.81035      2990.9609      3838.9829     -4013.5509     -561.8671       51190.569      37.13043       37.13043       37.13043       1.3520751      45728.83       48773.155      50326.218    
     28000   28000          628.51357      46952.277      59923.039      24832.273      12025.865      12806.408      5351.1834      5132.5002     -936.5283       415.43864      3004.1342      3848.7325     -4009.0525     -561.25892      51246.039      37.143837      37.143837      37.143837      1.3506116      45301.08       46758.833      48796.916    
     29000   29000          636.67452      45696.737      58906.28       24638.448      12182.016      12456.432      5230.0777      4851.8274     -812.24893      457.15134      2876.9659      3860.4283     -4007.7697     -559.3685       51419.228      37.185633      37.185633      37.185633      1.3460625      41644.315      48793.655      46652.242    
     30000   30000          626.45596      47108.072      59580.627      24462.965      11986.495      12476.47       5099.7451      4900.9372     -762.01751      456.61084      2935.7943      3856.1511     -4010.7511     -562.68998      51115.708      37.112322      37.112322      37.112322      1.3540553      46535.394      48570.247      46218.574    
     31000   31000          624.32568      46147.919      58961.682      24377.249      11945.735      12431.514      5163.3609      4955.1251     -835.0952       444.06552      2854.8934      3857.3283     -4008.1639     -559.72011      51386.927      37.177845      37.177845      37.177845      1.3469086      46055.626      46179.423      46208.708    
     32000   32000          637.16034      48120.029      60923.794      24843.025      12191.311      12651.714      5305.578       4981.3991     -860.21003      465.33412      2928.4716      3840.5461     -4009.4052     -559.43487      51413.128      37.184163      37.184163      37.184163      1.3462222      47596.301      49238.852      47524.933    
     33000   33000          633.1506       46023.673      59195.183      24774.329      12114.589      12659.739      5180.4685      4953.9781     -837.64146      450.0874       3077.9238      3847.9742     -4013.0515     -560.86595      51281.945      37.15251       37.15251       37.15251       1.3496659      46081.956      48541.165      43447.898    
     34000   34000          636.11491      46903.907      59722.138      24660.008      12171.308      12488.7        5049.4315      4965.6614     -824.11843      457.73652      3027.6304      3827.4082     -4015.0493     -561.13864      51257.023      37.146491      37.146491      37.146491      1.3503221      44023.175      48869.37       47819.177    
     35000   35000          626.75772      42955.436      56616.477      24288.439      11992.269      12296.17       5175.1463      4828.9009     -840.76751      444.95378      2848.6845      3851.2492     -4011.9971     -557.36313      51604.232      37.230178      37.230178      37.230178      1.3412368      41946.377      45182.287      41737.645    
     36000   36000          625.59265      46069.507      59025.049      24541.924      11969.977      12571.948      5243.8491      5060.4721     -909.10883      429.61027      2922.5608      3837.8297     -4013.2656     -560.41068      51323.605      37.162568      37.162568      37.162568      1.3485704      45546.506      46897.531      45764.484    
     37000   37000          636.26005      45325.576      58644.692      24669.287      12174.085      12495.202      5129.071       5006.5083     -814.49339      435.69119      2903.7871      3843.5293     -4008.8914     -559.60056      51397.905      37.180493      37.180493      37.180493      1.3466209      42889.101      49374.447      43713.179    
     38000   38000          629.81201      46929.186      59536.881      24368.375      12050.709      12317.666      5081.3478      4835.7424     -822.63485      451.22056      2941.6589      3842.5026     -4012.1716     -559.74285      51384.84       37.177342      37.177342      37.177342      1.3469633      43781.468      50088.035      46918.056    
     39000   39000          636.87642      44254.999      57852.121      24610.015      12185.879      12424.137      5186.2998      4937.4995     -820.0897       451.242        2824.3896      3855.7108     -4010.9154     -558.4358       51505.109      37.206324      37.206324      37.206324      1.343818       41097.957      45719.88       45947.16     
     40000   40000          627.67193      46014.908      59112.667      24597.468      12009.762      12587.706      5188.0135      5087.9255     -872.90528      452.71494      2904.8144      3840.4344     -4013.2914     -559.22634      51432.299      37.188784      37.188784      37.188784      1.3457204      46354.511      45383.907      46306.305    
     41000   41000          626.70699      47252.29       59824.39       24478.005      11991.299      12486.706      5171.4726      5009.5988     -875.54344      419.51707      2925.3929      3849.3147     -4013.0465     -560.76036      51291.601      37.154842      37.154842      37.154842      1.3494118      48255.82       44416.611      49084.438    
     42000   42000          642.26121      46247.19       59546.555      24761.97       12288.91       12473.059      5217.6625      5012.0178     -914.84046      442.71453      2870.922       3851.6571     -4007.074      -557.69656      51573.38       37.222756      37.222756      37.222756      1.3420391      44082.018      49756.334      44903.218    
     43000   43000          619.79719      45105.077      58246.874      24474.082      11859.088      12614.994      5271.7416      4876.2178     -829.60943      454.58413      3001.7875      3847.5945     -4007.3216     -560.2191       51341.157      37.166804      37.166804      37.166804      1.3481093      43685.946      45616.402      46012.882    
     44000   44000          617.89562      44911.301      57915.004      24012.547      11822.703      12189.843      5281.6566      4848.8352     -941.91358      444.97107      2717.7631      3848.8744     -4010.3434     -555.6789       51760.641      37.267754      37.267754      37.267754      1.3371838      46371.582      41215.881      47146.44     
     45000   45000          621.7585       46921.874      59680.254      24379.323      11896.615      12482.708      5262.3545      5010.8096     -925.87362      441.14132      2854.42        3850.0553     -4010.1996     -557.55619      51586.364      37.22588       37.22588       37.22588       1.3417013      45762.766      46233.575      48769.281    
     46000   46000          632.65156      48633.49       61145.792      24742.462      12105.041      12637.421      5294.0509      4964.8817     -871.0727       450.40187      2964.3411      3845.8996     -4011.0815     -560.39437      51325.099      37.162929      37.162929      37.162929      1.3485311      44499.842      51618.164      49782.464    
     47000   47000          631.51649      44578.271      57904.758      24422.744      12083.323      12339.421      5090.3612      4923.4048     -811.61626      444.73318      2849.69        3849.0548     -4006.2068     -558.48445      51500.622      37.205244      37.205244      37.205244      1.3439351      46496.819      45509.596      41728.398    
     48000   48000          640.68675      47142.887      60253.738      24868.861      12258.785      12610.076      5290.4238      5092.7731     -940.68956      433.54633      2905.7991      3841.3621     -4013.1386     -558.85344      51466.618      37.197054      37.197054      37.197054      1.344823       43512.538      48317.03       49599.092    
     49000   49000          632.53203      43544.578      57161.077      24368.456      12102.754      12265.702      5060.9709      5053.4568     -815.15422      426.08188      2714.8663      3842.5876     -4017.1068     -557.00284      51637.612      37.238203      37.238203      37.238203      1.3403697      43136.926      43350.964      44145.844    
     50000   50000          621.04245      45421.362      58592.205      24459.294      11882.914      12576.379      5203.4785      5035.5159     -847.22299      422.12849      2919.3402      3853.0251     -4009.8859     -558.19541      51527.289      37.211665      37.211665      37.211665      1.3432396      40062.557      45271.173      50930.356    
     51000   51000          636.52957      43993.96       57767.973      24599.447      12179.242      12420.205      5220.5845      4981.5582     -792.41572      448.94951      2727.6462      3844.4118     -4010.5299     -556.37336      51696.035      37.252242      37.252242      37.252242      1.338855       45102.613      46063.351      40815.917    
     52000   52000          628.68001      44979.484      58226.815      24301.28       12029.05       12272.23       5066.6553      5062.6869     -873.32158      439.48881      2739.8706      3844.3365     -4007.486      -556.14395      51717.359      37.257363      37.257363      37.257363      1.3383029      44300.052      44216.523      46421.878    
     53000   53000          638.26955      44956.606      58467.775      24651.046      12212.534      12438.511      5128.4144      4905.2262     -794.471        458.79494      2907.3936      3841.2012     -4008.0481     -557.64956      51577.726      37.223802      37.223802      37.223802      1.341926       45342.15       47247.375      42280.291    
     54000   54000          635.17739      45482.912      58622.179      24334.744      12153.37       12181.374      5136.9547      4935.779      -911.65637      432.73878      2730.9595      3863.2913     -4006.6926     -556.43278      51690.514      37.250916      37.250916      37.250916      1.338998       45928.886      45305.774      45214.076    
     55000   55000          628.26937      44772.929      58016.994      24283.352      12021.193      12262.16       5104.7559      4923.1372     -826.71903      447.31722      2779.8037      3842.7169     -4008.8523     -556.7391       51662.073      37.244082      37.244082      37.244082      1.3397351      45243.062      42657.514      46418.211    
     56000   56000          635.37646      44320.319      58065.555      24775.903      12157.179      12618.724      5203.0981      5029.9135     -738.33186      448.99124      2834.0834      3850.9887     -4010.0188     -558.46128      51502.759      37.205759      37.205759      37.205759      1.3438793      44049.347      47051.041      41860.568    
     57000   57000          637.66776      43679.3        57431.152      24470.677      12201.02       12269.657      5098.8527      5027.0769     -869.02955      437.42402      2749.1932      3840.3499     -4014.2103     -555.88077      51741.844      37.263242      37.263242      37.263242      1.3376696      42289.65       45563.026      43185.224    
     58000   58000          628.50849      43657.225      57309.668      24310.138      12025.768      12284.37       5185.8904      5021.3462     -887.04078      427.93822      2710.7132      3838.2624     -4012.7398     -554.94229      51829.347      37.284236      37.284236      37.284236      1.3354112      41951.075      46023.449      42997.151    
     59000   59000          629.39273      44073.407      57751.906      24596.321      12042.687      12553.634      5158.7685      5018.0475     -774.37125      442.33265      2880.5651      3838.0404     -4009.7489     -557.59565      51582.713      37.225002      37.225002      37.225002      1.3417963      42628.769      46818.837      42772.616    
     60000   60000          629.96573      44687.63       58020.664      24387.547      12053.651      12333.897      5173.5474      4958.3352     -857.51318      437.61618      2803.2285      3833.0774     -4014.3946     -557.33928      51606.441      37.230709      37.230709      37.230709      1.3411794      43267.253      43366.905      47428.732    
     61000   61000          634.06466      45176.911      58465.271      24343.946      12132.079      12211.867      5180.1387      4979.4363     -987.34719      421.19414      2762.7571      3863.4027     -4007.7149     -555.37981      51788.516      37.274443      37.274443      37.274443      1.3364641      42136.438      46081.497      47312.798    
     62000   62000          624.34095      45271.368      58662.808      24584.937      11946.027      12638.91       5279.6287      5020.5103     -838.91639      440.97876      2877.3722      3869.0958     -4009.7593     -557.2507       51614.644      37.232681      37.232681      37.232681      1.3409662      45243.768      42912.985      47657.352    
     63000   63000          643.04508      45588.765      59011.761      24565.914      12303.909      12262.005      5190.6099      4988.9852     -856.79127      438.55989      2656.8745      3852.4542     -4008.6874     -555.16287      51808.754      37.279297      37.279297      37.279297      1.335942       43639.467      47583.073      45543.756    
     64000   64000          624.33662      45573.684      58728.486      24360.001      11945.944      12414.057      5157.5844      4858.4684     -775.88556      469.69962      2861.5141      3853.4572     -4010.7811     -556.22846      51709.502      37.255476      37.255476      37.255476      1.3385063      43229.216      46737.636      46754.201    
     65000   65000          634.9751       41000.534      55535.778      24519.39       12149.499      12369.891      5309.7835      4844.6081     -747.21876      458.00311      2674.6716      3842.4359     -4012.3928     -554.49513      51871.143      37.294255      37.294255      37.294255      1.3343352      38833.162      42419.685      41748.757    
     66000   66000          630.69402      42845.224      56538.449      24105.076      12067.586      12037.49       5106.8043      5010.4071     -989.98535      427.39142      2653.576       3840.2432     -4010.9462     -554.12756      51905.551      37.3025        37.3025        37.3025        1.3334507      41583.905      42970.3        43981.467    
     67000   67000          629.00702      42916.594      56618.064      24206.849      12035.307      12171.542      5108.4963      4920.7916     -912.65725      424.25298      2796.6186      3847.4557     -4013.4155     -555.43008      51783.829      37.273318      37.273318      37.273318      1.3365851      41018.469      45226.492      42504.822    
     68000   68000          644.29884      40295.156      55163.267      24683.864      12327.898      12355.966      5139.2264      4896.8765     -665.2349       453.9315       2689.3788      3852.1922     -4010.4042     -554.55654      51865.399      37.292879      37.292879      37.292879      1.334483       39154.422      38448.51       43282.537    
     69000   69000          635.26921      43095.755      56849.36       24337.209      12155.126      12182.082      5045.8417      4908.6071     -807.48168      450.7507       2751.6611      3842.4169     -4009.7138     -556.01721      51729.148      37.260194      37.260194      37.260194      1.3379979      40702.447      42173.679      46411.137    
     70000   70000          642.72863      42198.517      56722.237      24715.581      12297.854      12417.727      5139.6569      5094.6227     -766.26036      464.73049      2632.2927      3859.8203     -4007.1356     -553.03972      52007.65       37.326942      37.326942      37.326942      1.3308329      41079.445      42736.397      42779.708    
     71000   71000          636.72449      40231.324      54772.76       24331.813      12182.972      12148.842      5049.0456      4972.3291     -747.82145      448.11605      2585.9174      3848.5571     -4007.302      -554.37753      51882.147      37.296892      37.296892      37.296892      1.3340522      37705.612      42414.202      40574.159    
     72000   72000          629.51119      43427.032      57115.452      24245.243      12044.954      12200.29       5092.4448      4909.868      -740.07775      457.58155      2650.8268      3838.9974     -4009.351      -554.18802      51899.888      37.301143      37.301143      37.301143      1.3335962      44077.843      46271.96       39931.294    
     73000   73000          621.22354      40921.485      55055.856      24059.183      11886.379      12172.804      5076.3346      4940.2474     -782.18623      435.94622      2671.36        3844.5435     -4013.4413     -553.77808      51938.308      37.310345      37.310345      37.310345      1.3326097      41694.062      39234.534      41835.859    
     74000   74000          627.92967      45174.393      58553.552      24318.347      12014.693      12303.653      5225.8818      4927.1591     -884.39832      446.74483      2738.3878      3858.2402     -4008.3619     -553.50155      51964.257      37.316558      37.316558      37.316558      1.3319443      41714.707      45821.056      47987.414    
     75000   75000          627.6075       43340.193      56938.91       24130.242      12008.529      12121.713      5205.7908      4830.4772     -880.11318      449.0254       2669.1201      3857.3237     -4009.9106     -554.11729      51906.514      37.30273       37.30273       37.30273       1.333426       41408.471      44570.071      44042.038    
     76000   76000          638.36268      38207.674      53478.34       24529.462      12214.316      12315.146      5167.9345      4968.9538     -758.63713      429.85531      2670.0671      3846.124      -4009.152      -553.62835      51952.355      37.313708      37.313708      37.313708      1.3322494      38626.793      37261.497      38734.733    
     77000   77000          634.07944      40365.044      54907.572      24187.831      12132.362      12055.469      5168.0279      4930.891      -924.28874      440.3372       2610.1111      3838.7536     -4008.3629     -551.17222      52183.865      37.369052      37.369052      37.369052      1.326339       40409.415      42811.866      37873.85     
     78000   78000          628.65008      44640.483      57908.212      24143.77       12028.477      12115.293      5132.7301      4869.2653     -904.4001       443.36551      2715.2364      3866.3421     -4007.2469     -554.58581      51862.663      37.292223      37.292223      37.292223      1.3345534      44618.684      45726.283      43576.481    
     79000   79000          628.20028      41666.471      55864.407      24238.539      12019.871      12218.668      5139.8187      4924.406      -801.42582      451.5467       2673.5567      3840.874      -4010.1084     -552.64177      52045.101      37.335899      37.335899      37.335899      1.3298753      40701.775      42608.48       41689.157    
     80000   80000          626.71121      40374.252      54717.558      24191.146      11991.379      12199.767      5124.8748      4992.5849     -855.07665      439.50639      2663.0233      3845.2086     -4010.3546     -554.78944      51843.627      37.28766       37.28766       37.28766       1.3350434      38410.487      42507.876      40204.392    
     81000   81000          629.0032       43492.54       57567.723      24505.914      12035.234      12470.68       5249.3747      5045.2251     -781.74475      451.12636      2673.6869      3841.859      -4008.8472     -551.8075       52123.787      37.354706      37.354706      37.354706      1.3278677      41435.298      44662.602      44379.719    
     82000   82000          624.52133      41663.316      55701.892      24095.066      11949.479      12145.587      5127.7537      4991.5805     -887.75154      437.84142      2650.1065      3838.0071     -4011.9506     -552.93286      52017.702      37.329346      37.329346      37.329346      1.3305758      41387.728      41061.987      42540.233    
     83000   83000          635.33598      42038.419      56288.884      24282.443      12156.404      12126.039      5057.092       5075.0479     -824.1792       443.42587      2534.7837      3850.6263     -4010.7578     -550.94524      52205.363      37.374183      37.374183      37.374183      1.3257928      42640.757      42061.428      41413.071    
     84000   84000          625.24597      41893.717      55684.304      23975.56       11963.344      12012.216      5085.6052      4854.8612     -871.24374      425.23725      2688.1285      3842.8346     -4013.207      -554.20355      51898.434      37.300795      37.300795      37.300795      1.3336335      39362.9        44364.652      41953.6      
     85000   85000          639.97035      41235.904      55705.266      24399.189      12245.077      12154.112      5252.3246      4756.4147     -820.21178      435.66096      2699.0259      3840.0412     -4009.1435     -552.51786      52056.772      37.33869       37.33869       37.33869       1.3295771      41039.199      42130.587      40537.927    
     86000   86000          624.82379      41516.339      55560.316      24009.341      11955.266      12054.076      5024.6154      4965.2959     -853.0659       433.4748       2630.5379      3860.0219     -4006.8046     -551.9576       52109.612      37.351319      37.351319      37.351319      1.3282289      41820.151      42174.435      40554.431    
     87000   87000          642.03134      44403.341      58093.263      24354.751      12284.512      12070.239      5102.6426      4942.2346     -926.01642      431.83084      2671.0467      3856.044      -4007.5433     -552.06366      52099.601      37.348927      37.348927      37.348927      1.3284841      44172.082      44571.871      44466.069    
     88000   88000          630.70412      42012.381      56084.831      24197.42       12067.779      12129.641      5157.5194      4885.7825     -799.20601      443.40294      2613.6061      3837.6226     -4009.087      -552.65929      52043.451      37.335505      37.335505      37.335505      1.3299174      41913.301      42821.395      41302.446    
     89000   89000          632.87472      41914.535      55956.334      24070.875      12109.311      11961.564      5096.9518      5009.7885     -990.82528      420.4817       2612.4518      3826.695      -4013.9794     -551.40591      52161.748      37.363772      37.363772      37.363772      1.3269013      38683.514      44719.612      42340.477    
     90000   90000          630.65005      39104.214      54037.845      24208.03       12066.744      12141.286      5235.9844      4924.2307     -816.9856       447.46166      2528.3211      3835.7902     -4013.5168     -549.88572      52305.952      37.398172      37.398172      37.398172      1.3232431      37129.718      40287.543      39895.38     
     91000   91000          618.56682      43203.643      56858.744      24007.145      11835.546      12171.599      5277.4577      5016.7042     -987.88432      440.45966      2590.3834      3843.4674     -4008.9886     -551.64961      52138.706      37.358269      37.358269      37.358269      1.3274877      42512.925      44010.25       43087.755    
     92000   92000          631.55916      40442.728      54981.545      24107.575      12084.139      12023.436      5196.0377      4827.7738     -817.55816      457.21868      2527.3425      3843.8835     -4011.2619     -549.47434      52345.113      37.407503      37.407503      37.407503      1.3222532      39088.361      41913.698      40326.125    
     93000   93000          617.23164      43483.996      57156.955      24099.945      11809.999      12289.946      5308.8818      4924.7413     -850.64887      442.36497      2624.9235      3849.9687     -4010.2848     -551.77921      52126.459      37.355344      37.355344      37.355344      1.3277996      41689.019      43321.589      45441.378    
     94000   94000          624.80942      40313.704      54867.654      24133.038      11954.991      12178.048      5174.117       5015.5277     -793.49268      428.45303      2498.9994      3858.1156     -4003.6725     -550.20479      52275.62       37.390941      37.390941      37.390941      1.3240109      39537.725      41647.5        39755.887    
     95000   95000          629.02386      40507.376      54845.02       24079.853      12035.629      12044.223      5255.5331      4918.1515     -917.65243      415.35463      2522.4698      3861.8002     -4011.4334     -552.29902      52077.399      37.343621      37.343621      37.343621      1.3290505      40820.624      40059.861      40641.642    
     96000   96000          633.24819      41804.771      56018.11       24078.978      12116.457      11962.521      5187.5836      4897.1477     -918.19849      429.13222      2521.8806      3853.8785     -4008.9027     -549.03774      52386.739      37.417416      37.417416      37.417416      1.3212026      38727.487      43550.608      43136.219    
     97000   97000          639.39337      41169.629      55719.326      24397.496      12234.037      12163.459      5214.5995      5042.8373     -880.77743      441.66224      2486.6858      3865.0834     -4006.6319     -551.35241      52166.81       37.36498       37.36498       37.36498       1.3267726      41398.114      41058.842      41051.932    
     98000   98000          635.70651      36914.891      52541.097      24410.674      12163.494      12247.181      5159.8807      4959.2598     -742.70601      461.02706      2576.203       3841.5108     -4007.9948     -550.45876      52251.502      37.38519       37.38519       37.38519       1.3246221      37214.668      39254.243      34275.762    
     99000   99000          631.12356      38375.358      53341.654      23970.987      12075.804      11895.183      5136.7945      4940.1838     -936.99319      426.62364      2486.0762      3849.4732     -4006.9754     -548.07258      52478.992      37.439367      37.439367      37.439367      1.31888        37398.685      41487.019      36240.37     
    100000   100000         635.60572      41003.175      55790.471      24394.805      12161.565      12233.24       5207.6623      5011.5595     -811.40899      437.97062      2539.6676      3854.1261     -4006.3372     -547.83181      52502.056      37.444851      37.444851      37.444851      1.3183006      40127.593      43461.65       39420.284    
    101000   101000         629.54227      37663.52       52763.628      23972.178      12045.548      11926.63       5109.486       4782.81       -767.77704      456.50696      2493.2561      3855.2933     -4002.9452     -548.72762      52416.345      37.424463      37.424463      37.424463      1.3204563      37132.176      38074.197      37784.187    
    102000   102000         634.5526       37906.622      53060.472      24159.107      12141.415      12017.692      5110.073       4959.1097     -766.15009      440.21213      2448.5838      3836.6638     -4010.8004     -550.16908      52279.013      37.39175       37.39175       37.39175       1.323925       39140.134      41169.332      33410.4      
    103000   103000         625.10675      40215.531      54708.841      24011.551      11960.68       12050.871      5185.5587      4901.2551     -902.38113      439.72213      2581.4617      3848.9074     -4003.6532     -549.53228      52339.594      37.406188      37.406188      37.406188      1.3223926      37071.396      44229.403      39345.792    
    104000   104000         631.39113      41097.539      55557.509      24105.037      12080.924      12024.113      5307.8327      4896.2198     -860.07361      461.92719      2385.9408      3840.4875     -4008.2216     -548.10084      52476.286      37.438723      37.438723      37.438723      1.318948       41615.038      40405.21       41272.368    
    105000   105000         621.17771      40260.691      54719.009      24078.237      11885.502      12192.734      5115.5685      5029.1317     -846.28947      438.64197      2621.8567      3846.4739     -4012.6489     -551.16416      52184.628      37.369234      37.369234      37.369234      1.3263196      41198.753      40604.959      38978.361    
    106000   106000         634.83283      41553.965      55962.678      24101.033      12146.777      11954.256      5322.3327      4910.5158     -862.57198      437.57977      2311.2068      3842.4351     -4007.242      -547.07103      52575.068      37.4622        37.4622        37.4622        1.3164699      39421.442      41098.203      44142.25     
    107000   107000         623.20047      40356.162      54536.247      23742.236      11924.205      11818.03       5086.7979      4886.3497     -930.07206      430.72358      2502.9656      3849.3729     -4008.1071     -549.72191      52321.539      37.401886      37.401886      37.401886      1.3228489      39875.326      41269.056      39924.104    
    108000   108000         637.96068      37172.748      52571.591      24086.608      12206.625      11879.984      5179.4428      4900.7874     -827.18888      444.51211      2343.66        3848.654      -4009.8838     -547.40423      52543.066      37.454598      37.454598      37.454598      1.3172717      37878.313      37057.975      36581.956    
    109000   109000         617.94839      36082.624      51290.4        23666.724      11823.713      11843.01       5170.1684      4852.301      -815.34677      451.06703      2341.3209      3850.0048     -4006.5049     -547.91865      52493.735      37.442872      37.442872      37.442872      1.3185096      34699.534      38574.573      34973.766    
    110000   110000         627.26504      38824.844      53601.347      23904.704      12001.976      11902.728      5187.4882      4915.2926     -900.99941      452.31527      2403.1275      3851.3378     -4005.8336     -548.40552      52447.132      37.431789      37.431789      37.431789      1.3196812      37983.637      38575.867      39915.026    
    111000   111000         630.13287      38320.784      53438.192      24075.641      12056.849      12018.792      5220.6647      4876.2273     -781.24063      432.47557      2425.8919      3852.2985     -4007.5249     -547.44444      52539.206      37.453681      37.453681      37.453681      1.3173685      36436.216      42412.431      36113.704    
    112000   112000         629.62244      39199.41       54336.424      24294.291      12047.082      12247.209      5436.7084      4933.2693     -763.77463      438.53956      2361.6455      3850.1703     -4009.3491     -547.32869      52550.317      37.456321      37.456321      37.456321      1.3170899      38360.519      37248.032      41989.68     
    113000   113000         622.39999      39601.568      54231.014      23840.77       11908.889      11931.881      5293.6684      4896.4506     -944.78544      433.81308      2411.5856      3849.9565     -4008.8081     -546.61008      52619.404      37.472728      37.472728      37.472728      1.3153606      37883.358      40914.897      40006.448    
    114000   114000         641.00335      36990.784      52410.908      24017.117      12264.842      11752.275      5142.1509      4896.2264     -903.75729      429.8999       2360.3662      3839.1898     -4011.8013     -546.47412      52632.495      37.475835      37.475835      37.475835      1.3150335      34779.545      37694.764      38498.041    
    115000   115000         624.95563      38294.851      53559.357      24194.396      11957.788      12236.608      5211.0706      5075.1837     -782.93701      457.86085      2418.4911      3861.2444     -4004.3058     -547.02906      52579.101      37.463158      37.463158      37.463158      1.3163689      35242.394      39700.337      39941.821    
    116000   116000         632.96757      36379.774      51988.309      24003.902      12111.087      11892.815      5185.661       4859.3854     -850.71621      424.70317      2415.9328      3862.9254     -4005.0768     -545.30984      52744.87       37.502487      37.502487      37.502487      1.3122318      38803.19       34985.823      35350.309    
    117000   117000         623.04074      37977.317      53191.102      23908.909      11921.149      11987.76       5257.4145      5041.7174     -883.95713      458.92512      2266.8581      3856.044      -4009.2421     -544.0266       52869.283      37.531951      37.531951      37.531951      1.3091438      38961.764      39228.773      35741.416    
    118000   118000         636.56739      37316.716      52821.629      24207.408      12179.966      12027.443      5200.3331      4923.9248     -831.39016      442.50782      2442.045       3856.4463     -4006.4242     -547.04235      52577.825      37.462855      37.462855      37.462855      1.3164009      33011.126      39457.821      39481.201    
    119000   119000         634.15382      37345.905      52528.025      23781.198      12133.785      11647.414      5142.7506      4843.8599     -953.24151      429.66816      2332.6197      3859.6629     -4007.9062     -544.94482      52780.199      37.510859      37.510859      37.510859      1.3113534      35992.281      40139.886      35905.549    
    120000   120000         634.97905      33242.506      49438.026      23837.658      12149.575      11688.084      5095.8008      4930.2574     -849.41316      417.59257      2249.7225      3850.6143     -4006.4907     -544.68698      52805.184      37.516777      37.516777      37.516777      1.3107329      34006.218      32690.595      33030.705    
    121000   121000         632.82206      37741.049      53005.016      24038.656      12108.303      11930.353      5275.5761      4895.927      -858.46266      449.18686      2322.6856      3849.2142     -4003.7744     -546.53689      52626.45       37.4744        37.4744        37.4744        1.3151845      37471.511      35441.956      40309.68     
    122000   122000         625.01773      40403.926      54834.934      23817.051      11958.977      11858.074      5194.4802      4957.4874     -970.07793      412.22139      2411.7284      3857.6935     -4005.4585     -546.40022      52639.613      37.477525      37.477525      37.477525      1.3148556      38408.233      44819.793      37983.753    
    123000   123000         635.39332      35218.582      51084.827      23944.506      12157.501      11787.005      5201.6745      4921.7142     -892.13374      431.73393      2273.3037      3860.3192     -4009.6067     -544.32257      52840.536      37.525147      37.525147      37.525147      1.309856       35582.122      32418.676      37654.948    
    124000   124000         622.08928      37491.218      52648.194      23833.332      11902.944      11930.388      5308.1323      4881.8063     -806.93872      444.99288      2270.1373      3841.1089     -4008.8509     -545.77351      52700.059      37.491864      37.491864      37.491864      1.3133475      36028.009      37131.386      39314.259    
    125000   125000         630.80862      38927.877      53885.929      23928.336      12069.778      11858.558      5297.4738      4845.3841     -872.75497      437.99253      2305.3748      3854.1108     -4009.023      -545.07122      52767.96       37.507959      37.507959      37.507959      1.3116575      37764.636      40298.678      38720.316    
    126000   126000         626.68491      37814.916      53010.811      23902.652      11990.876      11911.776      5282.7601      5013.6935     -920.73468      435.89113      2248.3582      3858.6505     -4006.8426     -544.93894      52780.769      37.510994      37.510994      37.510994      1.3113392      39072.411      40293.004      34079.332    
    127000   127000         629.98275      37913.029      53178.949      24023.895      12053.976      11969.918      5080.8471      5007.5366     -797.14455      438.85464      2401.3527      3845.805      -4007.3331     -545.47403      52728.994      37.498724      37.498724      37.498724      1.3126269      35580.989      39503.448      38654.652    
    128000   128000         625.46694      36837.81       52327.597      23924.833      11967.572      11957.261      5229.1975      4981.3422     -814.64866      445.57105      2269.1663      3851.5428     -4004.9102     -544.04227      52867.76       37.531591      37.531591      37.531591      1.3091815      35635.68       36002.767      38874.983    
    129000   129000         614.81934      37270.312      52158.255      23442.107      11763.842      11678.264      5133.6895      4796.9925     -753.44206      430.87915      2232.9546      3846.7594     -4009.5688     -544.42277      52830.811      37.522845      37.522845      37.522845      1.3100971      32133.969      40381.453      39295.514    
    130000   130000         627.86675      39692.342      54565.616      23948.857      12013.489      11935.368      5298.8465      4842.558      -807.34458      451.55284      2298.2119      3858.1869     -4006.644      -543.8097       52890.37       37.53694       37.53694       37.53694       1.3086218      38483.177      41041.276      39552.573    
    131000   131000         628.51106      38389.511      53724.545      24135.271      12025.817      12109.454      5336.6578      5139.9551     -898.34841      434.51437      2230.4195      3873.3753     -4007.1202     -544.22404      52850.103      37.527412      37.527412      37.527412      1.3096189      36321.542      40863.466      37983.525    
    132000   132000         631.04573      37936.924      53206.413      23901.838      12074.315      11827.523      5199.7065      4909.5387     -892.27136      440.06288      2318.3965      3854.9851     -4002.8952     -543.03288      52966.031      37.554831      37.554831      37.554831      1.3067525      39025.093      40116.749      34668.93     
    133000   133000         624.14926      38412.693      53227.792      23632.937      11942.359      11690.577      5204.5803      4786.9119     -918.10486      429.54194      2350.6726      3840.8628     -4003.8873     -544.44998      52828.171      37.52222       37.52222       37.52222       1.3101626      36322.124      39314.401      39601.553    
    134000   134000         625.65787      36585.723      52166.242      23795.173      11971.225      11823.949      5346.8799      4931.5189     -913.7814       434.64682      2170.1681      3861.8249     -4007.3087     -540.92294      53172.632      37.603597      37.603597      37.603597      1.3016751      38221.971      33811.056      37724.141    
    135000   135000         634.52516      37014.195      52464.652      24024.538      12140.89       11883.648      5153.1542      5003.5028     -923.16826      423.70818      2393.9337      3844.0887     -4011.5711     -545.92933      52685.018      37.488297      37.488297      37.488297      1.3137225      37082.347      39421.716      34538.521    
    136000   136000         623.28445      38492.647      53679.856      23846.308      11925.812      11920.496      5404.0343      5010.477      -993.19114      444.75246      2204.1979      3855.9326     -4005.7071     -541.21812      53143.632      37.596759      37.596759      37.596759      1.3023854      37485.463      39539.081      38453.397    
    137000   137000         621.28903      36848.882      51845.985      23429.95       11887.632      11542.317      5081.8202      4899.6215     -883.26778      424.71413      2188.2888      3843.3889     -4012.2486     -543.95162      52876.571      37.533675      37.533675      37.533675      1.3089633      35886.296      36571.737      38088.612    
    138000   138000         633.09796      34710.484      50765.405      23873.169      12113.582      11759.587      5208.3216      4896.4182     -809.32998      445.95079      2171.7065      3852.1412     -4005.6214     -541.41864      53123.949      37.592117      37.592117      37.592117      1.302868       35161.21       36112.269      32857.974    
    139000   139000         624.48294      35776.744      51425.986      23812.861      11948.744      11864.117      5331.954       4923.2795     -879.54934      446.75112      2190.4802      3860.8674     -4009.6661     -543.48142      52922.318      37.544497      37.544497      37.544497      1.3078318      33768.206      35254.486      38307.54     
    140000   140000         630.62212      37140.642      52676.811      23966.52       12066.21       11900.31       5148.0268      5111.8159     -874.97515      444.44396      2227.1252      3851.9615     -4008.0887     -542.63931      53004.447      37.563908      37.563908      37.563908      1.3058054      34112.994      37680.831      39628.102    
    141000   141000         630.90751      36556.724      52073.072      23822.82       12071.67       11751.149      5163.4122      4952.235      -872.37873      434.24924      2227.1525      3853.3949     -4006.9157     -542.80569      52988.2        37.56007       37.56007       37.56007       1.3062058      33936.694      40312.972      35420.505    
    142000   142000         632.35628      35851.105      51637.485      23927.083      12099.391      11827.692      5294.8394      5010.8984     -904.82246      422.78333      2157.3568      3853.9836     -4007.3468     -542.69918      52998.599      37.562527      37.562527      37.562527      1.3059495      35406.503      37154.895      34991.916    
    143000   143000         626.23344      34512.334      50493.285      23821.442      11982.238      11839.204      5069.2044      4938.2062     -761.61393      447.35582      2292.7469      3858.6755     -4005.3712     -542.77613      52991.086      37.560752      37.560752      37.560752      1.3061346      34429.604      36565.072      32542.327    
    144000   144000         629.18241      34253.287      50246.427      23663.958      12038.663      11625.295      5121.5887      4989.4241     -790.15108      436.64667      2019.9808      3849.5466     -4001.7405     -540.51331      53212.93       37.613094      37.613094      37.613094      1.3006894      33988.55       35458.166      33313.146    
    145000   145000         640.2128       37369.231      52961.321      24147.982      12249.716      11898.266      5167.1586      4972.1251     -884.86663      424.35294      2363.6236      3862.076      -4006.2039     -544.02645      52869.298      37.531955      37.531955      37.531955      1.3091434      36154.398      39323.196      36630.099    
    146000   146000         632.24504      36466.989      52118.323      23894.253      12097.263      11796.99       5215.8287      4951.1894     -905.30753      435.90631      2252.0878      3853.2428     -4005.9571     -541.97558      53069.359      37.579236      37.579236      37.579236      1.3042082      35997.674      37856.591      35546.703    
    147000   147000         636.08364      34946.072      51155.023      24090.027      12170.71       11919.317      5144.0131      5083.089      -760.37223      457.41325      2163.6759      3839.1926     -4007.6946     -541.61397      53104.791      37.587598      37.587598      37.587598      1.303338       33266.683      36724.305      34847.228    
    148000   148000         625.77771      35424.589      51192.494      23812.063      11973.518      11838.545      5022.21        5004.6774     -763.80841      434.8255       2284.3997      3860.9269     -4004.6863     -542.70519      52998.012      37.562388      37.562388      37.562388      1.3059639      32640.848      37722.395      35910.522    
    149000   149000         618.72689      34173.823      50066.85       23519.862      11838.609      11681.253      5139.567       5026.133      -868.99499      427.14409      2107.0919      3854.3649     -4004.0531     -539.98009      53265.476      37.62547       37.62547       37.62547       1.2994063      30844.816      35553.062      36123.591    
[...]
    455000   455000         624.6522       2357.1938      24613.674      22351.765      11951.983      10399.782      5136.9896      4937.9432     -677.71077      416.08631      644.88545      3909.9619     -3968.3736     -437.13894      65796.692      40.370862      40.370862      40.370862      1.0519297      2522.6555      671.13181      3877.794     
    456000   456000         634.01748      2063.1156      24516.061      22507.262      12131.176      10376.086      5259.0962      4859.1556     -644.50681      415.94555      564.55029      3888.152      -3966.3069     -430.81075      66763.182      40.567571      40.567571      40.567571      1.0367015      3674.2995      744.95608      1770.0913    
    457000   457000         626.92087      4552.5511      26549.756      22137.758      11995.391      10142.367      5170.9005      4743.0082     -733.11462      410.96097      629.5631       3887.7287     -3966.6803     -432.83156      66451.476      40.504339      40.504339      40.504339      1.0415644      5629.2609      3869.0329      4159.3595    
    458000   458000         636.38015      3544.334       25945.869      22509.997      12176.383      10333.614      5353.8624      4847.9916     -767.19796      425.77322      555.64765      3889.3039     -3971.767      -432.71022      66470.112      40.508124      40.508124      40.508124      1.0412724      3542.2211      3793.0778      3297.7032    
    459000   459000         628.07359      2794.2133      25231.522      22535.422      12017.447      10517.975      5317.393       4887.0844     -629.66935      446.04447      589.59492      3884.0828     -3976.5553     -434.73343      66160.766      40.445186      40.445186      40.445186      1.046141       455.61663      2945.6544      4981.3689    
    460000   460000         625.08329      2036.7849      24225.628      22253.961      11960.231      10293.73       5239.5275      4784.8628     -595.25166      415.97656      518.24886      3897.1817     -3966.8154     -433.32246      66376.195      40.489037      40.489037      40.489037      1.0427457      5587.2914     -261.30861      784.37179    
    461000   461000         627.77575      2992.4529      25399.808      22452.335      12011.748      10440.587      5311.0857      4855.5918     -751.46578      422.90506      683.17901      3883.1748     -3963.8834     -425.86988      67537.757      40.723855      40.723855      40.723855      1.0248118      3705.8931      3124.7839      2146.6817    
    462000   462000         635.29488      3192.7748      25790.718      22656.693      12155.618      10501.075      5249.8357      4860.7137     -693.34707      420.53164      729.99152      3898.2299     -3964.8804     -427.33185      67306.7        40.677361      40.677361      40.677361      1.0283299      3698.7234      5006.9049      872.69614    
    463000   463000         633.99175      4304.607       26941.254      22713.73       12130.684      10583.046      5280.4964      4899.47       -629.26959      443.45811      663.49824      3890.4224     -3965.0298     -427.11701      67340.556      40.68418       40.68418       40.68418       1.0278129      1653.1277      5947.1531      5313.54      
    464000   464000         632.95831      3578.9428      25939.198      22407.628      12110.91       10296.717      5179.4024      4744.6047     -617.89546      441.01742      626.78315      3886.6801     -3963.8749     -425.09531      67660.819      40.748574      40.748574      40.748574      1.0229479      4334.5068      3330.5743      3071.7473    
    465000   465000         644.6868       2193.3114      24999.876      22827.28       12335.321      10491.959      5303.4356      4834.0431     -654.71937      444.77488      636.36355      3889.5309     -3961.4698     -423.46812      67920.807      40.8007        40.8007        40.8007        1.0190322      2477.3697      1666.795       2435.7695    
    466000   466000         619.91179      3733.7112      26086.449      22405.335      11861.28       10544.054      5302.5263      4765.2237     -614.84732      426.88882      734.91426      3890.8653     -3961.5167     -425.4621       67602.489      40.736861      40.736861      40.736861      1.0238305      3704.1919      3419.6203      4077.3213    
    467000   467000         643.23319      3873.786       26627.879      22780.508      12307.508      10473.001      5290.0065      4820.335      -674.59249      430.13266      690.575        3877.9982     -3961.4543     -422.34857      68100.849      40.836719      40.836719      40.836719      1.0163382      2718.8213      5400.1505      3502.3864    
    468000   468000         625.32369      2381.791       24748.66       22385.712      11964.831      10420.881      5331.4672      4853.1051     -749.88935      397.44936      672.10798      3882.6511     -3966.0101     -422.81363      68025.945      40.821741      40.821741      40.821741      1.0174573      2426.6627      3293.9608      1424.7495    
    469000   469000         632.92451      1758.711       24358.129      22597.413      12110.263      10487.15       5253.3335      4904.6411     -694.87034      409.38954      699.94092      3875.9808     -3961.2657     -418.991        68646.574      40.94551       40.94551       40.94551       1.0082585      2753.4857      1915.5253      607.12206    
    470000   470000         643.91385      5913.2095      28496.433      22649.556      12320.531      10329.025      5229.7054      4886.2949     -868.07709      427.29043      720.0623       3896.2741     -3962.5252     -424.22744      67799.237      40.776343      40.776343      40.776343      1.0208595      5904.6498      7150.6431      4684.3356    
    471000   471000         628.95145      3402.1905      25729.991      22325.203      12034.244      10290.96       5166.727       4779.3061     -684.17291      434.53013      653.50527      3899.7726     -3958.7085     -419.14856      68620.769      40.940379      40.940379      40.940379      1.0086377      6339.5451      1101.4086      2765.6177    
    472000   472000         634.50502      1565.3167      24163.014      22592.968      12140.505      10452.464      5209.5483      4851.3862     -674.56773      428.31468      687.47116      3905.5154     -3955.2044     -418.20511      68775.574      40.971142      40.971142      40.971142      1.0063674      1130.3479      2119.3388      1446.2633    
    473000   473000         612.66366      1779.4224      23896.82       22092.95       11722.596      10370.354      5244.137       4841.2233     -717.10906      411.51457      662.54703      3883.2074     -3955.166      -413.78377      69510.451      41.116553      41.116553      41.116553      0.99572786     285.99394      2393.8193      2658.4541    
    474000   474000         635.20356      1711.9279      24120.047      22406.9        12153.87       10253.03       5088.3138      4858.9651     -657.34142      411.73519      623.70406      3886.0928     -3958.4398     -419.17005      68617.25       40.939679      40.939679      40.939679      1.0086894     -461.00635      1976.0788      3620.7111    
    475000   475000         641.66355      3346.1638      26454.432      23099.815      12277.475      10822.341      5371.7726      4827.8327     -496.36962      453.21311      728.70103      3889.6559     -3952.4652     -418.41164      68741.626      40.9644        40.9644        40.9644        1.0068643      4362.9164      2171.5611      3504.014     
    476000   476000         629.5748       5013.1387      27547.89       22479.921      12046.171      10433.75       5304.4535      4878.408      -776.35071      425.60777      661.74601      3895.342      -3955.4565     -414.93038      69318.368      41.078645      41.078645      41.078645      0.99848706     5909.17        4084.1361      5046.11      
    477000   477000         617.34505      726.72328      23061.862      22317.963      11812.169      10505.794      5424.7534      4838.0277     -788.79252      429.29908      685.4014       3874.7599     -3957.6553     -409.78336      70189.03       41.249917      41.249917      41.249917      0.98610129     1520.6578      413.75825      245.7538     
    478000   478000         633.53006      3407.7088      26073.645      22624.719      12121.85       10502.869      5409.2699      4844.0404     -790.75661      425.12553      674.42881      3892.9427     -3952.182      -414.45555      69397.783      41.094326      41.094326      41.094326      0.99734444     4586.6239      2126.2481      3510.2545    
    479000   479000         619.3432       1060.1575      23370.306      22286.679      11850.401      10436.278      5293.8691      4784.8653     -708.92074      423.18023      712.78739      3883.6935     -3953.1967     -410.38358      70086.373      41.229797      41.229797      41.229797      0.98754566     1285.0637      283.81804      1611.5908    
    480000   480000         619.34317      1422.7966      23832.42       22364.922      11850.401      10514.521      5450.5964      4726.1355     -731.00408      421.86834      718.60397      3881.1976     -3952.8766     -406.69097      70722.733      41.354205      41.354205      41.354205      0.97865977    -379.91517      1740.6102      2907.6949    
    481000   481000         627.39119      4787.0493      27452.043      22546.496      12004.39       10542.107      5314.4727      4759.3543     -710.64683      423.51348      808.88421      3896.0801     -3949.5513     -409.33599      70265.74       41.264939      41.264939      41.264939      0.98502475     6113.349       3381.4208      4866.3783    
    482000   482000         639.58118      1363.2787      24185.72       22781.041      12237.631      10543.41       5291.6702      4800.137      -646.507        437.99561      723.11571      3885.5868     -3948.5886     -407.10557      70650.707      41.340162      41.340162      41.340162      0.97965746     2381.5878      525.38556      1182.8628    
    483000   483000         633.40003      2421.4759      24918.045      22417.633      12119.362      10298.271      5372.8265      4679.55       -790.90851      417.58301      694.78397      3879.3167     -3954.881      -406.22616      70803.654      41.369972      41.369972      41.369972      0.97754126     1621.1348      1909.9896      3733.3033    
    484000   484000         620.59478      674.49574      22898.072      22197.568      11874.349      10323.22       5189.9695      4832.1299     -749.51376      408.57643      703.74453      3888.7029     -3950.3897     -403.89473      71212.359      41.44942       41.44942       41.44942       0.97193091    -609.73433     -534.10193      3167.3235    
    485000   485000         627.13253      408.67269      23002.985      22572.621      11999.441      10573.18       5296.4994      4775.9993     -632.51742      433.24134      774.79039      3870.1656     -3944.9987     -398.32573      72207.98       41.641695      41.641695      41.641695      0.95852969    -556.79457      899.655        883.15763    
    486000   486000         627.41523      2168.3627      24463.13       22216.723      12004.85       10211.873      5200.7961      4735.8099     -763.10912      405.14443      691.69031      3887.6354     -3946.0937     -404.89548      71036.349      41.415243      41.415243      41.415243      0.9743391      2642.321       1191.3915      2671.3755    
    487000   487000         625.94437      596.84087      23202.381      22571.284      11976.707      10594.577      5239.4251      4862.6087     -671.57299      435.79088      786.94557      3886.1872     -3944.8074     -396.69981      72503.932      41.698508      41.698508      41.698508      0.95461709     1140.5781      186.31445      463.63006    
    488000   488000         637.55523     -430.96878      22355.678      22811.285      12198.867      10612.418      5343.2023      4825.5986     -658.80076      432.581        742.01297      3868.9438     -3941.1196     -396.78498      72488.37       41.695525      41.695525      41.695525      0.95482204    -807.94932      572.98338     -1057.9404    
    489000   489000         621.97962      1467.363       24103.331      22551.655      11900.846      10650.809      5484.2061      4813.9306     -744.83305      424.997        752.46241      3870.3015     -3950.2552     -396.6761       72508.267      41.699339      41.699339      41.699339      0.95456002    -556.7831       1874.0039      3084.8682    
    490000   490000         637.61388      90.289245      23083.424      22987.356      12199.989      10787.367      5565.5176      4799.4731     -643.54895      447.60218      684.3049       3875.7395     -3941.7213     -394.23637      72956.985      41.785181      41.785181      41.785181      0.94868906     2022.7332      1071.2463     -2823.1117    
    491000   491000         631.50531      2085.4561      24848.622      22614.275      12083.109      10531.166      5318.5981      4720.7349     -734.46844      441.40592      849.68509      3880.5909     -3945.38       -391.51638      73463.84       41.881723      41.881723      41.881723      0.94214368     2380.3141      1772.3434      2103.711     
    492000   492000         622.74673      1427.3442      24091.521      22544.502      11915.524      10628.978      5343.1553      4772.8942     -739.35563      424.88715      896.42727      3867.9221     -3936.9521     -387.01929      74317.476      42.043318      42.043318      42.043318      0.9313219     -13.971613      2332.5458      1963.4584    
    493000   493000         620.9276       87.592462      22505.916      22412.154      11880.717      10531.437      5268.2599      4867.7661     -752.53764      425.71116      791.57528      3871.5357     -3940.8736     -391.86656      73398.191      41.869244      41.869244      41.869244      0.94298637     473.87584      1270.3257     -1481.4241    
    494000   494000         621.04847     -559.68612      21872.278      22483.755      11883.029      10600.725      5262.7875      4896.0376     -766.03753      425.7637       849.00105      3870.425      -3937.2521     -383.94069      74913.384      42.155393      42.155393      42.155393      0.92391359    -281.18859     -458.78446     -939.08531    
    495000   495000         634.30087      549.62749      23446.531      22849.521      12136.599      10712.922      5406.8324      4813.3376     -661.36387      425.94171      791.67756      3872.6851     -3936.188      -386.17659      74479.648      42.073877      42.073877      42.073877      0.92929404     812.90281     -133.41142      969.39106    
    496000   496000         634.18303      3361.3541      26483.243      22822.782      12134.344      10688.438      5333.3706      4825.4899     -674.04824      451.52222      828.4604       3863.099      -3939.4561     -385.19256      74669.917      42.109675      42.109675      42.109675      0.92692607     1082.2582      5881.4357      3120.3685    
    497000   497000         622.5797       225.103        22932.849      22682.188      11912.328      10769.861      5425.3404      4875.2736     -764.7361       428.5168       891.77392      3854.4679     -3940.7758     -376.69898      76353.529      42.423813      42.423813      42.423813      0.90648716    -4.0901572      942.21282     -262.81366    
    498000   498000         632.9144      -2023.2207      20673.002      22921.006      12110.07       10810.936      5419.6411      4857.3085     -677.11935      419.11414      858.91644      3869.9144     -3936.8397     -377.525        76186.469      42.39285       42.39285       42.39285       0.90847487    -2241.2379     -3490.671      -337.75317    
    499000   499000         635.30778      956.35563      24192.901      23124.031      12155.865      10968.166      5503.6463      4827.0256     -680.39337      430.35221      949.12367      3868.1109     -3929.699      -375.3133       76635.431      42.47596       42.47596       42.47596       0.90315266     834.29246      1227.8068      806.96768    
    500000   500000         626.07621      2443.5898      25443.015      22638.802      11979.229      10659.573      5265.8737      4830.9543     -787.24938      409.91601      1004.4249      3861.2023     -3925.5488     -365.52478      78687.678      42.851784      42.851784      42.851784      0.8795976      1770.5685      3800.2646      1759.9364    
Loop time of 1117.46 on 1 procs for 500000 steps with 6420 atoms

Performance: 38.659 ns/day, 0.621 hours/ns, 447.441 timesteps/s, 2.873 Matom-step/s
99.9% CPU use with 1 MPI tasks x 1 OpenMP threads

MPI task timing breakdown:
Section |  min time  |  avg time  |  max time  |%varavg| %total
---------------------------------------------------------------
Pair    | 124.78     | 124.78     | 124.78     |   0.0 | 11.17
Bond    | 136.59     | 136.59     | 136.59     |   0.0 | 12.22
Kspace  | 457.4      | 457.4      | 457.4      |   0.0 | 40.93
Neigh   | 195.34     | 195.34     | 195.34     |   0.0 | 17.48
Comm    | 25.597     | 25.597     | 25.597     |   0.0 |  2.29
Output  | 4.7403     | 4.7403     | 4.7403     |   0.0 |  0.42
Modify  | 152.58     | 152.58     | 152.58     |   0.0 | 13.65
Other   |            | 20.45      |            |       |  1.83

Nlocal:           6420 ave        6420 max        6420 min
Histogram: 1 0 0 0 0 0 0 0 0 0
Nghost:          17020 ave       17020 max       17020 min
Histogram: 1 0 0 0 0 0 0 0 0 0
Neighs:              0 ave           0 max           0 min
Histogram: 1 0 0 0 0 0 0 0 0 0
FullNghs:  3.33206e+06 ave 3.33206e+06 max 3.33206e+06 min
Histogram: 1 0 0 0 0 0 0 0 0 0

Total # of neighbors = 3332058
Ave neighs/atom = 519.01215
Ave special neighs/atom = 5.8598131
Neighbor list builds = 33326
Dangerous builds = 0

# --- Cleanup ---
unfix npt_fix

undump dump_npt

# --- Write Output ---
write_dump all custom npt_pppm_last.dump id type mol x y z xu yu zu vx vy vz modify sort id
write_data /home/alexzhao/PolyJarvis/data/PS3/lammps/equil/npt_pppm/npt_pppm_out.data
System init for write_data ...
PPPM Kokkos initialization ...
  using 12-bit tables for long-range coulomb
  G vector (1/distance) = 0.29947463
  grid = 30 30 30
  stencil order = 5
  estimated absolute RMS force accuracy = 0.00030443276
  estimated relative force accuracy = 9.1679021e-07
  using double precision cuFFT
  3d grid and FFT values/proc = 50653 27000
Generated 6 of 6 mixed pair_coeff terms from sixthpower/sixthpower mixing rule

print "STAGE COMPLETE: NPT T=630.0->630.0K P=50000.0->1.0atm steps=500000"
STAGE COMPLETE: NPT T=630.0->630.0K P=50000.0->1.0atm steps=500000
quit
|       |  1.83

Nlocal:           6420 ave        6420 max        6420 min
Histogram: 1 0 0 0 0 0 0 0 0 0
Nghost:          17020 ave       17020 max       17020 min
Histogram: 1 0 0 0 0 0 0 0 0 0
Neighs:              0 ave           0 max           0 min
Histogram: 1 0 0 0 0 0 0 0 0 0
FullNghs:  3.33206e+06 ave 3.33206e+06 max 3.33206e+06 min
Histogram: 1 0 0 0 0 0 0 0 0 0

Total # of neighbors = 3332058
Ave neighs/atom = 519.01215
Ave special neighs/atom = 5.8598131
Neighbor list builds = 33326
Dangerous builds = 0
System init for write_data ...
PPPM Kokkos initialization ...
  using 12-bit tables for long-range coulomb
  G vector (1/distance) = 0.29947463
  grid = 30 30 30
  stencil order = 5
  estimated absolute RMS force accuracy = 0.00030443276
  estimated relative force accuracy = 9.1679021e-07
  using double precision cuFFT
  3d grid and FFT values/proc = 50653 27000
Generated 6 of 6 mixed pair_coeff terms from sixthpower/sixthpower mixing rule
STAGE COMPLETE: NPT T=630.0->630.0K P=50000.0->1.0atm steps=500000
