LAMMPS data file via write_data, version 22 Jul 2025, timestep = 2000000, units = real

3620 atoms
4 atom types
3610 bonds
6 bond types
7200 angles
11 angle types
10710 dihedrals
13 dihedral types
4800 impropers
11 improper types

6.227634662260588 42.15786036774421 xlo xhi
6.227634662260588 42.15786036774421 ylo yhi
6.227634662260588 42.15786036774421 zlo zhi

Masses

1 12.01115
2 12.01115
3 35.453
4 1.00797

Pair Coeffs # lj/class2/coul/long/kk

1 0.054 4.01
2 0.054 4.01
3 0.2247 3.92
4 0.02 2.995

Bond Coeffs # class2/kk

1 1.53 299.67 -501.77 679.81
2 1.53 299.67 -501.77 679.81
3 1.79 194.319 0 0
4 1.101 345 -691.89 844.6
5 1.79 194.319 0 0
6 1.101 345 -691.89 844.6

Angle Coeffs # class2/kk

1 112.67 39.516 -7.443 -9.5583
2 107 61.1745 0 0
3 110.77 41.453 -10.604 5.129
4 112.67 39.516 -7.443 -9.5583
5 107 61.1745 0 0
6 110.77 41.453 -10.604 5.129
7 112.67 39.516 -7.443 -9.5583
8 110.77 41.453 -10.604 5.129
9 107.997 51.0987 0 0
10 107.997 51.0987 0 0
11 107.66 39.641 -12.921 -2.4318

BondBond Coeffs

1 0 1.53 1.53
2 0 1.53 1.79
3 3.3872 1.53 1.101
4 0 1.53 1.53
5 0 1.53 1.79
6 3.3872 1.53 1.101
7 0 1.53 1.53
8 3.3872 1.53 1.101
9 0 1.79 1.101
10 0 1.79 1.101
11 5.3316 1.101 1.101

BondAngle Coeffs

1 8.016 8.016 1.53 1.53
2 0 0 1.53 1.79
3 20.754 11.421 1.53 1.101
4 8.016 8.016 1.53 1.53
5 0 0 1.53 1.79
6 20.754 11.421 1.53 1.101
7 8.016 8.016 1.53 1.53
8 20.754 11.421 1.53 1.101
9 0 0 1.79 1.101
10 0 0 1.79 1.101
11 18.103 18.103 1.101 1.101

Dihedral Coeffs # class2/kk

1 0 0 0.0514 0 -0.143 0
2 0 0 0 0 0.15 0
3 0 0 0.0316 0 -0.1681 0
4 0 0 0.0514 0 -0.143 0
5 0 0 0.0316 0 -0.1681 0
6 0 0 0 0 0.15 0
7 0 0 0.0316 0 -0.1681 0
8 0 0 0 0 0.15 0
9 0 0 0.0316 0 -0.1681 0
10 0 0 0 0 -0.1 0
11 0 0 0 0 -0.1 0
12 -0.1432 0 0.0617 0 -0.1083 0
13 -0.1432 0 0.0617 0 -0.1083 0

AngleAngleTorsion Coeffs

1 -22.045 112.67 112.67
2 0 112.67 107
3 -16.164 112.67 110.77
4 -22.045 112.67 112.67
5 -16.164 112.67 110.77
6 0 112.67 107
7 -16.164 112.67 110.77
8 0 112.67 107
9 -16.164 112.67 110.77
10 0 107 110.77
11 0 107 110.77
12 -12.564 110.77 110.77
13 -12.564 110.77 110.77

EndBondTorsion Coeffs

1 -0.0732 0 0 -0.0732 0 0 1.53 1.53
2 0 0 0 0 0 0 1.53 1.79
3 0.2486 0.2422 -0.0925 0.0814 0.0591 0.2219 1.53 1.101
4 -0.0732 0 0 -0.0732 0 0 1.53 1.53
5 0.2486 0.2422 -0.0925 0.0814 0.0591 0.2219 1.53 1.101
6 0 0 0 0 0 0 1.53 1.79
7 0.2486 0.2422 -0.0925 0.0814 0.0591 0.2219 1.53 1.101
8 0 0 0 0 0 0 1.53 1.79
9 0.2486 0.2422 -0.0925 0.0814 0.0591 0.2219 1.53 1.101
10 0 0 0 0 0 0 1.79 1.101
11 0 0 0 0 0 0 1.79 1.101
12 0.213 0.312 0.0777 0.213 0.312 0.0777 1.101 1.101
13 0.213 0.312 0.0777 0.213 0.312 0.0777 1.101 1.101

MiddleBondTorsion Coeffs

1 -17.787 -7.1877 0 1.53
2 0 0 0 1.53
3 -14.879 -3.6581 -0.3138 1.53
4 -17.787 -7.1877 0 1.53
5 -14.879 -3.6581 -0.3138 1.53
6 0 0 0 1.53
7 -14.879 -3.6581 -0.3138 1.53
8 0 0 0 1.53
9 -14.879 -3.6581 -0.3138 1.53
10 0 0 0 1.53
11 0 0 0 1.53
12 -14.261 -0.5322 -0.4864 1.53
13 -14.261 -0.5322 -0.4864 1.53

BondBond13 Coeffs

1 0 1.53 1.53
2 0 1.53 1.79
3 0 1.53 1.101
4 0 1.53 1.53
5 0 1.53 1.101
6 0 1.53 1.79
7 0 1.53 1.101
8 0 1.53 1.79
9 0 1.53 1.101
10 0 1.79 1.101
11 0 1.79 1.101
12 0 1.101 1.101
13 0 1.101 1.101

AngleTorsion Coeffs

1 0.3886 -0.3139 0.1389 0.3886 -0.3139 0.1389 112.67 112.67
2 0 0 0 0 0 0 112.67 107
3 -0.2454 0 -0.1136 0.3113 0.4516 -0.1988 112.67 110.77
4 0.3886 -0.3139 0.1389 0.3886 -0.3139 0.1389 112.67 112.67
5 -0.2454 0 -0.1136 0.3113 0.4516 -0.1988 112.67 110.77
6 0 0 0 0 0 0 112.67 107
7 -0.2454 0 -0.1136 0.3113 0.4516 -0.1988 112.67 110.77
8 0 0 0 0 0 0 112.67 107
9 -0.2454 0 -0.1136 0.3113 0.4516 -0.1988 112.67 110.77
10 0 0 0 0 0 0 107 110.77
11 0 0 0 0 0 0 107 110.77
12 -0.8085 0.5569 -0.2466 -0.8085 0.5569 -0.2466 110.77 110.77
13 -0.8085 0.5569 -0.2466 -0.8085 0.5569 -0.2466 110.77 110.77

Improper Coeffs # class2/kk

1 0 0
2 0 0
3 0 0
4 0 0
5 0 0
6 0 0
7 0 0
8 0 0
9 0 0
10 0 0
11 0 0

AngleAngle Coeffs

1 0 0 0 107 110.77 107.997
2 0.1184 -1.3199 -1.3199 110.77 112.67 110.77
3 0 0 0 110.77 107 107.997
4 0.2738 -0.4825 0.2738 110.77 110.77 107.66
5 -1.3199 -1.3199 0.1184 112.67 110.77 110.77
6 0.2738 -0.4825 0.2738 110.77 110.77 107.66
7 0 0 0 107.997 107.997 107.66
8 -0.3157 -0.3157 -0.3157 107.66 107.66 107.66
9 0 0 0 112.67 107 107
10 -1.3199 -1.3199 0.1184 112.67 110.77 110.77
11 0 0 0 107 110.77 107.997

Atoms # full/kk

1410 4 3 -0.184 7.418054710359141 7.085054097580179 9.520163063223883 0 0 1
1216 4 2 0.131 10.58636707721951 7.62305981531287 6.8083042300421726 1 0 1
1242 4 3 -0.184 7.439617709443544 10.208992302178634 6.718521513736417 1 0 1
1217 4 4 0.053 9.531067043694549 7.217102041255769 7.12772700626239 1 0 1
1223 4 4 0.053 10.210298463865755 9.048670164843777 9.429627357887844 1 0 1
1232 4 4 0.053 8.233767912533482 10.119434261101098 9.414506175042893 1 0 1
1225 4 1 -0.106 10.948353417725473 10.999559144417322 8.943191767458163 1 0 1
1231 4 1 -0.106 8.465702742527862 11.18310034056738 9.601452634341385 1 0 1
1222 4 2 0.131 10.961030897900335 9.516690569562643 8.777049385220373 1 0 1
1233 4 4 0.053 8.638412247603222 11.273975596006647 10.696185641308714 1 0 1
1226 4 4 0.053 11.306054920780104 11.311458795433337 10.015112227591159 1 0 1
1229 4 4 0.053 9.313922123582307 11.807993360916958 7.715341091782302 1 0 1
1221 4 4 0.053 9.88406293863653 9.700600782727856 7.010418250723654 1 0 1
1219 4 1 -0.106 10.842382273494472 9.098719248439988 7.29958797132749 1 0 1
1234 4 2 0.131 7.173319740753155 11.994653910503647 9.532462103663317 1 0 1
1228 4 2 0.131 9.574255561249128 11.733414844847509 8.762055780117635 1 0 1
1237 4 1 -0.106 6.575628494528722 12.278707393239861 8.187523730090385 1 0 1
1227 4 4 0.053 11.7010126445609 11.411549098894607 8.297795961928944 1 0 1
1240 4 2 0.131 41.93413434727073 11.206893901217914 7.241084530828418 0 0 1
1241 4 4 0.053 41.27470119520859 10.508780382508657 7.838963677862548 0 0 1
3115 9 4 0.053 12.924596819926638 6.535690138045241 11.449150892466829 0 1 1
2508 7 3 -0.184 14.17442489180742 11.008139639956177 6.321058350263769 0 0 1
2493 7 4 0.053 16.14163952588914 10.086108043839689 11.4621763678427 0 0 1
2492 7 4 0.053 15.141169715025109 8.758176571293731 11.004927756647332 0 0 1
2491 7 1 -0.106 16.21139884352806 9.012340273088196 11.167183932777418 0 0 1
1220 4 4 0.053 11.660319110552091 9.590964868215792 6.795271137336834 1 0 1
1224 4 3 -0.184 12.498525603777658 8.829869083786066 9.368838625249884 1 0 1
2498 7 4 0.053 15.501011635615045 10.175357983856646 9.041904985631264 0 0 1
2500 7 2 0.131 16.999135342032353 9.880860938587126 7.455556024296345 0 0 1
2494 7 2 0.131 17.032277340141896 8.874105454410785 9.88872717788282 0 0 1
2497 7 1 -0.106 16.21276365423347 9.356010227123605 8.683761244280653 0 0 1
2501 7 4 0.053 16.986233414693082 11.050924095880871 7.60973199943728 0 0 1
2499 7 4 0.053 15.481988191191988 8.50578945001526 8.400089060087875 0 0 1
2496 7 3 -0.184 17.4168048116666 7.216726781742219 9.56875332948403 0 0 1
2495 7 4 0.053 18.00588847776296 9.449641104684488 10.022943254545766 0 0 1
2400 7 3 -0.184 14.174902275553922 13.384065344781732 10.051577751871097 0 0 1
1314 4 3 -0.184 22.554746086872598 7.509235398323206 11.84491151166589 0 0 1
3250 9 3 -0.184 22.55678162757404 12.01086291575189 10.79436257373029 0 1 1
2502 7 3 -0.184 18.680360691485458 9.392568848864311 7.595192531317231 0 0 1
1312 4 2 0.131 21.720168008935048 6.799796818173307 10.507824730936727 0 0 1
1310 4 4 0.053 20.28900678065182 7.555435096562437 9.03827387154218 0 0 1
1309 4 1 -0.106 21.258616376610163 7.922640942202061 9.517649363120837 0 0 1
1311 4 4 0.053 20.771793540070203 8.843526204012147 10.016503631848954 0 0 1
1307 4 4 0.053 21.720252866100097 9.02132384538466 7.722582907627567 0 0 1
1306 4 2 0.131 22.26512234124884 8.241009697098416 8.394161415077619 0 0 1
1305 4 4 0.053 23.58731729103716 9.681476315121895 9.458008117089733 0 0 1
1303 4 1 -0.106 23.631044724902566 8.704588104696095 8.865552233488645 0 0 1
1302 4 3 -0.184 24.076203698580954 10.322098535123033 6.618999268285826 0 0 1
1304 4 4 0.053 24.059544068935065 7.916874197386199 9.597476421663874 0 0 1
3539 10 4 0.053 29.44415039123701 41.75569514313189 8.858444562313297 0 -1 1
1300 4 2 0.131 24.628319448251396 9.046842971461762 7.684701977433212 0 0 1
3238 9 3 -0.184 26.284207675127178 8.135640116392093 11.497034269807456 0 1 1
3243 9 4 0.053 24.364461600252394 10.10826390145413 11.643476019266346 0 1 1
1295 4 4 0.053 26.569017944540665 10.478373898288458 6.554439459102143 0 0 1
1301 4 4 0.053 24.797276134089422 8.161562077203572 7.062784554039933 0 0 1
1296 4 3 -0.184 27.574663728353084 8.257165487097616 6.562208253782693 0 0 1
1292 4 4 0.053 29.212427157085436 10.458456577532303 7.202939957931893 0 0 1
1293 4 4 0.053 28.491195224253715 10.213870788164602 8.836306896828495 0 0 1
1299 4 4 0.053 25.776865125969053 10.450880388130038 8.803028457600629 0 0 1
1291 4 1 -0.106 28.28186527293356 10.623378143762963 7.8098749592642385 0 0 1
3542 10 4 0.053 28.721424062410286 7.647512511749163 10.07730308129922 0 0 1
1298 4 4 0.053 26.228075122718973 8.70860825145136 8.949786485375034 0 0 1
1294 4 2 0.131 27.084491106643256 9.859646471817305 7.292206404485406 0 0 1
1297 4 1 -0.106 25.946519879796533 9.527744785854878 8.262714551871262 0 0 1
3538 10 2 0.131 30.200314841832277 42.07535095583428 9.623412568791482 0 -1 1
3318 10 3 -0.184 35.272363695569226 42.026538399236244 11.26204000557961 0 -1 1
3537 10 4 0.053 32.21679289644124 6.758930977064801 8.677596092814115 0 0 1
3541 10 1 -0.106 29.833483276831416 7.629628711752981 10.0345919562591 0 0 1
3333 10 4 0.053 36.17484072659592 9.97906577762552 6.944262392716357 0 0 1
3543 10 4 0.053 30.00429089532997 8.220868571051978 9.157097447930568 0 0 1
3330 10 3 -0.184 32.965033034692915 8.163675295598608 6.74539927039956 0 0 1
3329 10 4 0.053 33.849973971697835 10.056716243503718 7.665179795993161 0 0 1
3546 10 3 -0.184 31.131358328820227 9.97405811090335 10.637869557895863 0 0 1
3544 10 2 0.131 30.659113095126592 8.298513247786472 11.133479551967463 0 0 1
3545 10 4 0.053 31.643077049780533 7.673321500659652 11.038637056790071 0 0 1
3328 10 2 0.131 34.271502013434045 9.06844456258566 7.508297823023284 0 0 1
3324 10 3 -0.184 34.65256410483479 10.883729225759977 9.899322012519265 0 0 1
3326 10 4 0.053 33.53254582522911 8.168149019695985 9.397376895120642 0 0 1
3325 10 1 -0.106 34.51640126839309 8.450112959346276 8.886842520476463 0 0 1
3322 10 2 0.131 35.4200683442663 9.265929104762048 9.851791172870598 0 0 1
3327 10 4 0.053 34.86039934912794 7.438533083366039 8.731410864430048 0 0 1
3321 10 4 0.053 34.63075626266354 8.687267837251756 11.834751404771506 0 0 1
3319 10 1 -0.106 35.650467439945395 8.775986731191155 11.282023249459543 0 0 1
3320 10 4 0.053 36.260151304516185 9.531837841727626 11.82763198759552 0 0 1
3316 10 2 0.131 36.44436365049407 7.431027073580092 11.427002760958677 0 0 1
1247 4 4 0.053 40.239710386348776 13.484583440547702 6.357074927181913 0 0 1
1415 4 4 0.053 41.97971590434895 41.625999533968724 12.173752064756105 -1 -1 1
1243 4 1 -0.106 41.32296464795914 11.699404102367115 41.856131779250404 0 0 0
1246 4 2 0.131 40.000691884085484 12.526600590942175 41.850285874927856 0 0 0
3311 10 4 0.053 38.07466140158181 9.269323425872777 12.449802811074122 0 0 1
3323 10 4 0.053 36.37544383912584 9.534547059087421 9.363149253606105 0 0 1
1236 4 3 -0.184 41.85623715588889 11.177034636223357 10.549115296990365 0 0 1
3317 10 4 0.053 37.1373786387591 7.296871502523241 10.598228772952858 0 0 1
3312 10 3 -0.184 39.71770632708376 7.799832383362779 11.975021736353549 0 0 1
2968 9 3 -0.184 38.141280426153926 11.37188375098778 10.13049395124426 0 1 1
3336 10 3 -0.184 37.53576472997247 7.653108242775034 7.825064816774315 0 0 1
1248 4 3 -0.184 38.78964433993923 11.642603347612756 6.912438426864819 0 0 1
1235 4 4 0.053 7.496622430407616 12.981705966857517 10.021348747644968 1 0 1
1239 4 4 0.053 7.169999869934173 12.961949927265096 7.519017747807505 1 0 1
1230 4 3 -0.184 9.987322147706319 13.453534063199438 9.157887834173398 1 0 1
2385 7 4 0.053 10.420557039470197 14.994719406588333 41.43148344779027 0 0 0
3441 10 4 0.053 11.29482957703323 17.404955639721436 13.238754249930064 1 -1 1
1238 4 4 0.053 41.7374355840025 12.967801504091367 8.390530451959215 0 0 1
2943 9 4 0.053 6.4708023708448 17.950186083275167 8.672041070518388 1 1 1
2939 9 1 -0.106 6.677142139381993 16.99406968792122 6.798492265245737 1 1 1
2391 7 4 0.053 11.77416832935933 16.317281595653995 6.8972094707733556 0 0 1
2944 9 3 -0.184 6.806005800021044 15.596975894285789 9.075241709612024 1 1 1
2937 9 4 0.053 8.788166030128018 16.801167570515805 7.18244366593785 1 1 1
1098 4 3 -0.184 17.077699946545906 15.611692231826988 40.8269320472785 0 0 0
2407 7 1 -0.106 17.541262585490262 15.012759726717052 11.85259085126016 0 0 1
2386 7 2 0.131 12.382199914748373 14.413107773295796 41.850400910162726 0 0 0
2390 7 4 0.053 13.309571850770425 16.449855138419487 41.96260816161938 0 0 0
2387 7 4 0.053 12.149113533758346 13.664770250484064 6.672993521389389 0 0 1
2389 7 1 -0.106 12.696685850588116 15.827364776216356 6.698003687762368 0 0 1
2394 7 3 -0.184 13.927821008247196 17.319391373980253 8.51532012619461 0 0 1
2393 7 4 0.053 12.67542706035828 15.38999684186927 8.790298802590772 0 0 1
2395 7 1 -0.106 14.74406741424514 14.959051711238962 8.145095254242639 0 0 1
380 2 3 -0.184 17.359537769031114 17.84629881988203 10.305406763599768 0 1 1
2404 7 2 0.131 17.14752190590469 13.74356316314451 11.016088141770751 0 0 1
2396 7 4 0.053 14.704312303508734 14.052134311224268 7.4758546184729315 0 0 1
2398 7 2 0.131 15.31111206235558 14.663085556286118 9.512437858701968 0 0 1
2392 7 2 0.131 13.385351609136624 15.698370514221333 8.011324276399101 0 0 1
2399 7 4 0.053 15.263627847265903 15.534572960039863 10.2001054892264 0 0 1
2401 7 1 -0.106 16.66842893018675 13.979059782495906 9.585066541646823 0 0 1
2402 7 4 0.053 17.41835783961601 14.49770277776807 8.968944056602792 0 0 1
2403 7 4 0.053 16.522862289253176 13.020768052855354 9.046355765996276 0 0 1
2397 7 4 0.053 15.608837435336593 15.558254807997756 7.619836955213777 0 0 1
2405 7 4 0.053 16.388970627816345 13.090541397557526 11.549627290403135 0 0 1
368 2 3 -0.184 20.63179633956059 18.023382431476122 10.248333363573304 0 1 1
3255 9 4 0.053 23.56939242076338 15.60617368058433 12.295794248673193 0 1 1
1112 4 4 0.053 23.22383399000585 15.389037837888221 7.790565999184316 0 0 1
365 2 4 0.053 23.133616060888613 18.84654196454646 11.814181894646484 0 1 1
3258 9 4 0.053 22.55254938704922 15.127029567618296 11.093501653228053 0 1 1
3254 9 1 0.078 22.609129886389873 15.124614569723546 12.157112091974861 0 1 1
2409 7 4 0.053 18.249548415683396 15.508657565916968 11.18302975853092 0 0 1
1106 4 4 0.053 20.823902289591352 14.595936671284917 7.21122993172448 0 0 1
2406 7 3 -0.184 18.599117486570933 12.717449838857185 11.003135647753293 0 0 1
3578 10 4 0.053 29.075771781397318 13.695185056018179 11.976334176177893 0 0 1
3583 10 1 -0.106 27.009166934389345 15.678873455101558 11.68667443551843 0 0 1
3581 10 4 0.053 29.12276253927418 16.254750327628166 12.028099369055699 0 0 1
3586 10 2 0.131 26.615197133050877 16.9680318357796 11.030398072529259 0 0 1
3591 10 4 0.053 27.759963908863405 16.89528893406105 9.199212889041048 0 0 1
3588 10 3 -0.184 25.0089916930219 16.911250859335578 10.278686835191145 0 0 1
3585 10 4 0.053 26.99018563270117 14.87850741991931 10.974404988633832 0 0 1
1286 4 4 0.053 29.66260806230847 13.888801468011128 8.542264784775455 0 0 1
1285 4 1 -0.106 29.712435420612813 12.768565579449604 8.258452138134324 0 0 1
1289 4 4 0.053 27.849922235431254 12.626864628152395 7.020339171598146 0 0 1
1119 4 4 0.053 24.711915969125197 17.741454843503497 7.322158584494529 0 0 1
1290 4 3 -0.184 27.181694058726638 12.77598749322496 9.194036500642842 0 0 1
1288 4 2 0.131 28.3121748568883 12.136085838166482 7.91622448824867 0 0 1
1282 4 2 0.131 30.745040701906422 12.671480846814363 7.181643292896364 0 0 1
1287 4 4 0.053 30.07800086197522 12.225356095471135 9.145746791348609 0 0 1
3576 10 3 -0.184 31.25070866483215 15.009697904081596 12.315563157867036 0 0 1
2127 6 4 0.053 33.504973251314276 17.329029759524676 9.131211680131408 -1 0 1
2124 6 4 0.053 31.303040852504274 17.30760578685424 10.873729982841773 -1 0 1
2121 6 4 0.053 33.86376436679827 17.173189540278052 11.509157742163248 -1 0 1
2962 9 3 -0.184 34.992653699556826 14.952029730748642 10.023855696559467 0 1 1
2958 9 4 0.053 35.53397352395608 16.575459747106542 7.9065694755902225 0 1 1
1284 4 3 -0.184 32.46678253571138 13.090951172411094 7.879533471387955 0 0 1
2959 9 4 0.053 35.776448156686584 15.01069014862849 7.0519393637839825 0 1 1
2957 9 1 -0.106 36.25451333948229 15.724680051650854 7.812551488477079 0 1 1
2128 6 3 -0.184 31.423856907294606 16.68511604814225 8.31061936902269 -1 0 1
1274 4 4 0.053 33.161956293864364 14.433071900319224 41.55679400727529 0 0 0
1283 4 4 0.053 30.80099017390152 11.742319737966096 6.700211178886138 0 0 1
2948 9 2 0.131 39.61473531742466 17.763734494291477 7.544382586393753 0 1 1
2960 9 2 0.131 36.577225502989485 15.099824981529336 9.209172747304166 0 1 1
2971 9 4 0.053 39.325899022187386 14.67679292614851 10.23544968459803 0 1 1
2969 9 1 -0.106 39.100510619581456 13.825277672781723 10.913039940605143 0 1 1
2967 9 4 0.053 36.828861941833885 13.157727569016616 11.088907550732731 0 1 1
2952 9 4 0.053 37.87449553559027 17.475923636644247 8.848311967429375 0 1 1
2951 9 1 -0.106 38.131637651037735 17.522273875950663 7.766366171773498 0 1 1
2961 9 4 0.053 37.227072223802395 15.758312808867828 9.804465114937535 0 1 1
2963 9 1 -0.106 37.25679804972788 13.764905159200174 9.113417152112444 0 1 1
2966 9 2 0.131 37.74177476592368 13.135475978574398 10.416416081531832 0 1 1
2970 9 4 0.053 39.92126066865262 13.1606778627671 10.645126006260428 0 1 1
2946 9 4 0.053 40.17948574741848 16.71563655770624 9.357659132175339 0 1 1
2954 9 2 0.131 37.51378749929248 16.300285824982943 7.109662699865205 0 1 1
2945 9 1 -0.106 40.51033694908733 16.82484841927585 8.275569483909736 0 1 1
2964 9 4 0.053 38.12112068284324 13.813332467993021 8.467121183374084 0 1 1
2947 9 4 0.053 40.33128305351343 15.754684523301586 7.960765608022711 0 1 1
2955 9 4 0.053 38.32115430817207 15.527821162335906 6.946140233430092 0 1 1
2965 9 4 0.053 36.4412471586747 13.140726812188994 8.66026553486247 0 1 1
2949 9 4 0.053 39.9366379231022 17.934379006443546 6.497789623185417 0 1 1
2942 9 2 0.131 42.0414525214982 17.019490492484792 8.215184694239646 0 1 1
3434 10 4 0.053 11.212450186293028 21.218557933928444 12.77607341857376 1 -1 1
3429 10 4 0.053 12.192507172564051 23.329795109070105 11.845409745209908 1 -1 1
3455 10 4 0.053 41.943039211066036 19.895528645414274 10.835299111367256 0 -1 1
3462 10 3 -0.184 6.927464967162527 21.84627430204531 9.029524315422162 1 -1 1
3440 10 4 0.053 10.880985986684856 18.714006624600156 12.019174193757268 1 -1 1
3460 10 2 0.131 7.0243236196118 22.676123992650787 10.62183098173377 1 -1 1
3461 10 4 0.053 7.994601717324788 22.480865066196344 11.064330731076746 1 -1 1
2929 9 4 0.053 9.705515586996711 21.081246779354238 7.9538770255158715 1 1 1
2935 9 4 0.053 8.098178870112951 19.225234023587984 7.80210356823989 1 1 1
2927 9 1 -0.106 9.931991013608233 21.00022072236512 6.845052701908302 1 1 1
2928 9 4 0.053 10.970442701202947 21.269610186819058 6.790628792673308 1 1 1
2933 9 1 -0.106 8.366393018566873 19.022201659169742 6.760326632541099 1 1 1
2930 9 2 0.131 9.75159990638663 19.49174134460823 6.473539804291712 1 1 1
2932 9 3 -0.184 10.894981214347617 18.647993423069405 7.588405999310387 1 1 1
2934 9 4 0.053 7.593268505769025 19.56553787692262 42.05968066333621 1 1 0
2931 9 4 0.053 10.066389506353932 19.23092157745939 41.35008687213595 1 1 0
3450 10 3 -0.184 8.23408372814285 18.250686109425164 11.115477649336894 1 -1 1
2936 9 2 0.131 8.134011090457921 17.461106796412164 6.572023100104303 1 1 1
3431 10 4 0.053 14.24658313026393 21.019113551053287 12.199482545192327 1 -1 1
3438 10 3 -0.184 13.699149887988046 18.54357875817731 12.319924337628947 1 -1 1
3430 10 2 0.131 13.252889208469396 21.54592127993906 12.07849469079248 1 -1 1
3432 10 3 -0.184 12.569114789978565 21.27559581799389 10.413946257010297 1 -1 1
3425 10 4 0.053 14.372105181997904 23.612540210511938 10.575217846535132 1 -1 1
384 2 2 0.131 16.260974571364965 20.18295052796669 8.159350175035307 0 1 1
388 2 4 0.053 15.139551939040944 21.9295335608696 8.06793954762318 0 1 1
389 2 4 0.053 14.078717364614226 20.50094711755714 8.228258324862443 0 1 1
382 2 4 0.053 15.629403695504118 20.23182780606136 10.266076707641687 0 1 1
381 2 1 -0.106 16.48956690280491 20.383827094786067 9.62554055953481 0 1 1
387 2 1 -0.106 14.946940675915267 20.951369919406574 7.697870373571596 0 1 1
383 2 4 0.053 16.748083584506496 21.448464718392486 9.773508965511235 0 1 1
385 2 4 0.053 16.281087092979014 19.102972462417753 7.8660973651880415 0 1 1
378 2 2 0.131 17.764656500613604 19.63899947866765 10.244431405451396 0 1 1
386 2 3 -0.184 17.648793920191004 20.9798944701432 7.279772438007109 0 1 1
375 2 1 -0.106 17.97316911737261 20.1761029236009 11.719442345863634 0 1 1
377 2 4 0.053 18.244733930030915 21.263653447017308 11.713433980818609 0 1 1
379 2 4 0.053 18.700898153068433 19.818787730954476 9.660440938878008 0 1 1
1091 4 4 0.053 17.54168744028962 18.32217919181538 41.16066021247726 0 0 0
976 3 3 -0.184 20.91009719975747 22.99512248447853 9.50252544381705 0 0 1
974 3 2 0.131 21.742932478933902 23.711605310397974 8.005934417010314 0 0 1
723 2 4 0.053 23.0817468005156 20.39904044160339 10.813910525840825 0 1 1
367 2 4 0.053 20.941523149713426 20.252369909272815 10.064726345249392 0 1 1
363 2 1 -0.159 22.70836757578273 19.360388153980324 10.943512450547013 0 1 1
366 2 2 0.131 21.172312285625864 19.567677265609657 10.890263826982846 0 1 1
975 3 4 0.053 22.727317463011754 24.011404567394436 8.330594550952318 0 0 1
981 3 4 0.053 19.030429873583305 23.824289989451554 7.795541586275157 0 0 1
364 2 4 0.053 23.04703182504347 18.907199508593763 9.992760461953717 0 1 1
3599 10 4 0.053 27.207582825286725 21.930633966869202 9.407590226918598 0 0 1
3590 10 4 0.053 28.56361193541527 17.813818706725232 10.711586785935475 0 0 1
3598 10 2 0.131 26.484213742944473 21.526845020491507 10.07766916316156 0 0 1
3596 10 4 0.053 27.772649022103298 20.192535469815965 11.465937137809291 0 0 1
3600 10 3 -0.184 25.016720436205897 21.254544875434675 8.973831420102787 0 0 1
3597 10 4 0.053 26.195661332418183 19.76358098421735 11.295032009045617 0 0 1
3609 10 4 0.053 28.86252443737655 22.192694232820227 11.37488810418845 0 0 1
3595 10 1 -0.106 26.96006814790778 20.15362650254002 10.69280374803739 0 0 1
3594 10 3 -0.184 28.72318430071878 19.76009030562196 8.581475056242414 0 0 1
3587 10 4 0.053 26.507578657770242 17.705570709094737 11.842677102904739 0 0 1
3592 10 2 0.131 27.251351937436244 19.06506749357797 9.563845741405471 0 0 1
3589 10 1 -0.106 27.688467366078573 17.621000774829334 10.061211215465157 0 0 1
3602 10 4 0.053 25.230733564946814 22.415242110772585 11.69354393863838 0 0 1
3607 10 1 -0.106 28.61077036447023 23.084257987246176 11.950811895856999 0 0 1
3593 10 4 0.053 26.381124750433607 18.93099818117153 8.830084132167386 0 0 1
3601 10 1 -0.106 26.1342405181121 22.703712768643854 11.118732715517147 0 0 1
3604 10 2 0.131 27.114582784684366 23.029387859129958 12.253030576677729 0 0 1
2114 6 2 0.131 35.55346585368842 19.331274757553565 12.06130446665992 -1 0 1
3615 10 4 0.053 31.537088870589297 22.524775360497053 12.323797107203147 0 0 1
2125 6 4 0.053 31.60752716673662 18.969334339895514 10.63248350792973 -1 0 1
2111 6 1 -0.106 36.207665762765416 20.67325679909632 12.199144890835496 -1 0 1
2117 6 1 -0.106 34.23379967640963 19.34778682833612 11.319356870486267 -1 0 1
2110 6 3 -0.184 35.17544175438026 21.99469940819916 10.003323182320567 -1 0 1
2118 6 4 0.053 34.47692864915278 19.503166173539224 10.2601751378078 -1 0 1
2112 6 4 0.053 35.5061202302565 21.204653289173162 12.827698982073718 -1 0 1
1598 5 3 -0.184 31.505686003673784 23.11311367583939 8.898893450420072 0 0 0
2122 6 3 -0.184 32.47817736850381 18.343340056415364 13.124862751798412 -1 0 1
2119 6 4 0.053 33.64055581768562 20.197364492946647 11.827910146581779 -1 0 1
2131 6 4 0.053 32.3101711577006 20.04556674009968 8.79192119849802 -1 0 1
2120 6 2 0.131 33.24908653251568 18.092944706219384 11.528777525203886 -1 0 1
2133 6 4 0.053 34.622146268669994 19.434297529355824 7.589734581055136 -1 0 1
2116 6 3 -0.184 36.70123792736145 18.209975177235318 11.419739797537849 -1 0 1
2126 6 2 0.131 32.530891207006476 17.867081755368385 9.0222347630581 -1 0 1
2123 6 1 -0.106 32.10618382964605 18.009109410378166 10.516754124042334 -1 0 1
1597 5 4 0.053 32.97800295808495 24.13181499823201 7.474441984899251 0 0 0
1595 5 4 0.053 33.58989958750655 24.513786876600356 9.922356729468817 0 0 0
2129 6 1 -0.106 32.519406754416 19.145633073915683 8.180466692424472 -1 0 1
2130 6 4 0.053 31.564161073559145 19.04227722369594 7.677997616677345 -1 0 1
2136 6 4 0.053 33.233143466309016 21.482248631270423 7.159584265987583 -1 0 1
2108 6 2 0.131 36.58903255861658 21.534755669505397 10.90555109357529 -1 0 1
2109 6 4 0.053 37.11739069565048 20.826886553543716 10.198878234561253 -1 0 1
2100 6 4 0.053 39.80399469423412 23.063696694267 9.30810796675305 -1 0 1
2101 6 4 0.053 38.40872961414328 22.351765540005136 8.545580398646855 -1 0 1
2099 6 1 -0.106 38.752525996768256 23.311374592316 9.0469663696484 -1 0 1
2105 6 1 -0.106 37.33983035078272 22.86981364902195 11.322537879915803 -1 0 1
3459 10 4 0.053 40.87837105790486 22.43080457077774 11.169024560338718 0 -1 1
2950 9 3 -0.184 39.81902462958408 19.372193290520947 8.432561829183337 0 1 1
2102 6 2 0.131 37.94191205127238 23.767670464746118 10.216064022692034 -1 0 1
2106 6 4 0.053 38.18391994257561 22.57701672578739 12.023088082338806 -1 0 1
2096 6 2 0.131 38.77493857874245 24.372810882897806 7.8853545384936075 -1 0 1
2097 6 4 0.053 37.728812009400244 24.60083129914801 7.55145196434768 -1 0 1
2103 6 4 0.053 37.0753673974974 24.31902433454318 9.752832330725333 -1 0 1
2953 9 4 0.053 37.6742319154416 18.456485630231207 7.445556009568386 0 1 1
2941 9 4 0.053 41.92187003424607 17.616507286570553 42.15380508964245 0 1 0
2098 6 3 -0.184 39.70776265687063 23.762219611912908 6.518996715927334 -1 0 1
2140 6 3 -0.184 35.93080394312328 21.56289305776157 6.926391295040644 -1 0 1
3469 10 1 -0.106 7.161508304059123 26.579913086440214 11.135306880343096 1 -1 1
3471 10 4 0.053 7.70196406959576 26.76483639453756 10.18143943351495 1 -1 1
3414 10 3 -0.184 10.223980104244273 26.32449783940836 9.274168112055051 1 -1 1
3483 10 4 0.053 9.42908485915283 28.95831392745089 10.332398096450277 1 -1 1
3481 10 1 -0.106 9.421844283018725 29.96824201700006 10.728886668972047 1 -1 1
3412 10 2 0.131 11.814995944236617 26.542691158676263 8.612411521975533 1 -1 1
3419 10 4 0.053 12.088325857168048 25.738528692593555 11.473078530328312 1 -1 1
3413 10 4 0.053 11.968168187172173 27.639640401970347 8.435273276516266 1 -1 1
2086 6 3 -0.184 7.183220990598052 28.68991173990198 6.567642852176886 0 0 1
2089 6 4 0.053 41.75900618983097 26.833374562449258 7.793801232066439 -1 0 1
3485 10 4 0.053 8.08966141759268 30.39587997349236 9.074264142962306 1 -1 1
3464 10 4 0.053 7.457054891470303 24.301020848202675 9.509968328369704 1 -1 1
3463 10 1 -0.106 6.867219842516367 24.108611877797696 10.417168560763052 1 -1 1
3476 10 4 0.053 6.7611263064917075 29.173133415269913 11.008918852937963 1 -1 1
2084 6 2 0.131 41.58660545719084 28.083478590235643 41.93475358142565 -1 0 0
3410 10 4 0.053 11.296536608774028 24.882409874234284 7.296017236385112 1 -1 1
3409 10 1 -0.106 11.780752742730353 25.83528021509278 7.190268409252557 1 -1 1
3417 10 4 0.053 12.482862409082797 24.703552391568056 9.372873856396 1 -1 1
3418 10 2 0.131 12.959691730324217 26.128453171429946 10.991366093802258 1 -1 1
3415 10 1 -0.106 12.868632482830229 25.751932361986558 9.491915968020015 1 -1 1
3420 10 3 -0.184 12.940321970465321 27.900862760232418 11.127901326649077 1 -1 1
988 3 3 -0.184 16.61680298026935 24.76377812099635 8.854209820390121 0 0 1
3416 10 4 0.053 13.867941854651303 25.792184521337365 8.95388740048759 1 -1 1
1364 4 4 0.053 17.767304250772124 29.10078680818571 8.2602643674216 0 -1 1
3423 10 4 0.053 15.133307509028832 25.806426580511857 11.020526286539166 1 -1 1
986 3 2 0.131 16.90280972873841 25.4936987496193 7.289294256204878 0 0 1
3411 10 4 0.053 12.71996358271829 25.722175046907992 6.832432979017464 1 -1 1
987 3 4 0.053 16.252657213729815 26.42550917562662 7.325998563278531 0 0 1
3421 10 1 -0.106 14.229388447838728 25.48210373099713 11.567638013124055 1 -1 1
1368 4 3 -0.184 14.973685942416417 28.898124350549203 8.563197402678387 0 -1 1
1363 4 1 -0.106 17.319620610212617 29.479220795260094 7.388800664628603 0 -1 1
3424 10 2 0.131 14.357676221376492 23.94582928615789 11.563509180166468 1 -1 1
1840 6 3 -0.184 18.542156825019607 27.29968497271593 10.669596738519692 0 0 0
983 3 1 -0.106 18.339689938929162 25.84823995801233 7.167814348058135 0 0 1
984 3 4 0.053 18.624902738389082 26.506818895969218 8.072533319473079 0 0 1
1833 6 4 0.053 21.10808984604993 27.3795002298821 10.117806104910603 0 0 0
1832 6 2 0.131 21.621989218817948 27.206538011628638 11.060682196891484 0 0 0
1834 6 3 -0.184 22.817819358842176 25.835212048806564 10.729964964451442 0 0 0
1829 6 1 -0.106 22.37711814249691 28.44431273245682 11.494801163189601 0 0 0
1837 6 4 0.053 20.378519850217472 25.67141637178868 11.918049059833882 0 0 0
978 3 4 0.053 20.834838144730107 25.7661017243108 8.205308509479892 0 0 1
977 3 1 -0.106 20.835532850160195 25.01868633802027 7.463704749143692 0 0 1
1359 4 4 0.053 20.182349250717582 29.185455475920083 6.661660426714135 0 -1 1
1835 6 1 -0.106 20.64022222706361 26.64547058325306 12.15718417335511 0 0 0
1830 6 4 0.053 23.465122979137067 28.36944166033243 11.334214404137349 0 0 0
1828 6 3 -0.184 22.61959675333154 29.510231954271575 9.101782559873355 0 0 0
1826 6 2 0.131 21.887020888115178 29.682521626404633 10.7270526176455 0 0 0