units real
atom_style full
boundary p p p

# --- Force Field Styles ---
pair_style lj/cut 14.0
dielectric 1.000000
bond_style harmonic
angle_style harmonic
dihedral_style multi/harmonic
improper_style none
special_bonds lj 0 0 0
pair_modify mix arithmetic tail yes
neighbor 2.0 bin
neigh_modify delay 0 every 1 check yes
neigh_modify one 4000
# GPU disabled (CPU run)

read_data /home/arz2/PolyJarvis/data/cis-PBD4/lammps/equil/npt_cool/npt_cool_out.data
Reading data file ...
  orthogonal box = (4.8033488 4.8033488 4.8033488) to (63.375029 63.375029 63.375029)
  2 by 2 by 2 MPI processor grid
  reading atoms ...
  8040 atoms
  reading velocities ...
  8040 velocities
  scanning bonds ...
  2 = max bonds/atom
  scanning angles ...
  1 = max angles/atom
  scanning dihedrals ...
  2 = max dihedrals/atom
  orthogonal box = (4.8033488 4.8033488 4.8033488) to (63.375029 63.375029 63.375029)
  2 by 2 by 2 MPI processor grid
  reading bonds ...
  8020 bonds
  reading angles ...
  8000 angles
  reading dihedrals ...
  7980 dihedrals
Finding 1-2 1-3 1-4 neighbors ...
  special bond factors lj:    0        0        0       
  special bond factors coul:  0        0        0       
     2 = max # of 1-2 neighbors
     2 = max # of 1-3 neighbors
     4 = max # of 1-4 neighbors
     6 = max # of special neighbors
  special bonds CPU = 0.001 seconds
  read_data CPU = 0.158 seconds
include /home/arz2/PolyJarvis/data/cis-PBD4/lammps/equil/emc_build.params
# LAMMPS parameters created by EMC v9.4.4, build Jul 31 2025 20:33:44

# Variables

variable	seed		index	482913
variable	ntotal		index	8040
variable	fshape		index	1
variable	output		index	emc_build
variable	field		index	trappe/2014/trappe-ua
variable	location1	index	/home/arz2/emc/field/
variable	nav		index	0.6022141179
variable	temperature	index	300
variable	radius		index	5
variable	nrelax		index	100
variable	weight_nonbond	index	0.0001
variable	weight_bond	index	0.0001
variable	weight_focus	index	1
variable	cutoff		index	14
variable	charge_cutoff	index	14
variable	kappa		index	4
variable	density1	index	0.57
variable	lprevious	index	0
variable	lphase		index	68.1783775471
variable	f_poly		index	20
variable	chem_repeat	index	*C/C=C\C*
variable	chem_cap	index	*C
variable	lg_repeat	index	4
variable	lg_cap		index	1
variable	norm_poly	index	100
variable	l_poly		index	402
variable	mg_repeat	index	54.0914
variable	mg_cap		index	15.0347
variable	m_poly		index	5439.2094
variable	n_poly		index	20
variable	mtotal		index	108784.188
variable	nphase1		index	8040
variable	mphase1		index	108784.188
variable	vphase1		index	316912.949994
variable	lbox		index	68.1783775471
variable	lphase1		index	68.1783775471
variable	lxx		index	68.1783775471
variable	lyy		index	68.1783775471
variable	lzz		index	68.1783775471
variable	lzy		index	0
variable	lzx		index	0
variable	lyx		index	0
variable	vtotal		index	316912.949994
variable	nl_poly		index	20

# Types

variable	type_c3h	index	1
variable	type_c4h2	index	2
variable	type_c4h3	index	3

variable	type_bond_c3h_c3h index	1
variable	type_bond_c3h_c4h2 index	2
variable	type_bond_c4h2_c4h2 index	3
variable	type_bond_c4h2_c4h3 index	4

variable	type_angle_c3h_c3h_c4h2 index	1
variable	type_angle_c3h_c4h2_c4h2 index	2
variable	type_angle_c3h_c4h2_c4h3 index	3

# Clusters

variable	n0_poly		index	1
variable	n1_poly		index	20
variable	nl_poly		index	20

# Flags

variable	flag_charged	index	0

# Masses

mass		1    13.01890  # c3h
mass		2    14.02680  # c4h2
mass		3    15.03470  # c4h3

# Potentials

pair_modify	mix arithmetic tail yes
special_bonds	lj 0 0 0 coul 0 0 0.5
Finding 1-2 1-3 1-4 neighbors ...
  special bond factors lj:    0        0        0       
  special bond factors coul:  0        0        0.5     
     2 = max # of 1-2 neighbors
     2 = max # of 1-3 neighbors
     4 = max # of 1-4 neighbors
     6 = max # of special neighbors
  special bonds CPU = 0.001 seconds

# Pair Coeffs

pair_coeff	1 1    0.09340    3.71000  # c3h,c3h
pair_coeff	2 2    0.09141    3.95000  # c4h2,c4h2
pair_coeff	3 3    0.19475    3.75000  # c4h3,c4h3

# Bond Coeffs

bond_coeff	1  529.99987    1.33000  # c3h,c3h
bond_coeff	2  260.00013    1.54000  # c3h,c4h2
bond_coeff	3  260.00013    1.54000  # c4h2,c4h2
bond_coeff	4  260.00013    1.54000  # c4h2,c4h3

# Angle Coeffs

angle_coeff	1   69.96954  119.70000  # c3h,c3h,c4h2
angle_coeff	2   62.10020  114.00000  # c3h,c4h2,c4h2
angle_coeff	3   62.10020  114.00000  # c3h,c4h2,c4h3

# Dihedral Coeffs

dihedral_coeff	1    1.91086    1.85422    0.43627   -2.24348    0.00000  # c3h,c3h,c4h2,c4h2
dihedral_coeff	2    1.91086    1.85422    0.43627   -2.24348    0.00000  # c3h,c3h,c4h2,c4h3
dihedral_coeff	3    2.00702   -4.01203    0.27102    6.29006    0.00000  # c3h,c4h2,c4h2,c3h
dihedral_coeff	4   25.63496    0.99360  -25.63496   -0.99360    0.00000  # c4h2,c3h,c3h,c4h2


# --- Thermo Output ---
thermo_style custom step time temp press enthalpy etotal ke pe ebond eangle edihed eimp evdwl ecoul elong etail vol lx ly lz density pxx pyy pzz
thermo_modify flush yes
thermo 1000

# --- Trajectory ---
dump dump_nvt all custom 1000 nvt_production.dump id type mol x y z ix iy iz vx vy vz

# --- Restart Checkpointing ---
# No restart checkpointing

# --- Initial Velocities (optional) ---
# Velocities read from data file

# --- SHAKE Constraints ---
# Constrains H-X bonds to allow 2fs timestep
# SHAKE disabled (TraPPE-UA united-atom)

# --- NVT Thermostat (Nose-Hoover) ---
# T_damp = 100.0 fs  (coupling timescale for heat exchange)
# Ramp: 300.0 K -> 300.0 K over 2000000 steps
timestep 2.0
fix nvt_fix all nvt temp 300.0 300.0 100.0

run 2000000
Generated 3 of 3 mixed pair_coeff terms from arithmetic mixing rule
Neighbor list info ...
  update: every = 1 steps, delay = 0 steps, check = yes
  max neighbors/atom: 4000, page size: 100000
  master list distance cutoff = 16
  ghost atom cutoff = 16
  binsize = 8, bins = 8 8 8
  1 neighbor lists, perpetual/occasional/extra = 1 0 0
  (1) pair lj/cut, perpetual
      attributes: half, newton on
      pair build: half/bin/newton
      stencil: half/bin/3d
      bin: standard
Per MPI rank memory allocation (min/avg/max) = 9.238 | 9.24 | 9.24 Mbytes
   Step          Time           Temp          Press         Enthalpy        TotEng         KinEng         PotEng         E_bond        E_angle        E_dihed        E_impro         E_vdwl         E_coul         E_long         E_tail         Volume           Lx             Ly             Lz          Density          Pxx            Pyy            Pzz      
         0   0              300.81139      71.241398      11959.011      11750.24       7208.2628      4541.9771      2498.9503      2450.4534      8681.8365      0             -9089.2632      0              0             -289.26617      200938.45      58.57168       58.57168       58.57168       0.89898365     115.35502     -96.640601      195.00977    
      1000   2000           302.00705      216.43562      12377.005      11742.744      7236.914       4505.8302      2477.8091      2423.1361      8725.7411      0             -9120.8561      0              0             -289.26617      200938.45      58.57168       58.57168       58.57168       0.89898365     134.66574      104.67027      409.97086    
      2000   4000           299.03097      4.4065959      11615.252      11602.339      7165.599       4436.74        2468.397       2403.9601      8704.9584      0             -9140.5755      0              0             -289.26617      200938.45      58.57168       58.57168       58.57168       0.89898365     207.65703     -228.02465      33.587405    
      3000   6000           303.40612     -190.89528      11135.248      11694.663      7270.4396      4424.223       2439.2654      2393.9559      8702.6444      0             -9111.6427      0              0             -289.26617      200938.45      58.57168       58.57168       58.57168       0.89898365    -851.18757      512.27072     -233.76898    
      4000   8000           299.98142      346.91582      12661.494      11644.864      7188.3744      4456.4897      2413.6906      2457.9829      8680.6789      0             -9095.8627      0              0             -289.26617      200938.45      58.57168       58.57168       58.57168       0.89898365     467.93645      175.53401      397.27702    
      5000   10000          298.90323     -804.01138      9257.8287      11613.969      7162.5381      4451.4308      2468.3632      2372.9723      8758.5828      0             -9148.4876      0              0             -289.26617      200938.45      58.57168       58.57168       58.57168       0.89898365    -786.66627     -1197.4217     -427.94621    
      6000   12000          303.80502      68.267702      11896.719      11696.662      7279.9982      4416.6634      2472.7355      2366.5394      8728.4714      0             -9151.0829      0              0             -289.26617      200938.45      58.57168       58.57168       58.57168       0.89898365     80.082072     -111.48773      236.20877    
      7000   14000          304.35877      387.18473      12919.556      11784.919      7293.2677      4491.6512      2486.9396      2415.4334      8720.6948      0             -9131.4165      0              0             -289.26617      200938.45      58.57168       58.57168       58.57168       0.89898365     551.89249      673.19432     -63.532624    
      8000   16000          302.09753     -124.63233      11277          11642.233      7239.082       4403.1506      2457.1312      2381.0929      8681.2293      0             -9116.3028      0              0             -289.26617      200938.45      58.57168       58.57168       58.57168       0.89898365    -169.63845     -420.36747      216.10894    
      9000   18000          301.18618     -299.83305      10922.047      11800.702      7217.2436      4583.4583      2497.9888      2421.5225      8742.9575      0             -9079.0105      0              0             -289.26617      200938.45      58.57168       58.57168       58.57168       0.89898365     11.531649     -746.52853     -164.50227    
     10000   20000          300.91655     -294.06356      10735.915      11597.663      7210.7827      4386.8805      2460.5098      2323.7423      8729.3663      0             -9126.7379      0              0             -289.26617      200938.45      58.57168       58.57168       58.57168       0.89898365    -278.12451     -218.6861      -385.38006    
     11000   22000          302.60308     -288.68648      10795.353      11641.343      7251.1966      4390.1467      2469.7393      2335.0299      8709.1034      0             -9123.7259      0              0             -289.26617      200938.45      58.57168       58.57168       58.57168       0.89898365    -268.16267     -357.77621     -240.12056    
     12000   24000          300.54102     -16.805667      11620.35       11669.599      7201.7839      4467.8151      2464.3543      2393.0387      8734.8456      0             -9124.4235      0              0             -289.26617      200938.45      58.57168       58.57168       58.57168       0.89898365    -200.56559     -47.846103      197.99469    
     13000   26000          305.05374     -43.905146      11639.375      11768.038      7309.921       4458.1172      2465.2536      2414.1089      8718.0059      0             -9139.2511      0              0             -289.26617      200938.45      58.57168       58.57168       58.57168       0.89898365     458.0923      -765.22726      175.41952    
     14000   28000          302.29734      505.87589      13203.48       11721.02       7243.8702      4477.1496      2425.3247      2366.4671      8785.1493      0             -9099.7915      0              0             -289.26617      200938.45      58.57168       58.57168       58.57168       0.89898365     247.23066      418.65871      851.7383     
     15000   30000          305.63631      635.35494      13819.695      11957.8        7323.8811      4633.9186      2466.8789      2409.8614      8853.6759      0             -9096.4976      0              0             -289.26617      200938.45      58.57168       58.57168       58.57168       0.89898365     368.89896      650.07591      887.08996    
     16000   32000          295.34625     -113.66323      11117.402      11450.49       7077.303       4373.1871      2373.5897      2354.3615      8772.9084      0             -9127.6725      0              0             -289.26617      200938.45      58.57168       58.57168       58.57168       0.89898365    -440.80777      195.84087     -96.02277     
     17000   34000          295.63505     -791.45761      9160.3535      11479.705      7084.2236      4395.4815      2437.1486      2346.1441      8761.6547      0             -9149.4658      0              0             -289.26617      200938.45      58.57168       58.57168       58.57168       0.89898365    -436.16654     -903.64311     -1034.5632    
     18000   36000          299.77453     -2.5326664      11530.349      11537.771      7183.4167      4354.3542      2444.6373      2317.0785      8731.9842      0             -9139.3458      0              0             -289.26617      200938.45      58.57168       58.57168       58.57168       0.89898365    -288.20226      425.48692     -144.88266    
     19000   38000          296.97558     -172.00616      11166.37       11670.431      7116.3461      4554.0847      2479.6447      2364.3105      8793.5996      0             -9083.4701      0              0             -289.26617      200938.45      58.57168       58.57168       58.57168       0.89898365    -288.12464     -304.34789      76.454044    
     20000   40000          303.4498       183.6534       12224.003      11685.81       7271.4863      4414.3235      2421.7241      2383.519       8746.3576      0             -9137.2772      0              0             -289.26617      200938.45      58.57168       58.57168       58.57168       0.89898365     114.38198     -83.921609      520.49983    
     21000   42000          306.05826     -191.37117      11284.648      11845.457      7333.992       4511.4654      2464.5714      2425.4459      8771.1503      0             -9149.7023      0              0             -289.26617      200938.45      58.57168       58.57168       58.57168       0.89898365    -213.47288     -114.08355     -246.55709    
     22000   44000          301.35229      295.03169      12677.542      11812.957      7221.2243      4591.7329      2477.2724      2426.5048      8744.1558      0             -9056.2         0              0             -289.26617      200938.45      58.57168       58.57168       58.57168       0.89898365     676.48279      40.218647      168.39364    
     23000   46000          298.43897      22.361304      11599.719      11534.19       7151.413       4382.7769      2447.579       2366.2926      8681.7828      0             -9112.8776      0              0             -289.26617      200938.45      58.57168       58.57168       58.57168       0.89898365    -236.37335      378.4092      -74.95194     
     24000   48000          298.61737      197.22486      12109.697      11531.733      7155.688       4376.045       2436.1101      2335.3398      8684.7956      0             -9080.2005      0              0             -289.26617      200938.45      58.57168       58.57168       58.57168       0.89898365    -9.2304143      927.44892     -326.54394    
     25000   50000          299.4967       219.92559      12327.385      11682.897      7176.7592      4506.1377      2436.2335      2459.7549      8737.4989      0             -9127.3495      0              0             -289.26617      200938.45      58.57168       58.57168       58.57168       0.89898365     190.93234      76.028356      392.81608    
     26000   52000          302.71932     -378.04542      10629.605      11737.46       7253.9819      4483.4782      2456.3141      2438.1056      8716.3296      0             -9127.2712      0              0             -289.26617      200938.45      58.57168       58.57168       58.57168       0.89898365    -768.25679      54.333493     -420.21297    
     27000   54000          300.88153     -353.24967      10608.173      11643.364      7209.9434      4433.4207      2504.7636      2383.7914      8688.9816      0             -9144.1159      0              0             -289.26617      200938.45      58.57168       58.57168       58.57168       0.89898365    -390.47988     -84.705476     -584.56365    
     28000   56000          303.41327     -210.67388      11148.764      11766.14       7270.6108      4495.5288      2493.4327      2347.2352      8764.0297      0             -9109.1688      0              0             -289.26617      200938.45      58.57168       58.57168       58.57168       0.89898365    -231.12241     -274.50727     -126.39197    
     29000   58000          301.21528     -1.4972185      11718.228      11722.616      7217.941       4504.6747      2442.3932      2444.9615      8707.5815      0             -9090.2615      0              0             -289.26617      200938.45      58.57168       58.57168       58.57168       0.89898365    -22.345192      431.19513     -413.34159    
     30000   60000          296.00712      151.48118      12070.946      11627.034      7093.1393      4533.8944      2509.4037      2389.2191      8733.4247      0             -9098.153       0              0             -289.26617      200938.45      58.57168       58.57168       58.57168       0.89898365     374.70875      105.09896     -25.364169    
     31000   62000          301.188        36.701958      11814.883      11707.329      7217.2874      4490.0414      2461.6894      2366.3979      8778.5281      0             -9116.5741      0              0             -289.26617      200938.45      58.57168       58.57168       58.57168       0.89898365     49.314113      323.4263      -262.63454    
     32000   64000          300.61629     -160.17629      11234.261      11703.654      7203.5876      4500.0668      2453.2511      2448.4292      8709.2448      0             -9110.8583      0              0             -289.26617      200938.45      58.57168       58.57168       58.57168       0.89898365    -332.84525      91.535611     -239.21923    
     33000   66000          292.872       -37.678325      11338.46       11448.876      7018.0134      4430.8623      2438.2297      2373.9491      8708.1896      0             -9089.5061      0              0             -289.26617      200938.45      58.57168       58.57168       58.57168       0.89898365    -372.5915      -5.3165808      264.87311    
     34000   68000          304.48281     -334.43601      10654.424      11634.483      7296.2401      4338.2425      2365.5987      2369.1514      8698.6001      0             -9095.1076      0              0             -289.26617      200938.45      58.57168       58.57168       58.57168       0.89898365    -291.30949     -680.07533     -31.923201    
     35000   70000          304.17385      233.91648      12539.355      11853.867      7288.8365      4565.0308      2446.4195      2474.5314      8728.3328      0             -9084.2529      0              0             -289.26617      200938.45      58.57168       58.57168       58.57168       0.89898365     428.88178      418.26252     -145.39488    
     36000   72000          299.90931     -91.742628      11336.546      11605.396      7186.6463      4418.7501      2401.6863      2422.69        8701.7893      0             -9107.4154      0              0             -289.26617      200938.45      58.57168       58.57168       58.57168       0.89898365    -188.66294      159.22023     -245.78517    
     37000   74000          301.9953       56.314272      11756.591      11591.563      7236.6326      4354.9303      2414.1316      2328.5786      8739.6986      0             -9127.4784      0              0             -289.26617      200938.45      58.57168       58.57168       58.57168       0.89898365     691.48754     -258.45162     -264.0931     
     38000   76000          298.22402      98.072067      11765.149      11477.751      7146.2624      4331.4883      2394.3637      2416.2662      8646.3646      0             -9125.5063      0              0             -289.26617      200938.45      58.57168       58.57168       58.57168       0.89898365     499.65511     -482.83938      277.40047    
     39000   78000          303.38204      1.7992539      11780.038      11774.766      7269.8624      4504.9032      2440.1718      2433.4637      8711.4417      0             -9080.174       0              0             -289.26617      200938.45      58.57168       58.57168       58.57168       0.89898365    -79.781814      213.50439     -128.32481    
     40000   80000          304.3378       426.26938      13075.152      11825.978      7292.7651      4533.2126      2508.2453      2373.1141      8755.0542      0             -9103.201       0              0             -289.26617      200938.45      58.57168       58.57168       58.57168       0.89898365     109.51768      758.47368      410.81678    
     41000   82000          297.786       -0.18275413     11513.621      11514.157      7135.766       4378.3906      2370.6001      2351.2708      8782.2919      0             -9125.7722      0              0             -289.26617      200938.45      58.57168       58.57168       58.57168       0.89898365    -121.70708      514.29901     -393.14019    
     42000   84000          301.84284      404.90588      13015.106      11828.537      7232.9792      4595.558       2414.4475      2445.7785      8801.2272      0             -9065.8952      0              0             -289.26617      200938.45      58.57168       58.57168       58.57168       0.89898365     393.56916      508.8139       312.33458    
     43000   86000          302.87971     -313.32879      10818.645      11736.85       7257.8252      4479.0243      2430.8578      2413.9427      8749.2141      0             -9114.9903      0              0             -289.26617      200938.45      58.57168       58.57168       58.57168       0.89898365    -157.41586     -427.66773     -354.90278    
     44000   88000          298.18876      234.86503      12322.873      11634.606      7145.4175      4489.1885      2479.6263      2328.5808      8803.617       0             -9122.6356      0              0             -289.26617      200938.45      58.57168       58.57168       58.57168       0.89898365     172.13343      15.862739      516.59892    
     45000   90000          296.77891      672.2152       13719.613      11749.699      7111.6334      4638.0655      2434.6679      2435.4483      8856.7074      0             -9088.7581      0              0             -289.26617      200938.45      58.57168       58.57168       58.57168       0.89898365     934.8498       625.07901      456.71678    
     46000   92000          291.91377     -161.21433      11018.856      11491.292      6995.0515      4496.2404      2418.8539      2409.7207      8735.7288      0             -9068.0631      0              0             -289.26617      200938.45      58.57168       58.57168       58.57168       0.89898365    -143.34453     -387.85263      47.554163    
     47000   94000          300.43883      22.030756      11831.326      11766.765      7199.3351      4567.4299      2455.1097      2401.1935      8817.0878      0             -9105.9611      0              0             -289.26617      200938.45      58.57168       58.57168       58.57168       0.89898365     431.88908     -74.953175     -290.84364    
     48000   96000          299.84199      264.61793      12390.437      11614.979      7185.0332      4429.9462      2410.8647      2368.7631      8721.1361      0             -9070.8177      0              0             -289.26617      200938.45      58.57168       58.57168       58.57168       0.89898365     53.956478      303.95287      435.94445    
     49000   98000          303.24542     -309.15337      10846.623      11752.591      7266.5887      4486.0024      2422.071       2431.8419      8738.6608      0             -9106.5712      0              0             -289.26617      200938.45      58.57168       58.57168       58.57168       0.89898365     300.73016     -242.41024     -985.78002    
     50000   100000         296.81425      152.3713       12022.78       11576.258      7112.4803      4463.778       2482.7104      2327.991       8762.7259      0             -9109.6492      0              0             -289.26617      200938.45      58.57168       58.57168       58.57168       0.89898365    -266.47905      606.76158      116.83138    
     51000   102000         298.52131     -34.388882      11559.245      11660.021      7153.3861      4506.6345      2462.0511      2414.1021      8746.5428      0             -9116.0615      0              0             -289.26617      200938.45      58.57168       58.57168       58.57168       0.89898365     13.161154     -457.77627      341.44847    
     52000   104000         299.55769      94.74945       12021.889      11744.228      7178.2207      4566.0071      2503.2364      2369.2162      8788.4378      0             -9094.8833      0              0             -289.26617      200938.45      58.57168       58.57168       58.57168       0.89898365     87.92799       141.84696      54.473399    
     53000   106000         300.01439      523.6293       13178.95       11644.464      7189.1643      4455.2995      2459.4889      2369.5752      8753.7248      0             -9127.4894      0              0             -289.26617      200938.45      58.57168       58.57168       58.57168       0.89898365     924.1415       368.39471      278.35169    
     54000   108000         298.86989      161.73745      12221.117      11747.149      7161.739       4585.4097      2468.6832      2474.2358      8742.4957      0             -9100.005       0              0             -289.26617      200938.45      58.57168       58.57168       58.57168       0.89898365     151.05191      547.73047     -213.57002    
     55000   110000         301.61152      265.70381      12455.797      11677.157      7227.4361      4449.7213      2498.47        2334.494       8760.6104      0             -9143.8532      0              0             -289.26617      200938.45      58.57168       58.57168       58.57168       0.89898365     164.6419       764.07127     -131.60175    
     56000   112000         302.21457      525.22529      13341.039      11801.876      7241.8868      4559.9891      2484.6409      2389.1668      8782.3858      0             -9096.2044      0              0             -289.26617      200938.45      58.57168       58.57168       58.57168       0.89898365     653.03493      320.99476      601.64617    
     57000   114000         300.10956      130.71365      12002.211      11619.157      7191.445       4427.7123      2412.3147      2387.1984      8728.0255      0             -9099.8263      0              0             -289.26617      200938.45      58.57168       58.57168       58.57168       0.89898365    -226.46511      4.7308694      613.87518    
     58000   116000         297.99269      31.841878      11768.566      11675.253      7140.7189      4534.5346      2472.3096      2383.9495      8767.5933      0             -9089.3178      0              0             -289.26617      200938.45      58.57168       58.57168       58.57168       0.89898365    -262.84288      103.66024      254.70827    
     59000   118000         297.90508      50.47665       11722.158      11574.238      7138.6195      4435.618       2415.546       2381.0589      8749.5282      0             -9110.5151      0              0             -289.26617      200938.45      58.57168       58.57168       58.57168       0.89898365    -314.0898       931.72471     -466.20496    
     60000   120000         304.24582      199.14166      12203.45       11619.869      7290.5611      4329.3083      2376.8466      2307.539       8708.2956      0             -9063.3728      0              0             -289.26617      200938.45      58.57168       58.57168       58.57168       0.89898365     437.68807     -217.14696      376.88386    
     61000   122000         302.67144     -2.0733367      11780.069      11786.145      7252.8345      4533.3104      2458.7227      2393.7398      8749.6643      0             -9068.8164      0              0             -289.26617      200938.45      58.57168       58.57168       58.57168       0.89898365     301.86251      263.1172      -571.19972    
     62000   124000         299.64231      192.64732      12310.55       11746          7180.2484      4565.7519      2409.0467      2468.1156      8829.6799      0             -9141.0903      0              0             -289.26617      200938.45      58.57168       58.57168       58.57168       0.89898365     328.45762     -140.49217      389.9765     
     63000   126000         298.05377      156.4991       12048.071      11589.453      7142.1825      4447.2706      2455.8289      2358.577       8740.6587      0             -9107.7941      0              0             -289.26617      200938.45      58.57168       58.57168       58.57168       0.89898365     599.4032       259.47188     -389.37778    
     64000   128000         299.38307      18.488995      11650.305      11596.123      7174.0363      4422.0869      2387.2346      2371.3667      8762.3316      0             -9098.846       0              0             -289.26617      200938.45      58.57168       58.57168       58.57168       0.89898365     322.10094     -397.77128      131.13732    
     65000   130000         299.28271      154.99128      12044.215      11590.016      7171.6314      4418.3841      2361.7011      2397.3251      8720.673       0             -9061.3151      0              0             -289.26617      200938.45      58.57168       58.57168       58.57168       0.89898365     853.15057      200.60918     -588.78593    
     66000   132000         296.14785     -514.87074      10183.91       11692.729      7096.5115      4596.2175      2506.3949      2419.1604      8764.9494      0             -9094.2872      0              0             -289.26617      200938.45      58.57168       58.57168       58.57168       0.89898365    -337.77965     -278.85193     -927.98065    
     67000   134000         296.01273     -69.41736       11438.552      11641.978      7093.2736      4548.7043      2529.0861      2382.9899      8739.4592      0             -9102.8309      0              0             -289.26617      200938.45      58.57168       58.57168       58.57168       0.89898365    -12.100043      36.763665     -232.9157     
     68000   136000         296.00615     -195.86217      11035.436      11609.406      7093.116       4516.2899      2464.2959      2428.0125      8747.3912      0             -9123.4097      0              0             -289.26617      200938.45      58.57168       58.57168       58.57168       0.89898365    -606.6871       219.88082     -200.78023    
     69000   138000         299.3493       278.16912      12511.617      11696.447      7173.2271      4523.2201      2477.2284      2372.0135      8779.7105      0             -9105.7324      0              0             -289.26617      200938.45      58.57168       58.57168       58.57168       0.89898365     169.19635      99.77003       565.54099    
     70000   140000         305.88973     -167.90405      11289.831      11781.87       7329.9536      4451.9168      2403.0059      2485.5173      8676.8914      0             -9113.4978      0              0             -289.26617      200938.45      58.57168       58.57168       58.57168       0.89898365     191.73249     -297.99103     -397.45361    
     71000   142000         296.45724      55.760082      11734.396      11570.992      7103.9254      4467.0667      2432.1613      2422.7235      8711.5051      0             -9099.3232      0              0             -289.26617      200938.45      58.57168       58.57168       58.57168       0.89898365    -192.66429      1.6634563      358.28108    
     72000   144000         297.83806     -242.07828      10984.299      11693.705      7137.0137      4556.6914      2442.1785      2485.7814      8762.5902      0             -9133.8587      0              0             -289.26617      200938.45      58.57168       58.57168       58.57168       0.89898365    -653.62153      60.156267     -132.76957    
     73000   146000         298.05772      158.82676      12083.137      11617.698      7142.2772      4475.4207      2456.0389      2350.6463      8712.0833      0             -9043.3478      0              0             -289.26617      200938.45      58.57168       58.57168       58.57168       0.89898365    -78.501472     -74.711175      629.69292    
     74000   148000         296.97537      248.0053       12316.55       11589.775      7116.3412      4473.4335      2454.1346      2361.4431      8737.6936      0             -9079.8378      0              0             -289.26617      200938.45      58.57168       58.57168       58.57168       0.89898365     19.812596     -86.194288      810.39759    
     75000   150000         295.37501     -29.028044      11404.552      11489.618      7077.9921      4411.6262      2406.3076      2392.5624      8737.4036      0             -9124.6474      0              0             -289.26617      200938.45      58.57168       58.57168       58.57168       0.89898365     425.04516     -403.9542      -108.17509    
     76000   152000         301.46237     -165.5856       11250.385      11735.631      7223.862       4511.7686      2476.6829      2417.1029      8695.5053      0             -9077.5225      0              0             -289.26617      200938.45      58.57168       58.57168       58.57168       0.89898365     1.216903      -8.7183933     -489.25531    
     77000   154000         302.30589     -95.802027      11430.259      11711.005      7244.0751      4466.9303      2435.061       2393.9816      8741.1743      0             -9103.2866      0              0             -289.26617      200938.45      58.57168       58.57168       58.57168       0.89898365    -53.625072      92.710748     -326.49176    
     78000   156000         300.96116     -20.150586      11576.554      11635.605      7211.8516      4423.7538      2461.6209      2349.4192      8724.2731      0             -9111.5594      0              0             -289.26617      200938.45      58.57168       58.57168       58.57168       0.89898365     161.06477      176.68639     -398.20292    
     79000   158000         303.15369      392.07614      12852.877      11703.905      7264.3905      4439.5148      2448.5619      2389.0713      8707.2186      0             -9105.337       0              0             -289.26617      200938.45      58.57168       58.57168       58.57168       0.89898365     454.23883      414.10974      307.87984    
     80000   160000         298.38149      331.85677      12642.498      11669.998      7150.0358      4519.9621      2479.5011      2394.1253      8727.436       0             -9081.1003      0              0             -289.26617      200938.45      58.57168       58.57168       58.57168       0.89898365    -119.57691      739.91897      375.22824    
     81000   162000         299.21579      350.31398      12582.844      11556.255      7170.0278      4386.2275      2394.8231      2380.9115      8714.839       0             -9104.3461      0              0             -289.26617      200938.45      58.57168       58.57168       58.57168       0.89898365     441.20217      506.66932      103.07046    
     82000   164000         296.34021      666.95481      13447.67       11493.172      7101.121       4392.0505      2382.046       2407.2469      8701.9628      0             -9099.2052      0              0             -289.26617      200938.45      58.57168       58.57168       58.57168       0.89898365     913.22729      112.61787      975.01927    
     83000   166000         297.68012     -516.11455      10056.962      11569.426      7133.2288      4436.1973      2422.1552      2416.5985      8704.7202      0             -9107.2766      0              0             -289.26617      200938.45      58.57168       58.57168       58.57168       0.89898365    -492.7841      -243.0398      -812.51974    
     84000   168000         301.73755      591.65617      13277.172      11543.335      7230.4559      4312.8789      2388.9239      2322.3581      8676.3626      0             -9074.7658      0              0             -289.26617      200938.45      58.57168       58.57168       58.57168       0.89898365     527.40876      993.85472      253.70504    
     85000   170000         296.92712      280.74509      12269.443      11446.725      7115.1851      4331.5397      2402.0607      2362.6487      8682.9122      0             -9116.0819      0              0             -289.26617      200938.45      58.57168       58.57168       58.57168       0.89898365    -372.75584      762.23002      452.7611     
     86000   172000         297.41443     -272.05968      10762.101      11559.366      7126.8623      4432.5041      2429.931       2373.5776      8754.9608      0             -9125.9653      0              0             -289.26617      200938.45      58.57168       58.57168       58.57168       0.89898365    -668.53732     -179.25523      31.61352     
     87000   174000         303.13595      138.79047      12139.899      11733.176      7263.9655      4469.2107      2451.9003      2444.7244      8684.5461      0             -9111.9601      0              0             -289.26617      200938.45      58.57168       58.57168       58.57168       0.89898365    -1173.4255      440.53107      1149.2659    
     88000   176000         300.29029     -437.45725      10459.277      11741.237      7195.7758      4545.4614      2464.3963      2443.8014      8757.4402      0             -9120.1765      0              0             -289.26617      200938.45      58.57168       58.57168       58.57168       0.89898365    -355.64718     -286.22736     -670.4972     
     89000   178000         299.43455      545.0002       13271.073      11673.961      7175.27        4498.6907      2455.9715      2414.4573      8716.0588      0             -9087.797       0              0             -289.26617      200938.45      58.57168       58.57168       58.57168       0.89898365     880.62421      59.109897      695.2665     
     90000   180000         296.34517      86.148083      11813.86       11561.405      7101.2398      4460.1649      2462.6933      2398.0139      8720.2608      0             -9120.8032      0              0             -289.26617      200938.45      58.57168       58.57168       58.57168       0.89898365    -85.293531     -220.39275      564.13053    
     91000   182000         301.51454     -341.94738      10609.991      11612.062      7225.1121      4386.9497      2469.0172      2368.2307      8675.9383      0             -9126.2365      0              0             -289.26617      200938.45      58.57168       58.57168       58.57168       0.89898365    -836.49559      722.89945     -912.24602    
     92000   184000         301.69248     -278.93922      10844.531      11661.957      7229.3761      4432.5806      2458.8594      2381.1728      8671.1191      0             -9078.5707      0              0             -289.26617      200938.45      58.57168       58.57168       58.57168       0.89898365    -536.93005     -229.10701     -70.780594    
     93000   186000         301.71442     -191.24972      11198.375      11758.828      7229.9019      4528.9264      2480.7054      2352.3046      8808.5062      0             -9112.5898      0              0             -289.26617      200938.45      58.57168       58.57168       58.57168       0.89898365    -277.75868     -0.33836168    -295.65211    
     94000   188000         302.1612       22.113663      11739.869      11675.065      7240.6079      4434.4575      2440.2307      2397.6332      8693.9273      0             -9097.3338      0              0             -289.26617      200938.45      58.57168       58.57168       58.57168       0.89898365     131.56725      87.847607     -153.07387    
     95000   190000         299.71775      116.58123      11994.559      11652.92       7182.0561      4470.8638      2457.5188      2417.1905      8674.4092      0             -9078.2547      0              0             -289.26617      200938.45      58.57168       58.57168       58.57168       0.89898365    -123.77038      306.72759      166.78646    
     96000   192000         298.2483      -184.79085      11040.426      11581.952      7146.8441      4435.1081      2450.5977      2355.5974      8788.3749      0             -9159.4619      0              0             -289.26617      200938.45      58.57168       58.57168       58.57168       0.89898365    -62.174951     -458.44968     -33.747902    
     97000   194000         294.23335      265.94546      12329.023      11549.675      7050.6349      4499.0398      2489.6698      2391.4542      8757.1423      0             -9139.2265      0              0             -289.26617      200938.45      58.57168       58.57168       58.57168       0.89898365     417.07555      571.83482     -191.074      
     98000   196000         301.37391      291.76971      12567.574      11712.548      7221.7423      4490.8061      2510.1357      2365.5575      8707.9897      0             -9092.8767      0              0             -289.26617      200938.45      58.57168       58.57168       58.57168       0.89898365     654.48131     -468.02835      688.85618    
     99000   198000         299.86017      14.647336      11760.48       11717.556      7185.4689      4532.0869      2467.82        2394.0351      8780.9095      0             -9110.6776      0              0             -289.26617      200938.45      58.57168       58.57168       58.57168       0.89898365    -196.36928      77.183809      163.12748    
    100000   200000         297.45244     -465.21642      10317.506      11680.814      7127.7732      4553.0408      2524.7795      2395.0071      8726.5561      0             -9093.3018      0              0             -289.26617      200938.45      58.57168       58.57168       58.57168       0.89898365    -505.02686     -715.11509     -175.50731    
    101000   202000         297.18084     -51.593662      11424.346      11575.54       7121.2649      4454.2749      2447.4722      2375.6181      8740.1087      0             -9108.9242      0              0             -289.26617      200938.45      58.57168       58.57168       58.57168       0.89898365    -452.92146     -199.27965      497.42012    
    102000   204000         300.84572      122.21266      12052.175      11694.033      7209.0855      4484.9473      2455.3109      2397.0826      8735.219       0             -9102.6652      0              0             -289.26617      200938.45      58.57168       58.57168       58.57168       0.89898365    -29.023943      113.9338       281.72812    
    103000   206000         298.54509      246.24356      12412.976      11691.364      7153.956       4537.4077      2480.0827      2417.0435      8724.9292      0             -9084.6477      0              0             -289.26617      200938.45      58.57168       58.57168       58.57168       0.89898365     365.96832      396.0924      -23.330049    
    104000   208000         301.58299     -106.02018      11421.237      11731.927      7226.7524      4505.175       2482.5944      2408.5113      8735.8905      0             -9121.8211      0              0             -289.26617      200938.45      58.57168       58.57168       58.57168       0.89898365    -415.92592      456.53852     -358.67315    
    105000   210000         303.43986     -236.87807      10923.163      11617.33       7271.2481      4346.082       2429.0615      2363.1039      8731.5361      0             -9177.6195      0              0             -289.26617      200938.45      58.57168       58.57168       58.57168       0.89898365    -240.00415     -352.64443     -117.98565    
    106000   212000         299.52306      243.74402      12418.299      11704.011      7177.3909      4526.6205      2476.1021      2408.5424      8732.9656      0             -9090.9895      0              0             -289.26617      200938.45      58.57168       58.57168       58.57168       0.89898365     270.89421      277.70451      182.63333    
    107000   214000         293.58522     -147.57146      11048.065      11480.52       7035.104       4445.4161      2401.557       2374.4542      8758.7365      0             -9089.3316      0              0             -289.26617      200938.45      58.57168       58.57168       58.57168       0.89898365    -269.38706     -132.69271     -40.63462     
    108000   216000         298.32546     -193.85332      11163.993      11732.077      7148.693       4583.3839      2557.8829      2379.4383      8761.829       0             -9115.7662      0              0             -289.26617      200938.45      58.57168       58.57168       58.57168       0.89898365    -338.58032     -29.704124     -213.27551    
    109000   218000         302.37992      131.88475      12032.337      11645.851      7245.8489      4400.0024      2467.2316      2367.1969      8678.918       0             -9113.3441      0              0             -289.26617      200938.45      58.57168       58.57168       58.57168       0.89898365     194.77936     -288.85562      489.73052    
    110000   220000         306.77043     -113.23774      11527.534      11859.375      7351.0576      4508.3173      2472.6962      2446.866       8675.6958      0             -9086.9407      0              0             -289.26617      200938.45      58.57168       58.57168       58.57168       0.89898365     322.24455     -88.510271     -573.44752    
    111000   222000         296.04241     -502.18663      10076.327      11547.976      7093.9849      4453.9907      2488.373       2405.0423      8697.0558      0             -9136.4804      0              0             -289.26617      200938.45      58.57168       58.57168       58.57168       0.89898365    -850.1168      -374.68946     -281.75364    
    112000   224000         300.6333       437.3499       12946.371      11664.726      7203.9953      4460.7304      2454.5881      2386.713       8719.7622      0             -9100.3329      0              0             -289.26617      200938.45      58.57168       58.57168       58.57168       0.89898365     785.07841      421.61313      105.35816    
    113000   226000         300.75097      21.609877      11566.211      11502.883      7206.8149      4296.0684      2471.413       2337.9725      8628.3552      0             -9141.6723      0              0             -289.26617      200938.45      58.57168       58.57168       58.57168       0.89898365     6.1668919      207.02994     -148.3672     
    114000   228000         300.07312     -130.27553      11301.344      11683.114      7190.5717      4492.5421      2438.6454      2403.4835      8769.8017      0             -9119.3885      0              0             -289.26617      200938.45      58.57168       58.57168       58.57168       0.89898365     234.06511     -356.96929     -267.9224     
    115000   230000         299.08024      110.38551      11958.424      11634.942      7166.7796      4468.162       2492.5433      2401.2231      8675.1611      0             -9100.7655      0              0             -289.26617      200938.45      58.57168       58.57168       58.57168       0.89898365     184.38188      289.77829     -143.00365    
    116000   232000         296.45379     -190.21086      11029.556      11586.965      7103.8427      4483.1226      2519.1588      2398.6954      8707.0039      0             -9141.7355      0              0             -289.26617      200938.45      58.57168       58.57168       58.57168       0.89898365    -240.71757      143.85579     -473.77079    
    117000   234000         303.03295     -307.89258      10757.849      11660.122      7261.4973      4398.6248      2493.386       2376.3577      8650.6228      0             -9121.7417      0              0             -289.26617      200938.45      58.57168       58.57168       58.57168       0.89898365    -192.93192     -308.15125     -422.59457    
    118000   236000         300.10884      177.90293      12178.291      11656.95       7191.4276      4465.5226      2490.6527      2386.7999      8662.8094      0             -9074.7395      0              0             -289.26617      200938.45      58.57168       58.57168       58.57168       0.89898365     113.13081      324.07035      96.50762     
    119000   238000         297.52684     -703.54995      9605.444       11667.184      7129.5559      4537.628       2494.5208      2459.2032      8698.9561      0             -9115.0521      0              0             -289.26617      200938.45      58.57168       58.57168       58.57168       0.89898365    -867.20322     -413.9975      -829.44912    
    120000   240000         301.33554      310.88247      12582.445      11671.41       7220.8228      4450.5875      2458.3789      2411.4226      8693.9255      0             -9113.1395      0              0             -289.26617      200938.45      58.57168       58.57168       58.57168       0.89898365     35.268365      119.06417      778.31489    
    121000   242000         304.98371      168.83243      12335.701      11840.941      7308.2428      4532.6984      2502.7939      2459.4116      8679.2698      0             -9108.7769      0              0             -289.26617      200938.45      58.57168       58.57168       58.57168       0.89898365    -36.915342     -127.29293      670.70556    
    122000   244000         295.35009      93.213182      11769.71       11496.55       7077.3951      4419.1551      2443.1564      2416.8647      8659.2275      0             -9100.0935      0              0             -289.26617      200938.45      58.57168       58.57168       58.57168       0.89898365    -447.1601       200.69537      526.10427    
    123000   246000         300.54274      491.00211      13014.312      11575.439      7201.8251      4373.6141      2423.477       2424.1339      8688.7339      0             -9162.7307      0              0             -289.26617      200938.45      58.57168       58.57168       58.57168       0.89898365     824.43881     -136.41599      784.98351    
    124000   248000         301.28707     -27.324362      11557.964      11638.037      7219.6614      4418.3758      2414.3689      2404.238       8683.7771      0             -9084.0082      0              0             -289.26617      200938.45      58.57168       58.57168       58.57168       0.89898365    -291.52694      115.58255      93.971301    
    125000   250000         300.25779      195.36118      12195.87       11623.368      7194.9969      4428.3711      2449.061       2367.7789      8725.2304      0             -9113.6992      0              0             -289.26617      200938.45      58.57168       58.57168       58.57168       0.89898365     458.85234     -230.72317      357.95437    
    126000   252000         298.97281      324.14993      12585.01       11635.094      7164.2054      4470.889       2500.8041      2389.4844      8683.1278      0             -9102.5274      0              0             -289.26617      200938.45      58.57168       58.57168       58.57168       0.89898365     725.66001      180.31227      66.477503    
    127000   254000         300.73225     -544.46353      9971.7455      11567.286      7206.3663      4360.9193      2387.8362      2441.6681      8632.0155      0             -9100.6005      0              0             -289.26617      200938.45      58.57168       58.57168       58.57168       0.89898365    -514.63277     -525.56852     -593.18931    
    128000   256000         300.16912     -303.19964      10748.068      11636.589      7192.8721      4443.7168      2404.8794      2429.5509      8690.0222      0             -9080.7357      0              0             -289.26617      200938.45      58.57168       58.57168       58.57168       0.89898365    -22.697444     -112.54528     -774.3562     
    129000   258000         299.83111     -241.33358      10885.31       11592.533      7184.7725      4407.761       2442.8659      2345.8414      8738.2643      0             -9119.2106      0              0             -289.26617      200938.45      58.57168       58.57168       58.57168       0.89898365    -247.22101     -527.28763      50.50791     
    130000   260000         302.59879     -39.222669      11545.799      11660.74       7251.0937      4409.6468      2446.5753      2346.7024      8721.0062      0             -9104.6372      0              0             -289.26617      200938.45      58.57168       58.57168       58.57168       0.89898365    -166.20875      301.87055     -253.32981    
    131000   262000         300.83406     -121.1378       11253.127      11608.119      7208.8059      4399.3127      2437.1075      2370.3297      8707.2109      0             -9115.3355      0              0             -289.26617      200938.45      58.57168       58.57168       58.57168       0.89898365     129.54051     -31.376563     -461.57736    
    132000   264000         297.1925       97.605695      11822.37       11536.339      7121.5442      4414.7943      2515.4562      2320.8532      8712.8074      0             -9134.3225      0              0             -289.26617      200938.45      58.57168       58.57168       58.57168       0.89898365     279.45413     -115.29784      128.6608     
    133000   266000         298.02714     -595.36261      9860.9423      11605.641      7141.5445      4464.0967      2400.3793      2419.799       8777.4103      0             -9133.4919      0              0             -289.26617      200938.45      58.57168       58.57168       58.57168       0.89898365    -724.68423     -741.30294     -320.10068    
    134000   268000         299.92666     -289.66959      10744.793      11593.664      7187.0621      4406.6022      2457.0586      2348.1406      8731.2265      0             -9129.8235      0              0             -289.26617      200938.45      58.57168       58.57168       58.57168       0.89898365    -346.19839     -181.26012     -341.55026    
    135000   270000         299.63463     -80.948335      11317.178      11554.395      7180.0644      4374.3307      2423.1664      2389.0652      8688.4651      0             -9126.366       0              0             -289.26617      200938.45      58.57168       58.57168       58.57168       0.89898365     527.16684     -415.98581     -354.02603    
    136000   272000         302.6312       118.76892      12125.717      11777.667      7251.8703      4525.7971      2446.8178      2425.2401      8721.4183      0             -9067.6791      0              0             -289.26617      200938.45      58.57168       58.57168       58.57168       0.89898365    -162.1865      -97.100797      615.59407    
    137000   274000         303.8042       10.599955      11940.616      11909.553      7279.9787      4629.5745      2455.7542      2499.1578      8779.0624      0             -9104.3999      0              0             -289.26617      200938.45      58.57168       58.57168       58.57168       0.89898365     76.914909      33.709704     -78.824749    
    138000   276000         303.29479     -33.624761      11553.38       11651.916      7267.7718      4384.1446      2404.5016      2363.4828      8719.0399      0             -9102.8797      0              0             -289.26617      200938.45      58.57168       58.57168       58.57168       0.89898365    -124.75061     -5.755039       29.631361    
    139000   278000         295.58749     -133.9314       11184.391      11576.875      7083.0838      4493.791       2446.9854      2423.9235      8732.8096      0             -9109.9275      0              0             -289.26617      200938.45      58.57168       58.57168       58.57168       0.89898365    -109.50509      20.738826     -313.02795    
    140000   280000         297.57969      114.07288      11973.867      11639.578      7130.8224      4508.756       2424.4372      2451.9914      8731.217       0             -9098.8896      0              0             -289.26617      200938.45      58.57168       58.57168       58.57168       0.89898365    -381.09179      379.52585      343.78459    
    141000   282000         302.407       -52.435682      11604.875      11758.536      7246.498       4512.0385      2412.86        2470.3851      8713.8324      0             -9085.039       0              0             -289.26617      200938.45      58.57168       58.57168       58.57168       0.89898365    -500.8334       504.00692     -160.48057    
    142000   284000         300.70848      68.237754      11816.871      11616.902      7205.7966      4411.1051      2401.0198      2357.6848      8754.8026      0             -9102.4021      0              0             -289.26617      200938.45      58.57168       58.57168       58.57168       0.89898365    -566.76217      447.28791      324.18753    
    143000   286000         299.21982      49.395865      11799.422      11654.668      7170.1245      4484.544       2452.8177      2393.7909      8751.7599      0             -9113.8245      0              0             -289.26617      200938.45      58.57168       58.57168       58.57168       0.89898365    -292.65461      101.2303       339.6119     
    144000   288000         302.40131      226.7654       12542.519      11877.987      7246.3615      4631.6256      2476.9642      2471.3587      8757.3005      0             -9073.9977      0              0             -289.26617      200938.45      58.57168       58.57168       58.57168       0.89898365     16.325266      593.8884       70.082531    
    145000   290000         302.53595      178.79273      12187.405      11663.457      7249.588       4413.8685      2450.3285      2385.7099      8712.936       0             -9135.1059      0              0             -289.26617      200938.45      58.57168       58.57168       58.57168       0.89898365    -147.59597      649.29898      34.675191    
    146000   292000         300.40075      116.66396      11896.846      11554.964      7198.4227      4356.5415      2406.9584      2382.7468      8714.2106      0             -9147.3744      0              0             -289.26617      200938.45      58.57168       58.57168       58.57168       0.89898365     184.80238     -297.37034      462.55985    
    147000   294000         299.13707     -598.75909      9851.4685      11606.121      7168.1413      4437.9794      2488.1917      2375.19        8723.7043      0             -9149.1065      0              0             -289.26617      200938.45      58.57168       58.57168       58.57168       0.89898365    -633.21325     -241.31368     -921.75034    
    148000   296000         302.54524     -612.23785      9950.0105      11744.162      7249.8106      4494.3514      2452.2563      2433.6271      8734.7326      0             -9126.2646      0              0             -289.26617      200938.45      58.57168       58.57168       58.57168       0.89898365    -238.42716     -992.8208      -605.4656     
    149000   298000         298.02128      368.41741      12653.73       11574.09       7141.404       4432.6861      2537.5662      2360.054       8644.8297      0             -9109.7638      0              0             -289.26617      200938.45      58.57168       58.57168       58.57168       0.89898365     874.65726      15.204962      215.38999    
    150000   300000         298.75136     -298.45649      10689.821      11564.442      7158.8987      4405.5436      2432.7741      2398.3446      8676.549       0             -9102.124       0              0             -289.26617      200938.45      58.57168       58.57168       58.57168       0.89898365    -383.32628     -593.94341      81.900231    
    151000   302000         299.79741      105.41092      11815.181      11506.276      7183.9651      4322.3109      2447.5629      2371.6963      8637.2072      0             -9134.1556      0              0             -289.26617      200938.45      58.57168       58.57168       58.57168       0.89898365     273.61268     -229.09771      271.71779    
    152000   304000         294.35844     -761.53592      9308.8376      11540.504      7053.6324      4486.8719      2463.2484      2427.1308      8714.4869      0             -9117.9943      0              0             -289.26617      200938.45      58.57168       58.57168       58.57168       0.89898365    -689.43542     -655.35059     -939.82174    
    153000   306000         298.01714      193.55774      12094.941      11527.724      7141.305       4386.4189      2426.6707      2327.4778      8789.1676      0             -9156.8971      0              0             -289.26617      200938.45      58.57168       58.57168       58.57168       0.89898365     78.842871      473.14449      28.685862    
    154000   308000         301.85485     -32.616327      11537.477      11633.058      7233.2669      4399.7915      2416.6179      2369.7821      8711.1935      0             -9097.8021      0              0             -289.26617      200938.45      58.57168       58.57168       58.57168       0.89898365    -239.91005      81.058747      61.002328    
    155000   310000         299.72769      137.78801      12037.455      11633.67       7182.2942      4451.3761      2401.8256      2443.6422      8728.0225      0             -9122.1142      0              0             -289.26617      200938.45      58.57168       58.57168       58.57168       0.89898365    -238.94989     -9.2162357      661.53014    
    156000   312000         303.40982      110.45294      12209.28       11885.6        7270.5283      4615.0715      2505.2869      2438.3439      8778.3958      0             -9106.9551      0              0             -289.26617      200938.45      58.57168       58.57168       58.57168       0.89898365    -99.842932     -268.24853      699.45029    
    157000   314000         298.50524     -463.11193      10236.674      11593.814      7153.001       4440.8134      2453.8193      2385.2321      8732.6687      0             -9130.9066      0              0             -289.26617      200938.45      58.57168       58.57168       58.57168       0.89898365    -414.05077     -313.68102     -661.60401    
    158000   316000         296.11937     -195.31732      10965.103      11537.477      7095.8291      4441.6478      2394.98        2407.5884      8745.5964      0             -9106.517       0              0             -289.26617      200938.45      58.57168       58.57168       58.57168       0.89898365     165.98903     -20.425097     -731.51591    
    159000   318000         299.97947      289.0583       12472.593      11625.513      7188.3275      4437.1853      2388.6961      2374.5289      8764.7589      0             -9090.7985      0              0             -289.26617      200938.45      58.57168       58.57168       58.57168       0.89898365     238.11503      59.032826      570.02703    
    160000   320000         299.51708      40.444302      11788.008      11669.486      7177.2474      4492.2389      2384.6418      2408.9277      8736.0887      0             -9037.4192      0              0             -289.26617      200938.45      58.57168       58.57168       58.57168       0.89898365    -412.51832      4.1929422      529.65829    
    161000   322000         303.5981      -75.75275       11543.684      11765.676      7275.0398      4490.6367      2455.254       2416.8753      8709.4034      0             -9090.896       0              0             -289.26617      200938.45      58.57168       58.57168       58.57168       0.89898365    -54.498353     -520.97565      348.21575    
    162000   324000         301.05017      15.279863      11868.592      11823.814      7213.9845      4609.8299      2453.1541      2417.8898      8832.5929      0             -9093.807       0              0             -289.26617      200938.45      58.57168       58.57168       58.57168       0.89898365     582.09355     -368.47233     -167.78164    
    163000   326000         302.81535     -286.13516      10917.997      11756.511      7256.2832      4500.2276      2421.1365      2419.4082      8773.7524      0             -9114.0695      0              0             -289.26617      200938.45      58.57168       58.57168       58.57168       0.89898365    -75.052366     -127.73375     -655.61935    
    164000   328000         298.16876     -294.41592      10877.117      11739.897      7144.9381      4594.9591      2467.8415      2438.7862      8812.9667      0             -9124.6354      0              0             -289.26617      200938.45      58.57168       58.57168       58.57168       0.89898365    -661.06267     -58.598385     -163.58671    
    165000   330000         300.42879      139.54213      12107.261      11698.335      7199.0947      4499.2403      2400.0705      2446.053       8742.3255      0             -9089.2087      0              0             -289.26617      200938.45      58.57168       58.57168       58.57168       0.89898365     259.08214     -81.89599       241.44023    
    166000   332000         294.56481     -519.13945      10017.9        11539.229      7058.5775      4480.6511      2461.3982      2420.3516      8724.7295      0             -9125.8281      0              0             -289.26617      200938.45      58.57168       58.57168       58.57168       0.89898365    -70.179682     -983.18779     -504.05087    
    167000   334000         299.96688      169.94611      12212.847      11714.823      7188.0259      4526.7969      2462.4921      2435.389       8716.0415      0             -9087.1256      0              0             -289.26617      200938.45      58.57168       58.57168       58.57168       0.89898365     91.088535      19.217528      399.53226    
    168000   336000         296.13175      182.40142      12153.626      11619.102      7096.1258      4522.976       2468.648       2437.2231      8721.3363      0             -9104.2314      0              0             -289.26617      200938.45      58.57168       58.57168       58.57168       0.89898365     259.4582       145.62923      142.11684    
    169000   338000         296.87603      343.95193      12554.527      11546.582      7113.9608      4432.6214      2493.6252      2349.8441      8676.6243      0             -9087.4722      0              0             -289.26617      200938.45      58.57168       58.57168       58.57168       0.89898365    -90.280801      142.50048      979.63611    
    170000   340000         303.52508      373.65327      12896.54       11801.556      7273.29        4528.2663      2415.1325      2390.726       8834.9512      0             -9112.5433      0              0             -289.26617      200938.45      58.57168       58.57168       58.57168       0.89898365     605.97831      321.9016       193.07989    
    171000   342000         299.91345      426.12943      12946.502      11697.737      7186.7457      4510.9917      2461.8563      2356.1516      8805.1006      0             -9112.1169      0              0             -289.26617      200938.45      58.57168       58.57168       58.57168       0.89898365     130.19366      730.04838      418.14626    
    172000   344000         296.80493      5.0830577      11547.772      11532.877      7112.257       4420.6195      2395.9192      2437.756       8711.3521      0             -9124.4077      0              0             -289.26617      200938.45      58.57168       58.57168       58.57168       0.89898365     22.678667     -38.223708      30.794214    
    173000   346000         301.83051      676.6766       13574.671      11591.683      7232.6836      4358.9992      2398.6663      2349.0682      8741.6494      0             -9130.3847      0              0             -289.26617      200938.45      58.57168       58.57168       58.57168       0.89898365     445.30442      436.34905      1148.3763    
    174000   348000         304.52681      36.514149      11911.421      11804.417      7297.2944      4507.1222      2432.2023      2440.2706      8733.0062      0             -9098.3569      0              0             -289.26617      200938.45      58.57168       58.57168       58.57168       0.89898365     167.16463     -217.83179      160.2096     
    175000   350000         301.99081     -422.69276      10502.488      11741.181      7236.5248      4504.6559      2405.5942      2394.9202      8785.489       0             -9081.3475      0              0             -289.26617      200938.45      58.57168       58.57168       58.57168       0.89898365    -235.3632      -498.42767     -534.28741    
    176000   352000         297.07743      356.47394      12616.99       11572.35       7118.7868      4453.5632      2446.3412      2410.245       8695.5333      0             -9098.5563      0              0             -289.26617      200938.45      58.57168       58.57168       58.57168       0.89898365     635.87054      375.54031      58.01097     
    177000   354000         301.15021     -331.218        10751.685      11722.313      7216.3819      4505.9311      2513.1794      2360.9209      8748.0221      0             -9116.1913      0              0             -289.26617      200938.45      58.57168       58.57168       58.57168       0.89898365    -72.705972     -93.649452     -827.29857    
    178000   356000         299.09066     -279.74161      10823.256      11643.033      7167.0293      4476.0039      2401.1108      2396.6436      8725.8444      0             -9047.5949      0              0             -289.26617      200938.45      58.57168       58.57168       58.57168       0.89898365    -130.90575     -179.73181     -528.58727    
    179000   358000         303.58175     -22.921222      11713.529      11780.699      7274.6482      4506.0506      2449.1682      2387.7321      8763.1961      0             -9094.0457      0              0             -289.26617      200938.45      58.57168       58.57168       58.57168       0.89898365     246.7925       99.519158     -415.07533    
    180000   360000         302.51799      100.31429      11970.921      11676.952      7249.1575      4427.794       2461.4123      2342.1522      8729.4003      0             -9105.1707      0              0             -289.26617      200938.45      58.57168       58.57168       58.57168       0.89898365     124.61254      140.53961      35.790725    
    181000   362000         303.06698      120.11117      12151.251      11799.267      7262.3129      4536.9542      2468.6425      2417.7073      8758.034       0             -9107.4296      0              0             -289.26617      200938.45      58.57168       58.57168       58.57168       0.89898365     106.89855      486.08744     -232.65248    
    182000   364000         299.3712       205.13343      12093.946      11492.806      7173.7517      4319.0545      2447.427       2344.8938      8657.3351      0             -9130.6014      0              0             -289.26617      200938.45      58.57168       58.57168       58.57168       0.89898365    -109.67765      373.60315      351.47479    
    183000   366000         299.39056      329.11362      12610.552      11646.09       7174.2158      4471.8745      2474.5685      2330.167       8738.7176      0             -9071.5786      0              0             -289.26617      200938.45      58.57168       58.57168       58.57168       0.89898365     678.69469     -72.965167      381.61133    
    184000   368000         298.1296      -182.6419       11034.569      11569.798      7143.9998      4425.7979      2477.9196      2343.0337      8708.2517      0             -9103.407       0              0             -289.26617      200938.45      58.57168       58.57168       58.57168       0.89898365    -224.58203     -31.585338     -291.75832    
    185000   370000         303.48564     -1.391785       11792.593      11796.672      7272.3451      4524.3268      2488.8161      2422.3977      8718.668       0             -9105.5551      0              0             -289.26617      200938.45      58.57168       58.57168       58.57168       0.89898365    -231.38912      278.01207     -50.798303    
    186000   372000         296.69438     -81.303459      11299.672      11537.93       7109.6079      4428.3222      2487.4288      2391.5741      8672.0628      0             -9122.7434      0              0             -289.26617      200938.45      58.57168       58.57168       58.57168       0.89898365     310.09868     -586.43872      32.429671    
    187000   374000         299.55628      574.20632      13326.052      11643.351      7178.1868      4465.1639      2516.8335      2416.2553      8645.76        0             -9113.6849      0              0             -289.26617      200938.45      58.57168       58.57168       58.57168       0.89898365     476.86098      847.59181      398.16618    
    188000   376000         295.73418      117.13376      11924.709      11581.451      7086.5989      4494.8519      2519.5553      2380.921       8709.699       0             -9115.3234      0              0             -289.26617      200938.45      58.57168       58.57168       58.57168       0.89898365     423.78861     -191.65834      119.271      
    189000   378000         302.77034      321.06715      12479.55       11538.669      7255.2046      4283.4642      2379.8745      2352.189       8688.6211      0             -9137.2203      0              0             -289.26617      200938.45      58.57168       58.57168       58.57168       0.89898365     941.07288      113.0532      -90.924643    
    190000   380000         298.83219      301.72774      12376.749      11492.541      7160.8357      4331.7058      2503.1225      2330.5468      8621.9813      0             -9123.9448      0              0             -289.26617      200938.45      58.57168       58.57168       58.57168       0.89898365     455.08622      244.81202      205.285      
    191000   382000         303.21966      19.993557      11755.29       11696.699      7265.9714      4430.7274      2482.9928      2387.8056      8684.2497      0             -9124.3207      0              0             -289.26617      200938.45      58.57168       58.57168       58.57168       0.89898365     249.60955     -197.54498      7.9160983    
    192000   384000         301.88547     -552.25683      10081.3        11699.678      7234.0006      4465.6773      2523.6712      2400.2395      8685.6214      0             -9143.8547      0              0             -289.26617      200938.45      58.57168       58.57168       58.57168       0.89898365    -838.31358     -471.68196     -346.77497    
    193000   386000         300.56272     -88.113615      11399.662      11657.877      7202.3038      4455.5734      2441.5549      2396.7956      8727.0919      0             -9109.869       0              0             -289.26617      200938.45      58.57168       58.57168       58.57168       0.89898365    -456.46919      126.1717       65.956643    
    194000   388000         302.42534      770.96319      13906.511      11647.218      7246.9374      4400.2809      2428.3777      2375.4244      8712.5356      0             -9116.0567      0              0             -289.26617      200938.45      58.57168       58.57168       58.57168       0.89898365     796.25939      1019.7113      496.91891    
    195000   390000         300.81445      268.22083      12560.075      11774.059      7208.336       4565.7229      2499.2135      2366.5402      8785.2158      0             -9085.2467      0              0             -289.26617      200938.45      58.57168       58.57168       58.57168       0.89898365    -14.729357      637.67705      181.71479    
    196000   392000         296.18676     -65.010543      11341.084      11531.596      7097.444       4434.1519      2519.9251      2372.6689      8660.4446      0             -9118.8867      0              0             -289.26617      200938.45      58.57168       58.57168       58.57168       0.89898365    -52.312199      309.84801     -452.56744    
    197000   394000         302.98327     -317.68879      10707.575      11638.556      7260.3068      4378.2488      2373.4052      2407.1826      8660.4345      0             -9062.7735      0              0             -289.26617      200938.45      58.57168       58.57168       58.57168       0.89898365    -309.0259      -223.89194     -420.14853    
    198000   396000         300.49926      79.291588      11721.744      11489.382      7200.7832      4288.5984      2435.0696      2339.0022      8651.3252      0             -9136.7986      0              0             -289.26617      200938.45      58.57168       58.57168       58.57168       0.89898365     49.551725      180.45304      7.8699959    
    199000   398000         300.38751      387.09406      12803.961      11669.589      7198.1053      4471.4836      2463.2863      2432.1703      8699.3584      0             -9123.3313      0              0             -289.26617      200938.45      58.57168       58.57168       58.57168       0.89898365     52.805606      477.56594      630.91064    
    200000   400000         304.92413      359.12362      12909.481      11857.076      7306.8153      4550.2606      2493.5847      2459.0331      8706.4672      0             -9108.8244      0              0             -289.26617      200938.45      58.57168       58.57168       58.57168       0.89898365     191.90156      580.91201      304.55729    
    201000   402000         301.68273     -37.369798      11574.168      11683.68       7229.1425      4454.5371      2480.7596      2389.2261      8711.2407      0             -9126.6893      0              0             -289.26617      200938.45      58.57168       58.57168       58.57168       0.89898365    -2.6198539     -332.87033      223.38079    
    202000   404000         300.83658      308.74207      12476.558      11571.795      7208.8663      4362.9286      2398.3243      2366.2556      8730.9152      0             -9132.5665      0              0             -289.26617      200938.45      58.57168       58.57168       58.57168       0.89898365     619.77805      197.76266      108.68552    
    203000   406000         300.96257      335.38698      12725.861      11743.016      7211.8855      4531.1301      2443.4644      2463.4411      8743.9082      0             -9119.6835      0              0             -289.26617      200938.45      58.57168       58.57168       58.57168       0.89898365    -27.31223       590.7709       442.70228    
    204000   408000         299.26356     -33.890776      11559.142      11658.458      7171.1724      4487.286       2425.3806      2416.8505      8718.2435      0             -9073.1886      0              0             -289.26617      200938.45      58.57168       58.57168       58.57168       0.89898365     78.441465     -64.322148     -115.79165    
[...]
   1950000   3900000        302.99799      173.05385      12235.335      11728.204      7260.6596      4467.5439      2393.9866      2426.9053      8737.085       0             -9090.4331      0              0             -289.26617      200938.45      58.57168       58.57168       58.57168       0.89898365     182.02474      117.78051      219.35632    
   1951000   3902000        299.76859      32.520057      11740.24       11644.941      7183.2744      4461.6664      2440.0412      2438.7428      8672.7328      0             -9089.8504      0              0             -289.26617      200938.45      58.57168       58.57168       58.57168       0.89898365    -311.1329       162.01826      246.67481    
   1952000   3904000        297.39485      189.81101      11909.296      11353.059      7126.3931      4226.6654      2337.2202      2340.4626      8675.5626      0             -9126.58        0              0             -289.26617      200938.45      58.57168       58.57168       58.57168       0.89898365     280.77602      95.305339      193.35168    
   1953000   3906000        298.16128     -301.69091      10694.357      11578.457      7144.7588      4433.6979      2423.5685      2389.8208      8705.4021      0             -9085.0936      0              0             -289.26617      200938.45      58.57168       58.57168       58.57168       0.89898365    -407.0832       53.394965     -551.38449    
   1954000   3908000        302.43433     -214.45213      11044.142      11672.59       7247.1528      4425.4369      2460.7169      2384.2721      8687.8673      0             -9107.4193      0              0             -289.26617      200938.45      58.57168       58.57168       58.57168       0.89898365    -359.58491     -234.01635     -49.755139    
   1955000   3910000        300.17889      143.10315      11964.46       11545.099      7193.1062      4351.9929      2391.515       2356.1391      8685.7603      0             -9081.4215      0              0             -289.26617      200938.45      58.57168       58.57168       58.57168       0.89898365     81.337102      409.81368     -61.841321    
   1956000   3912000        299.47346      180.94266      12131.418      11601.169      7176.2022      4424.9664      2398.6547      2407.9748      8709.8105      0             -9091.4735      0              0             -289.26617      200938.45      58.57168       58.57168       58.57168       0.89898365     257.87563      427.10504     -142.15269    
   1957000   3914000        302.79244     -158.63549      11211.294      11676.172      7255.7341      4420.4381      2493.8418      2390.2953      8662.18        0             -9125.879       0              0             -289.26617      200938.45      58.57168       58.57168       58.57168       0.89898365    -194.00461      22.903775     -304.80563    
   1958000   3916000        305.95568      56.22825       11773.587      11608.811      7331.5339      4277.2768      2358.3626      2358.1213      8684.2142      0             -9123.4214      0              0             -289.26617      200938.45      58.57168       58.57168       58.57168       0.89898365     257.78606     -469.15354      380.05223    
   1959000   3918000        300.71635     -248.67952      10848.682      11577.433      7205.9853      4371.4474      2438.8287      2387.1298      8675.55        0             -9130.0611      0              0             -289.26617      200938.45      58.57168       58.57168       58.57168       0.89898365    -484.34548     -376.50047      114.80739    
   1960000   3920000        305.37052     -268.60047      10929.217      11716.346      7317.5119      4398.8341      2415.7535      2382.1886      8703.4361      0             -9102.5441      0              0             -289.26617      200938.45      58.57168       58.57168       58.57168       0.89898365    -104.71156     -449.64625     -251.44358    
   1961000   3922000        301.88749      142.25047      12013.567      11596.704      7234.049       4362.6553      2446.443       2381.2646      8699.9338      0             -9164.986       0              0             -289.26617      200938.45      58.57168       58.57168       58.57168       0.89898365     394.97775      415.2856      -383.51194    
   1962000   3924000        303.9884       286.40185      12656.249      11816.954      7284.3926      4532.5611      2429.4307      2436.6842      8758.6969      0             -9092.2507      0              0             -289.26617      200938.45      58.57168       58.57168       58.57168       0.89898365     84.407913      623.77629      151.02134    
   1963000   3926000        300.86594     -648.24933      9682.3117      11581.994      7209.5698      4372.4243      2470.9684      2347.1317      8715.77        0             -9161.4458      0              0             -289.26617      200938.45      58.57168       58.57168       58.57168       0.89898365    -808.85976     -0.18902123    -1135.6992    
   1964000   3928000        298.70472     -470.3644       10336.385      11714.779      7157.7812      4556.9975      2502.4283      2446.2256      8732.6828      0             -9124.3393      0              0             -289.26617      200938.45      58.57168       58.57168       58.57168       0.89898365    -269.21901     -119.21853     -1022.6557    
   1965000   3930000        297.94601      94.663102      11977.189      11699.78       7139.6003      4560.1801      2523.6022      2422.1742      8722.3099      0             -9107.9062      0              0             -289.26617      200938.45      58.57168       58.57168       58.57168       0.89898365     277.11448      215.38626     -208.51144    
   1966000   3932000        300.73944     -33.350198      11576.022      11673.754      7206.5387      4467.2157      2516.2624      2360.2835      8657.8629      0             -9067.1931      0              0             -289.26617      200938.45      58.57168       58.57168       58.57168       0.89898365    -337.19223      737.52615     -500.38451    
   1967000   3934000        297.48124      372.6041       12651.62       11559.711      7128.4632      4431.248       2411.6679      2403.9838      8753.4783      0             -9137.882       0              0             -289.26617      200938.45      58.57168       58.57168       58.57168       0.89898365     55.087455      845.72154      217.00331    
   1968000   3936000        298.91578      135.40461      11957.791      11560.99       7162.8387      4398.1512      2432.5941      2413.3354      8692.4575      0             -9140.2358      0              0             -289.26617      200938.45      58.57168       58.57168       58.57168       0.89898365     44.58119      -266.63449      628.26712    
   1969000   3938000        295.02678     -41.447748      11337.157      11458.619      7069.6477      4388.9708      2419.8471      2325.6091      8743.4121      0             -9099.8975      0              0             -289.26617      200938.45      58.57168       58.57168       58.57168       0.89898365    -174.16144     -25.077301      74.8955      
   1970000   3940000        292.34501     -302.49148      10568.883      11455.328      7005.3851      4449.9433      2414.7593      2408.0261      8729.1581      0             -9102.0001      0              0             -289.26617      200938.45      58.57168       58.57168       58.57168       0.89898365    -228.1492      -281.35412     -397.97113    
   1971000   3942000        301.09801      177.16301      12138.469      11619.297      7215.131       4404.1656      2448.5908      2325.9467      8729.667       0             -9100.0389      0              0             -289.26617      200938.45      58.57168       58.57168       58.57168       0.89898365    -120.06349      309.33443      342.21809    
   1972000   3944000        297.67519     -50.156378      11426.666      11573.648      7133.1107      4440.5376      2426.2525      2352.5587      8747.2392      0             -9085.5127      0              0             -289.26617      200938.45      58.57168       58.57168       58.57168       0.89898365     78.303412     -119.52277     -109.24977    
   1973000   3946000        299.70623     -75.473231      11318.457      11539.629      7181.7801      4357.8493      2449.1216      2297.5881      8735.3985      0             -9124.2589      0              0             -289.26617      200938.45      58.57168       58.57168       58.57168       0.89898365    -114.29971     -294.54835      182.42836    
   1974000   3948000        300.09502     -344.53286      10617.456      11627.103      7191.0965      4436.0066      2395.5757      2410.8447      8756.3085      0             -9126.7224      0              0             -289.26617      200938.45      58.57168       58.57168       58.57168       0.89898365    -457.92157     -542.12719     -33.549824    
   1975000   3950000        297.35711     -1.5441201      11515.16       11519.685      7125.4887      4394.196       2387.0774      2391.9794      8738.2977      0             -9123.1584      0              0             -289.26617      200938.45      58.57168       58.57168       58.57168       0.89898365    -146.75979      70.678613      71.448818    
   1976000   3952000        299.11321      769.83346      14047.599      11791.617      7167.5697      4624.0472      2492.9913      2399.3692      8813.2106      0             -9081.5239      0              0             -289.26617      200938.45      58.57168       58.57168       58.57168       0.89898365     966.39256      457.13383      885.97398    
   1977000   3954000        300.16461     -83.255723      11415.833      11659.813      7192.7642      4467.0484      2427.3988      2430.2324      8721.5314      0             -9112.1143      0              0             -289.26617      200938.45      58.57168       58.57168       58.57168       0.89898365     337.71777     -296.64653     -290.83842    
   1978000   3956000        301.74529     -188.19161      11118.424      11669.916      7230.6414      4439.2741      2457.8767      2405.8766      8689.2181      0             -9113.6973      0              0             -289.26617      200938.45      58.57168       58.57168       58.57168       0.89898365     337.70956     -685.56916     -216.71524    
   1979000   3958000        302.10188      266.86679      12524.346      11742.298      7239.1864      4503.1119      2435.5069      2428.663       8772.0977      0             -9133.1556      0              0             -289.26617      200938.45      58.57168       58.57168       58.57168       0.89898365     648.03091     -300.70851      453.27797    
   1980000   3960000        306.12552      25.196297      11910.285      11836.448      7335.6037      4500.8439      2479.5431      2412.8862      8732.3854      0             -9123.9709      0              0             -289.26617      200938.45      58.57168       58.57168       58.57168       0.89898365    -97.579379      130.40468      42.763593    
   1981000   3962000        294.74595      126.52249      12039.593      11668.821      7062.9183      4605.9029      2454.1748      2456.5413      8829.6813      0             -9134.4946      0              0             -289.26617      200938.45      58.57168       58.57168       58.57168       0.89898365     498.88551      79.692967     -199.011      
   1982000   3964000        300.39961     -517.42111      10024.876      11541.169      7198.3953      4342.7738      2410.5714      2314.1957      8701.618       0             -9083.6113      0              0             -289.26617      200938.45      58.57168       58.57168       58.57168       0.89898365    -515.75135     -698.48392     -338.02804    
   1983000   3966000        306.88873     -91.68761       11580.991      11849.68       7353.8924      4495.7872      2453.3557      2393.2908      8805.8921      0             -9156.7515      0              0             -289.26617      200938.45      58.57168       58.57168       58.57168       0.89898365    -357.88986     -10.102277      92.929301    
   1984000   3968000        295.03694      465.25362      12901.43       11538.014      7069.8911      4468.1224      2454.1976      2382.7657      8753.7137      0             -9122.5547      0              0             -289.26617      200938.45      58.57168       58.57168       58.57168       0.89898365     1203.4851      189.80593      2.4698404    
   1985000   3970000        299.16471      3.1178382      11608.575      11599.438      7168.8038      4430.6347      2440.7623      2351.2132      8712.3092      0             -9073.65        0              0             -289.26617      200938.45      58.57168       58.57168       58.57168       0.89898365     2.8522963     -206.83359      213.33481    
   1986000   3972000        299.70703      198.21149      12145.959      11565.104      7181.7993      4383.3045      2416.4294      2344.3739      8699.6765      0             -9077.1754      0              0             -289.26617      200938.45      58.57168       58.57168       58.57168       0.89898365     236.49553      340.79035      17.34857     
   1987000   3974000        300.62276     -120.9742       11319.673      11674.186      7203.7427      4470.4433      2439.833       2376.9458      8746.0526      0             -9092.388       0              0             -289.26617      200938.45      58.57168       58.57168       58.57168       0.89898365     620.26573     -763.03272     -220.15561    
   1988000   3976000        299.98887      43.564315      11777.839      11650.174      7188.5529      4461.6213      2451.3576      2397.6016      8704.21        0             -9091.5478      0              0             -289.26617      200938.45      58.57168       58.57168       58.57168       0.89898365    -447.64556      483.48452      94.853989    
   1989000   3978000        295.79568     -39.21061       11536.75       11651.656      7088.0726      4563.5837      2440.3346      2437.9817      8793.5552      0             -9108.2878      0              0             -289.26617      200938.45      58.57168       58.57168       58.57168       0.89898365     670.77133     -340.76695     -447.63621    
   1990000   3980000        302.79695     -325.00665      10748.447      11700.873      7255.8421      4445.0304      2410.7763      2409.7386      8770.8036      0             -9146.288       0              0             -289.26617      200938.45      58.57168       58.57168       58.57168       0.89898365    -409.4497      -422.44768     -143.12258    
   1991000   3982000        295.58533     -238.27334      10817.938      11516.194      7083.0319      4433.1616      2446.8215      2387.9239      8743.6579      0             -9145.2417      0              0             -289.26617      200938.45      58.57168       58.57168       58.57168       0.89898365    -438.87304     -747.69475      471.74778    
   1992000   3984000        300.86513      632.18621      13388.101      11535.491      7209.5506      4325.9402      2402.3127      2364.1097      8668.4736      0             -9108.9558      0              0             -289.26617      200938.45      58.57168       58.57168       58.57168       0.89898365     784.34895      587.08341      525.12627    
   1993000   3986000        302.93915      317.02054      12639.508      11710.486      7259.2496      4451.236       2455.163       2393.8164      8718.9547      0             -9116.6981      0              0             -289.26617      200938.45      58.57168       58.57168       58.57168       0.89898365     80.285207      57.915565      812.86084    
   1994000   3988000        299.4174       237.11433      12375.73       11680.871      7174.8589      4506.012       2446.0491      2409.7951      8722.9911      0             -9072.8233      0              0             -289.26617      200938.45      58.57168       58.57168       58.57168       0.89898365    -1.1029002      509.46381      202.98208    
   1995000   3990000        301.57794     -94.016227      11469.735      11745.248      7226.6314      4518.6163      2480.1879      2449.2935      8703.9263      0             -9114.7914      0              0             -289.26617      200938.45      58.57168       58.57168       58.57168       0.89898365    -255.52093      205.28961     -231.81735    
   1996000   3992000        297.08863      77.943506      11756.677      11528.265      7119.0552      4409.2096      2412.0526      2391.3494      8736.4996      0             -9130.6919      0              0             -289.26617      200938.45      58.57168       58.57168       58.57168       0.89898365    -81.811836     -173.82332      489.46567    
   1997000   3994000        301.18389     -324.78642      10746.769      11698.55       7217.1889      4481.3608      2448.6986      2370.9052      8776.5553      0             -9114.7982      0              0             -289.26617      200938.45      58.57168       58.57168       58.57168       0.89898365    -136.67916     -874.47609      36.795997    
   1998000   3996000        297.01048      371.33946      12695.476      11607.273      7117.1825      4490.0906      2425.4971      2447.2087      8686.5678      0             -9069.1831      0              0             -289.26617      200938.45      58.57168       58.57168       58.57168       0.89898365     372.17569      828.22494     -86.382261    
   1999000   3998000        300.43964     -662.26657      9687.3154      11628.075      7199.3547      4428.7205      2398.1818      2413.35        8706.6174      0             -9089.4287      0              0             -289.26617      200938.45      58.57168       58.57168       58.57168       0.89898365    -213.55372     -1025.7931     -747.45287    
   2000000   4000000        298.2923      -149.08399      11099.692      11536.58       7147.8984      4388.6818      2401.8439      2364.6903      8728.8379      0             -9106.6904      0              0             -289.26617      200938.45      58.57168       58.57168       58.57168       0.89898365     104.85157     -315.88235     -236.22119    
Loop time of 9316.82 on 8 procs for 2000000 steps with 8040 atoms

Performance: 37.094 ns/day, 0.647 hours/ns, 214.666 timesteps/s, 1.726 Matom-step/s
98.4% CPU use with 8 MPI tasks x 1 OpenMP threads

MPI task timing breakdown:
Section |  min time  |  avg time  |  max time  |%varavg| %total
---------------------------------------------------------------
Pair    | 6767.1     | 7063       | 7438.3     | 253.1 | 75.81
Bond    | 256.45     | 261.84     | 271.5      |  31.7 |  2.81
Neigh   | 512.45     | 512.56     | 512.66     |   0.3 |  5.50
Comm    | 1005.3     | 1375.7     | 1669.2     | 563.1 | 14.77
Output  | 5.5026     | 5.9541     | 6.3208     |  11.1 |  0.06
Modify  | 47.993     | 49.745     | 50.457     |  12.3 |  0.53
Other   |            | 48.03      |            |       |  0.52

Nlocal:           1005 ave        1016 max         978 min
Histogram: 1 0 0 0 1 0 1 0 2 3
Nghost:        8175.12 ave        8217 max        8156 min
Histogram: 2 2 1 1 1 0 0 0 0 1
Neighs:         342789 ave      360226 max      326021 min
Histogram: 2 0 1 0 2 0 0 1 0 2

Total # of neighbors = 2742312
Ave neighs/atom = 341.08358
Ave special neighs/atom = 5.9701493
Neighbor list builds = 52566
Dangerous builds = 0

# --- Cleanup ---
unfix nvt_fix

undump dump_nvt

# --- Write Output ---
write_dump all custom nvt_production_last.dump id type mol x y z xu yu zu vx vy vz modify sort id
write_data /home/arz2/PolyJarvis/data/cis-PBD4/lammps/equil/nvt_production/nvt_production_out.data
System init for write_data ...
Generated 3 of 3 mixed pair_coeff terms from arithmetic mixing rule

print "STAGE COMPLETE: NVT T=300.0->300.0K steps=2000000"
STAGE COMPLETE: NVT T=300.0->300.0K steps=2000000
quit
STAGE COMPLETE: NVT T=300.0->300.0K steps=2000000
