units real
atom_style full
boundary p p p

# --- Force Field Styles ---
pair_style lj/cut 14.0
dielectric 1.000000
bond_style harmonic
angle_style harmonic
dihedral_style multi/harmonic
improper_style none
special_bonds lj 0 0 0
pair_modify mix arithmetic tail yes
neighbor 2.0 bin
neigh_modify delay 0 every 1 check yes
neigh_modify one 4000
package gpu 1 neigh no

read_data /home/arz2/PolyJarvis/data/PE1/lammps/equil/nvt_production/nvt_production_out.data
Reading data file ...
  orthogonal box = (2.4608554 2.4608554 2.4608554) to (53.317517 53.317517 53.317517)
  1 by 1 by 1 MPI processor grid
  reading atoms ...
  4840 atoms
  reading velocities ...
  4840 velocities
  scanning bonds ...
  2 = max bonds/atom
  scanning angles ...
  1 = max angles/atom
  scanning dihedrals ...
  2 = max dihedrals/atom
  orthogonal box = (2.4608554 2.4608554 2.4608554) to (53.317517 53.317517 53.317517)
  1 by 1 by 1 MPI processor grid
  reading bonds ...
  4820 bonds
  reading angles ...
  4800 angles
  reading dihedrals ...
  4780 dihedrals
Finding 1-2 1-3 1-4 neighbors ...
  special bond factors lj:    0        0        0       
  special bond factors coul:  0        0        0       
     2 = max # of 1-2 neighbors
     2 = max # of 1-3 neighbors
     4 = max # of 1-4 neighbors
     6 = max # of special neighbors
  special bonds CPU = 0.006 seconds
  read_data CPU = 0.293 seconds
include /home/arz2/PolyJarvis/data/PE1/lammps/equil/emc_build.params
# LAMMPS parameters created by EMC v9.4.4, build Jul 31 2025 20:33:44

# Variables

variable	seed		index	1001
variable	ntotal		index	4840
variable	fshape		index	1
variable	output		index	emc_build
variable	field		index	trappe/2014/trappe-ua
variable	location1	index	/home/arz2/emc/field/
variable	nav		index	0.6022141179
variable	temperature	index	300
variable	radius		index	5
variable	nrelax		index	100
variable	weight_nonbond	index	0.0001
variable	weight_bond	index	0.0001
variable	weight_focus	index	1
variable	cutoff		index	14
variable	charge_cutoff	index	14
variable	kappa		index	4
variable	density1	index	0.65
variable	lprevious	index	0
variable	lphase		index	55.7783720511
variable	f_poly		index	1
variable	chem_repeat	index	*CC*
variable	chem_cap	index	*C
variable	lg_repeat	index	2
variable	lg_cap		index	1
variable	norm_poly	index	100
variable	l_poly		index	242
variable	mg_repeat	index	28.0536
variable	mg_cap		index	15.0347
variable	m_poly		index	3396.5014
variable	norm		index	242
variable	n_poly		index	20
variable	mtotal		index	67930.028
variable	nphase1		index	4840
variable	mphase1		index	67930.028
variable	vphase1		index	173539.165354
variable	lbox		index	55.7783720511
variable	lphase1		index	55.7783720511
variable	lxx		index	55.7783720511
variable	lyy		index	55.7783720511
variable	lzz		index	55.7783720511
variable	lzy		index	0
variable	lzx		index	0
variable	lyx		index	0
variable	vtotal		index	173539.165354
variable	nl_poly		index	20

# Types

variable	type_c4h2	index	1
variable	type_c4h3	index	2

variable	type_bond_c4h2_c4h2 index	1
variable	type_bond_c4h2_c4h3 index	2

variable	type_angle_c4h2_c4h2_c4h2 index	1
variable	type_angle_c4h2_c4h2_c4h3 index	2

# Clusters

variable	n0_poly		index	1
variable	n1_poly		index	20
variable	nl_poly		index	20

# Flags

variable	flag_charged	index	0

# Masses

mass		1    14.02680  # c4h2
mass		2    15.03470  # c4h3

# Potentials

pair_modify	mix arithmetic tail yes
special_bonds	lj 0 0 0 coul 0 0 0.5
Finding 1-2 1-3 1-4 neighbors ...
  special bond factors lj:    0        0        0       
  special bond factors coul:  0        0        0.5     
     2 = max # of 1-2 neighbors
     2 = max # of 1-3 neighbors
     4 = max # of 1-4 neighbors
     6 = max # of special neighbors
  special bonds CPU = 0.008 seconds

# Pair Coeffs

pair_coeff	1 1    0.09141    3.95000  # c4h2,c4h2
pair_coeff	2 2    0.19475    3.75000  # c4h3,c4h3

# Bond Coeffs

bond_coeff	1  260.00013    1.54000  # c4h2,c4h2
bond_coeff	2  260.00013    1.54000  # c4h2,c4h3

# Angle Coeffs

angle_coeff	1   62.10020  114.00000  # c4h2,c4h2,c4h2
angle_coeff	2   62.10020  114.00000  # c4h2,c4h2,c4h3

# Dihedral Coeffs

dihedral_coeff	1    2.00702   -4.01203    0.27102    6.29006    0.00000  # c4h2,c4h2,c4h2,c4h2
dihedral_coeff	2    2.00702   -4.01203    0.27102    6.29006    0.00000  # c4h2,c4h2,c4h2,c4h3


# --- Thermo Output ---
thermo_style custom step time temp press enthalpy etotal ke pe ebond eangle edihed eimp evdwl ecoul elong etail vol lx ly lz density pxx pyy pzz
thermo_modify flush yes
thermo 1000

# --- Trajectory ---
dump dump_npt all custom 1000 npt_production.dump id type mol x y z ix iy iz vx vy vz

# --- Restart Checkpointing ---
# No restart checkpointing

# --- Initial Velocities (optional) ---
# Velocities read from data file

# --- SHAKE Constraints ---
# SHAKE disabled

# --- NPT Thermostat + Barostat (Nose-Hoover) ---
# T_damp = 100.0 fs  (heat bath coupling)
# P_damp = 1000.0 fs  (pressure bath coupling, ~10x T_damp typical)
# Ramp: T=300.0->300.0K  P=1.0->1.0atm
timestep 2.0
fix npt_fix all npt temp 300.0 300.0 100.0 iso 1.0 1.0 1000.0

run 5000000

CITE-CITE-CITE-CITE-CITE-CITE-CITE-CITE-CITE-CITE-CITE-CITE-CITE

Your simulation uses code contributions which should be cited:

- GPU package (short-range, long-range and three-body potentials): doi:10.1016/j.cpc.2010.12.021, doi:10.1016/j.cpc.2011.10.012, doi:10.1016/j.cpc.2013.08.002, doi:10.1016/j.commatsci.2014.10.068, doi:10.1016/j.cpc.2016.10.020, doi:10.3233/APC200086

@Article{Brown11,
 author = {W. M. Brown and P. Wang and S. J. Plimpton and A. N. Tharrington},
 title = {Implementing Molecular Dynamics on Hybrid High Performance Computers---Short Range Forces},
 journal = {Comput.\ Phys.\ Commun.},
 year =    2011,
 volume =  182,
 pages =   {898--911},
 doi =     {10.1016/j.cpc.2010.12.021}
}

@Article{Brown12,
 author = {W. M. Brown and A. Kohlmeyer and S. J. Plimpton and A. N. Tharrington},
 title = {Implementing Molecular Dynamics on Hybrid High Performance Computers - Particle-Particle Particle-Mesh},
 journal = {Comput.\ Phys.\ Commun.},
 year =    2012,
 volume =  183,
 doi =     {10.1016/j.cpc.2011.10.012},
 pages =   {449--459}
}

@Article{Brown13,
 author = {W. M. Brown and Y. Masako},
 title = {Implementing Molecular Dynamics on Hybrid High Performance Computers---Three-Body Potentials},
 journal = {Comput.\ Phys.\ Commun.},
 year =    2013,
 volume =  184,
 pages =   {2785--2793},
 doi =     {10.1016/j.cpc.2013.08.002},
}

@Article{Trung15,
 author = {T. D. Nguyen and S. J. Plimpton},
 title = {Accelerating Dissipative Particle Dynamics Simulations for Soft Matter Systems},
 journal = {Comput.\ Mater.\ Sci.},
 year =    2015,
 doi =     {10.1016/j.commatsci.2014.10.068},
 volume =  100,
 pages =   {173--180}
}

@Article{Trung17,
 author = {T. D. Nguyen},
 title = {{GPU}-Accelerated {T}ersoff Potentials for Massively Parallel
    Molecular Dynamics Simulations},
 journal = {Comput.\ Phys.\ Commun.},
 year =    2017,
 doi =     {10.1016/j.cpc.2016.10.020},
 volume =  212,
 pages =   {113--122}
}

@inproceedings{Nikolskiy19,
 author = {V. Nikolskiy and V. Stegailov},
 title = {{GPU} Acceleration of Four-Site Water Models in {LAMMPS}},
 booktitle = {Proceedings of the International Conference on Parallel
    Computing (ParCo 2019), Prague, Czech Republic},
 doi =     {10.3233/APC200086},
 year =    2019
}

CITE-CITE-CITE-CITE-CITE-CITE-CITE-CITE-CITE-CITE-CITE-CITE-CITE

Generated 1 of 1 mixed pair_coeff terms from arithmetic mixing rule
Neighbor list info ...
  update: every = 1 steps, delay = 0 steps, check = yes
  max neighbors/atom: 4000, page size: 100000
  master list distance cutoff = 16
  ghost atom cutoff = 16
  binsize = 8, bins = 7 7 7
  1 neighbor lists, perpetual/occasional/extra = 1 0 0
  (1) pair lj/cut/gpu, perpetual
      attributes: full, newton on
      pair build: full/bin
      stencil: full/bin/3d
      bin: standard
Per MPI rank memory allocation (min/avg/max) = 28.68 | 28.68 | 28.68 Mbytes
   Step          Time           Temp          Press         Enthalpy        TotEng         KinEng         PotEng         E_bond        E_angle        E_dihed        E_impro         E_vdwl         E_coul         E_long         E_tail         Volume           Lx             Ly             Lz          Density          Pxx            Pyy            Pzz      
         0   0              299.17112     -185.02463      3904.2375      4259.1726      4315.286      -56.113433      1505.7632      1452.7253      2701.2235      0             -5715.8254      0              0             -189.53452      131535.67      50.856661      50.856661      50.856661      0.85756553    -548.61649     -107.09936      100.64194    
      1000   2000           300.81879      217.83809      4698.4745      4283.6984      4339.0523     -55.353931      1459.8056      1507.3846      2719.6855      0             -5742.2297      0              0             -190.95361      130558.15      50.730366      50.730366      50.730366      0.86398632     272.98474     -256.57543      637.10495    
      2000   4000           300.07732      317.3559       4931.9977      4321.994       4328.3572     -6.3631145      1500.9291      1434.1575      2741.4872      0             -5682.9369      0              0             -189.15676      131798.36      50.890494      50.890494      50.890494      0.85585632     694.60764      217.97099      39.489071    
      3000   6000           301.69866      5.5639446      4322.3558      4311.71        4351.7436     -40.033558      1510.7483      1452.2217      2685.8163      0             -5688.8199      0              0             -190.02574      131195.65      50.812802      50.812802      50.812802      0.8597881     -252.00605      148.27579      120.4221     
      4000   8000           296.5072      -698.34435      2898.4035      4239.4055      4276.8613     -37.455787      1495.0682      1446.0515      2711.2124      0             -5689.7879      0              0             -189.34243      131669.11      50.873853      50.873853      50.873853      0.85669643    -907.38776     -771.6826      -415.96269    
      5000   10000          300.94443      17.248182      4278.5127      4245.4825      4340.8646     -95.382103      1478.2493      1460.3582      2677.9475      0             -5711.9371      0              0             -189.86245      131308.48      50.827365      50.827365      50.827365      0.85904928    -156.24016      308.10519     -100.12048    
      6000   12000          300.10498      237.62955      4687.3652      4233.6439      4328.7562     -95.112262      1493.6539      1443.7337      2694.6844      0             -5727.1843      0              0             -190.42286      130922.04      50.777454      50.777454      50.777454      0.86158493    -18.723877      499.25009      232.36244    
      7000   14000          300.57521      55.199401      4489.4447      4383.1291      4335.5388      47.59031       1524.6899      1438.5245      2737.4915      0             -5653.1155      0              0             -188.77527      132064.7       50.924751      50.924751      50.924751      0.85413025     110.90372      73.370023     -18.675541    
      8000   16000          295.16747     -102.35495      4146.2793      4343.394       4257.5368      85.8572        1543.6077      1447.8617      2774.332       0             -5679.9441      0              0             -188.79807      132048.75      50.922701      50.922701      50.922701      0.85423341    -208.42984     -86.257308     -12.377691    
      9000   18000          299.28478     -210.02525      3898.3389      4303.5898      4316.9255     -13.335737      1501.0073      1436.2387      2712.474       0             -5663.0557      0              0             -188.43226      132305.1       50.955633      50.955633      50.955633      0.85257827    -269.59463     -287.37936     -73.101746    
     10000   20000          302.16247      289.71074      4892.1162      4332.3841      4358.4337     -26.049616      1490.2168      1480.9829      2664.72        0             -5661.9693      0              0             -188.18808      132476.77      50.977662      50.977662      50.977662      0.85147348    -344.83318      560.71491      653.25049    
     11000   22000          303.23927      640.08362      5482.0974      4261.2421      4373.9656     -112.72353      1463.5761      1449.3046      2695.5985      0             -5721.2026      0              0             -190.62519      130783.08      50.759483      50.759483      50.759483      0.86250035     715.12434      518.50451      686.62201    
     12000   24000          295.31258     -142.19242      3953.1022      4225.2474      4259.63       -34.382569      1500.0602      1432.0344      2732.0691      0             -5698.5462      0              0             -189.96933      131234.6       50.81783       50.81783       50.81783       0.85953289     324.75318      45.575011     -796.90545    
     13000   26000          305.09923     -291.17478      3827.0378      4386.552       4400.794      -14.241933      1531.5212      1463.3955      2672.3894      0             -5681.548       0              0             -189.21274      131759.36      50.885474      50.885474      50.885474      0.85610961     221.31768     -522.08113     -572.76089    
     14000   28000          295.09376      691.94466      5406.7434      4072.3531      4256.4737     -184.12065      1468.0121      1391.8035      2631.1725      0             -5675.1087      0              0             -188.53684      132231.71      50.946209      50.946209      50.946209      0.85305146     1099.304       136.73154      839.7984     
     15000   30000          292.45099      202.39932      4454.4535      4067.2515      4218.354      -151.1025       1465.587       1417.4767      2669.6191      0             -5703.7854      0              0             -190.05497      131175.47      50.810196      50.810196      50.810196      0.85992036    -91.441647      762.30841     -63.668822    
     16000   32000          299.9969      -229.61398      3737.7142      4178.2733      4327.1972     -148.92394      1462.9144      1423.365       2657.5794      0             -5692.7827      0              0             -189.49679      131561.86      50.860036      50.860036      50.860036      0.85739482    -119.68391     -109.27792     -459.88012    
     17000   34000          298.4821       90.131233      4390.5216      4217.1719      4305.3475     -88.175616      1440.1385      1461.5122      2692.8876      0             -5682.7139      0              0             -189.04275      131877.84      50.900722      50.900722      50.900722      0.85534047    -87.250092      76.019999      281.62379    
     18000   36000          296.25321      181.88496      4594.7783      4245.9737      4273.1978     -27.224033      1456.9094      1498.7798      2690.5592      0             -5673.4725      0              0             -189.59303      131495.08      50.851429      50.851429      50.851429      0.85783027     190.97263     -35.274465      389.95672    
     19000   38000          297.2395       52.17076       4423.9781      4323.5817      4287.4241      36.157682      1545.2107      1420.1206      2739.0589      0             -5668.2325      0              0             -188.93696      131951.68      50.910221      50.910221      50.910221      0.85486181    -162.23659      67.156973      251.5919     
     20000   40000          303.37881     -301.19566      3684.5845      4264.5253      4375.9784     -111.45308      1466.1157      1397.3054      2703.3925      0             -5678.2666      0              0             -188.83079      132025.87      50.91976       50.91976       50.91976       0.85438146    -133.13391     -359.18732     -411.26574    
     21000   42000          300.16453     -428.44779      3427.0667      4247.3167      4329.6152     -82.29853       1514.5771      1417.8081      2683.3143      0             -5697.998       0              0             -189.91508      131272.09      50.822669      50.822669      50.822669      0.8592874     -413.08472     -559.58621     -312.67245    
     22000   44000          301.99431     -241.39663      3876.3333      4342.0001      4356.0082     -14.00816       1515.2144      1462.648       2665.3774      0             -5657.248       0              0             -188.47933      132272.06      50.951391      50.951391      50.951391      0.85279123    -535.8605      -944.2661       755.93672    
     23000   46000          295.01715      87.517279      4309.9676      4142.1607      4255.3687     -113.20795      1464.2808      1450.671       2668.3101      0             -5696.4698      0              0             -189.62326      131474.11      50.848726      50.848726      50.848726      0.85796707    -685.28444      456.9807       490.85557    
     24000   48000          299.61297     -308.26023      3678.7668      4273.5767      4321.6594     -48.082732      1459.2427      1441.4941      2720.194       0             -5669.0136      0              0             -188.42871      132307.59      50.955952      50.955952      50.955952      0.85256222    -1114.775       174.09039      15.903916    
     25000   50000          295.04296      25.093839      4245.4679      4197.1082      4255.7409     -58.632643      1475.3998      1439.8159      2697.2831      0             -5671.1314      0              0             -188.66506      132141.85      50.934666      50.934666      50.934666      0.85363158     685.12453     -892.41909      282.57607    
     26000   52000          308.49763      11.839292      4432.1005      4409.4208      4449.8129     -40.392137      1495.3472      1489.5982      2648.4849      0             -5673.8225      0              0             -189.79973      131351.87      50.832962      50.832962      50.832962      0.85876552     27.245676      282.86124     -274.58904    
     27000   54000          299.8878       401.72424      5087.4294      4316.4426      4325.6235     -9.180927       1484.3749      1439.4685      2723.1122      0             -5656.1365      0              0             -189.44748      131596.1       50.864449      50.864449      50.864449      0.85717171     673.63532     -9.3323737      540.86977    
     28000   56000          299.72353     -752.63239      2861.5876      4315.9493      4323.2542     -7.3048707      1472.2995      1454.5364      2695.7736      0             -5629.9143      0              0             -188.15607      132499.31      50.980553      50.980553      50.980553      0.8513286     -1498.2895     -698.90252     -60.705144    
     29000   58000          296.34217     -192.04096      3845.6091      4215.7081      4274.4808     -58.77278       1451.284       1423.5667      2709.491       0             -5643.1145      0              0             -188.66172      132144.18      50.934966      50.934966      50.934966      0.85361649    -665.74592      102.81381     -13.190766    
     30000   60000          301.37346     -218.62985      3942.154       4363.5802      4347.0529      16.527273      1457.7316      1492.2948      2731.2173      0             -5664.7165      0              0             -188.62345      132171         50.938411      50.938411      50.938411      0.85344332    -760.83227      427.512       -322.56926    
     31000   62000          300.40971      131.71071      4510.3295      4257.3136      4333.1517     -75.83814       1464.3366      1445.2911      2714.8236      0             -5700.2894      0              0             -189.26966      131719.74      50.880373      50.880373      50.880373      0.85636715     265.98083      323.98612     -194.83483    
     32000   64000          297.09201      312.83211      4817.6968      4218.3585      4285.2967     -66.938167      1464.6553      1431.4529      2713.6425      0             -5676.6889      0              0             -189.77853      131366.55      50.834855      50.834855      50.834855      0.85866957     321.64968      947.34479     -330.49812    
     33000   66000          298.11298      84.257422      4407.3549      4245.9087      4300.0233     -54.114567      1442.0156      1420.6076      2781.9666      0             -5698.7044      0              0             -189.75279      131384.36      50.837154      50.837154      50.837154      0.85855313    -352.73771      501.88251      103.62746    
     34000   68000          300.51694      474.20186      5090.6259      4180.9278      4334.6983     -153.77052      1407.1913      1373.2405      2748.252       0             -5682.4543      0              0             -189.52815      131540.09      50.857231      50.857231      50.857231      0.8575367      600.53275     -343.93531      1166.0081    
     35000   70000          299.34789      102.74054      4595.4526      4399.3894      4317.8359      81.553551      1490.074       1511.465       2773.2019      0             -5693.1873      0              0             -190.52572      130851.36      50.768315      50.768315      50.768315      0.8620503     -403.68933      738.57156     -26.660608    
     36000   72000          301.70729      499.74916      5338.2472      4382.3075      4351.8681      30.439341      1513.708       1462.7077      2738.5446      0             -5684.5209      0              0             -190.07688      131160.35      50.808244      50.808244      50.808244      0.8600195      1168.1771      70.688738      260.38162    
     37000   74000          296.13826     -130.96031      4009.0235      4260.5826      4271.5397     -10.957166      1461.5676      1457.9548      2757.9557      0             -5688.4352      0              0             -189.28118      131711.72      50.87934       50.87934       50.87934       0.85641928    -157.46329      69.076054     -304.4937     
     38000   76000          299.10487      202.20941      4526.1764      4137.0312      4314.3304     -177.29925      1449.9213      1402.5598      2645.9148      0             -5675.6952      0              0             -188.92847      131957.61      50.910983      50.910983      50.910983      0.85482341    -45.064275      225.90331      425.78918    
     39000   78000          299.17578     -92.095059      3926.1072      4103.0061      4315.3533     -212.34719      1419.035       1356.8248      2706.8325      0             -5695.0396      0              0             -189.28619      131708.23      50.878891      50.878891      50.878891      0.85644196    -535.17738      385.59153     -126.69933    
     40000   80000          301.50332     -342.61255      3605.153       4267.4198      4348.926      -81.506225      1432.6292      1390.2908      2721.8579      0             -5626.2841      0              0             -188.09533      132542.1       50.986039      50.986039      50.986039      0.85105381    -220.49236      187.59959     -994.94488    
     41000   82000          305.7596      -49.627687      4244.5095      4339.5706      4410.3192     -70.748572      1428.1147      1465.5358      2731.9626      0             -5696.3617      0              0             -189.81426      131341.82      50.831665      50.831665      50.831665      0.85883125     23.112574      71.798812     -243.79445    
     42000   84000          299.93521     -394.76348      3557.5579      4320.6217      4326.3074     -5.6856595      1434.2224      1446.9988      2759.1379      0             -5646.0448      0              0             -188.09787      132540.31      50.98581       50.98581       50.98581       0.85106527    -376.16396     -385.25293     -422.87356    
     43000   86000          303.02351     -241.76039      3854.3896      4323.1435      4370.8535     -47.709993      1437.6016      1452.5801      2684.3351      0             -5622.2269      0              0             -187.52015      132948.64      51.038116      51.038116      51.038116      0.84845136    -272.88442      189.51287     -641.90961    
     44000   88000          305.12615      26.550914      4379.2612      4328.0164      4401.1822     -73.165858      1423.0531      1415.3838      2736.0286      0             -5647.6314      0              0             -188.38115      132341         50.960241      50.960241      50.960241      0.85234701    -238.75064      153.19198      165.21141    
     45000   90000          302.06526      57.592759      4466.5922      4355.1467      4357.0316     -1.8848923      1437.3079      1422.9189      2770.1389      0             -5632.2506      0              0             -187.89406      132684.07      51.004238      51.004238      51.004238      0.85014314     253.73996     -75.735366     -5.2263219    
     46000   92000          303.99479     -913.34879      2646.2547      4407.6874      4384.8634      22.824039      1451.6855      1473.0324      2742.0069      0             -5643.9007      0              0             -188.52907      132237.16      50.946909      50.946909      50.946909      0.8530163     -891.36478     -977.44059     -871.24101    
     47000   94000          300.987        68.499585      4516.812       4383.4781      4341.4786      41.999463      1443.3679      1494.6348      2710.3705      0             -5606.3737      0              0             -186.79055      133467.94      51.104481      51.104481      51.104481      0.84515021     363.64696      155.49989     -313.64809    
     48000   96000          304.1338      -10.191957      4401.1707      4420.9381      4386.8685      34.069598      1473.1389      1448.0713      2739.882       0             -5627.0226      0              0             -187.46344      132988.86      51.043262      51.043262      51.043262      0.84819476     233.51766      30.576195     -294.66972    
     49000   98000          302.85356      450.6938       5266.6032      4393.5575      4368.402       25.155463      1421.5517      1510.8642      2738.0103      0             -5645.2707      0              0             -187.69485      132824.9       51.022276      51.022276      51.022276      0.84924181     495.24066      672.47819      184.36256    
     50000   100000         300.54242      366.31856      5083.6114      4377.2486      4335.0659      42.182683      1466.5095      1471.0884      2731.8493      0             -5627.2646      0              0             -188.55534      132218.74      50.944543      50.944543      50.944543      0.85313515     303.40233      113.44417      682.10919    
     51000   102000         295.84395     -192.01954      3837.3026      4207.7252      4267.2945     -59.569275      1431.7833      1453.4836      2685.0533      0             -5629.8894      0              0             -188.47582      132274.53      50.951707      50.951707      50.951707      0.85277535    -112.11407     -169.91702     -294.02754    
     52000   104000         296.15457      227.75451      4687.6457      4249.2166      4271.7749     -22.558313      1442.7688      1450.3212      2707.4111      0             -5623.0594      0              0             -188.87536      131994.72      50.915755      50.915755      50.915755      0.85458309     390.38072     -150.41921      443.30203    
     53000   106000         299.87488      318.14825      4973.3336      4364.1643      4325.4372      38.727111      1499.3578      1443.8673      2762.7631      0             -5667.2611      0              0             -189.88878      131290.27      50.825015      50.825015      50.825015      0.85916841    -179.7185       204.49817      929.66506    
     54000   108000         302.6132      -302.95959      3901.1727      4483.931       4364.9351      118.9959       1463.1874      1498.8036      2788.5375      0             -5631.5326      0              0             -189.01833      131894.88      50.902914      50.902914      50.902914      0.85522998    -382.16461     -284.31327     -242.40088    
     55000   110000         300.13493      67.935523      4585.5353      4454.9232      4329.1882      125.73493      1469.5767      1507.664       2755.4119      0             -5606.9176      0              0             -189.11285      131828.95      50.894431      50.894431      50.894431      0.85565768    -170.86495      53.250567      321.42095    
     56000   112000         302.76157      3.2900397      4313.2976      4306.9365      4367.0753     -60.138816      1420.6553      1451.1365      2708.9362      0             -5640.8668      0              0             -188.05063      132573.6       50.990079      50.990079      50.990079      0.85085155     70.996203     -244.5664       183.44031    
     57000   114000         303.56042     -87.22547       4207.2646      4374.6307      4378.598      -3.9673004      1422.1749      1512.4419      2720.6911      0             -5659.2752      0              0             -189.4889       131567.34      50.860742      50.860742      50.860742      0.85735913    -39.10311      -158.42173     -64.151573    
     58000   116000         297.91429      383.8597       5004.5786      4263.7455      4297.1574     -33.41186       1426.137       1470.3824      2724.2163      0             -5654.1475      0              0             -188.39089      132334.16      50.959362      50.959362      50.959362      0.85239108     259.02134      53.825787      838.73198    
     59000   118000         302.67124      457.59082      5204.5677      4328.1893      4365.7722     -37.582869      1470.0506      1463.1977      2722.9807      0             -5693.8119      0              0             -189.84248      131322.29      50.829147      50.829147      50.829147      0.85895893     775.50861      60.857466      536.40637    
     60000   120000         297.63607     -187.26183      3969.2682      4330.6295      4293.1443      37.485166      1462.8858      1459.5212      2770.2247      0             -5655.1466      0              0             -188.41497      132317.24      50.957191      50.957191      50.957191      0.85250003     154.67224     -517.90934     -198.54841    
     61000   122000         295.60299     -95.664297      4066.5326      4251.4985      4263.8188     -12.320348      1443.3013      1449.1941      2718.4845      0             -5623.3003      0              0             -188.0468       132576.3       50.990425      50.990425      50.990425      0.85083424     21.846832     -285.64759     -23.192139    
     62000   124000         307.4339       711.46991      5684.8472      4318.6653      4434.4696     -115.80434      1426.9279      1420.1709      2725.4596      0             -5688.3627      0              0             -189.34582      131666.75      50.87355       50.87355       50.87355       0.85671175     795.3687       361.45907      977.58197    
     63000   126000         302.11392      114.9471       4581.1777      4359.532       4357.7335      1.7984855      1455.0478      1440.8777      2737.0644      0             -5631.1914      0              0             -188.55864      132216.43      50.944246      50.944246      50.944246      0.85315009     39.242931     -358.93523      664.53359    
     64000   128000         301.18584     -54.610752      4199.3604      4304.7598      4344.3467     -39.586935      1463.3733      1450.4095      2701.0819      0             -5654.4516      0              0             -188.38561      132337.86      50.959838      50.959838      50.959838      0.8523672      129.41216     -403.54472      110.30031    
     65000   130000         299.19777      640.66541      5514.3147      4279.0014      4315.6705     -36.669096      1442.3772      1474.9811      2710.0093      0             -5664.0367      0              0             -188.56536      132211.72      50.943641      50.943641      50.943641      0.85318048     377.81763      949.35419      594.82441    
     66000   132000         308.1987       557.58273      5531.3949      4453.8938      4445.5011      8.3926438      1477.0438      1472.6723      2713.2123      0             -5654.5358      0              0             -188.14788      132505.08      50.981292      50.981292      50.981292      0.85129158     169.07134      679.47873      824.19813    
     67000   134000         302.0003       268.07333      4854.2907      4335.9416      4356.0946     -20.152997      1437.4823      1463.0682      2698.8504      0             -5619.5539      0              0             -188.03511      132584.54      50.991482      50.991482      50.991482      0.85078135    -627.0498       412.0407       1019.2291    
     68000   136000         300.31535      52.690389      4467.2287      4365.2611      4331.7905      33.470525      1474.078       1457.6925      2715.4052      0             -5613.7052      0              0             -187.87832      132695.19      51.005663      51.005663      51.005663      0.85007192    -230.3878       316.9112       71.54777     
     69000   138000         294.51103     -111.35907      4011.7832      4228.7769      4248.0683     -19.291382      1445.3553      1457.3691      2672.8225      0             -5594.8382      0              0             -186.58907      133612.05      51.122868      51.122868      51.122868      0.84423861     40.591355     -398.37799      23.70942     
     70000   140000         302.96943     -339.65649      3765.2336      4422.5888      4370.0735      52.515368      1451.3291      1488.0091      2740.8193      0             -5627.6421      0              0             -187.86571      132704.1       51.006804      51.006804      51.006804      0.85001485    -625.42256     -690.85323      297.30631    
     71000   142000         297.95043     -242.1115       3833.372       4302.6025      4297.6786      4.9238726      1466.8906      1435.7936      2691.3372      0             -5589.0974      0              0             -187.60179      132890.78      51.030711      51.030711      51.030711      0.84882076     369.87182     -472.21314     -623.99318    
     72000   144000         299.21855     -473.73785      3439.3452      4358.251       4315.9702      42.280755      1446.1163      1460.9948      2760.0405      0             -5624.8709      0              0             -187.44542      133001.65      51.044898      51.044898      51.044898      0.84811323    -131.56169     -36.108847     -1253.543     
     73000   146000         297.05293      318.59568      4942.0823      4326.8932      4284.733       42.160188      1504.0851      1444.5879      2711.7631      0             -5618.2758      0              0             -188.29509      132401.49      50.968003      50.968003      50.968003      0.85195762     550.08493      651.82672     -246.12462    
     74000   148000         295.41128     -569.48217      3102.6152      4200.4101      4261.0536     -60.643527      1435.6447      1421.1613      2732.5945      0             -5650.0441      0              0             -188.61085      132179.83      50.939545      50.939545      50.939545      0.85338632    -265.63717     -686.83768     -755.97166    
     75000   150000         295.65239     -340.62827      3595.7018      4245.8416      4264.5314     -18.689809      1463.8034      1457.1705      2737.3693      0             -5677.0331      0              0             -190.49415      130873.04      50.771119      50.771119      50.771119      0.86190748     141.44927     -813.49103     -349.84303    
     76000   152000         307.73721      198.23672      4882.0513      4498.2602      4438.8446      59.415601      1476.5771      1431.7889      2798.1996      0             -5647.1499      0              0             -187.80058      132750.12      51.0127        51.0127        51.0127        0.84972018    -31.27768      -138.82745      764.81529    
     77000   154000         295.96657      665.92889      5564.416       4288.2826      4269.0632      19.219355      1415.6349      1518.2608      2762.9058      0             -5677.5822      0              0             -189.73153      131399.09      50.839053      50.839053      50.839053      0.85845691     759.65066      763.89712      474.23889    
     78000   156000         301.89607      354.16677      5031.6025      4352.3156      4354.5911     -2.2754871      1431.3311      1464.043       2769.0036      0             -5666.6532      0              0             -189.56683      131513.25      50.853771      50.853771      50.853771      0.85771174     45.975387      659.56858      356.95634    
     79000   158000         298.72603      489.91563      5113.4608      4173.9626      4308.866      -134.90338      1403.5284      1469.7605      2699.5215      0             -5707.7138      0              0             -189.59771      131491.83      50.851011      50.851011      50.851011      0.85785143     928.21677      203.10795      338.42217    
     80000   160000         302.78705      69.539614      4455.6666      4321.9957      4367.4428     -45.447105      1432.8621      1449.1416      2754.1527      0             -5681.6035      0              0             -189.14853      131804.09      50.891232      50.891232      50.891232      0.85581908     370.2046      -389.5536       227.96784    
     81000   162000         299.15405     -97.379978      4052.3034      4240.0401      4315.0399     -74.999773      1446.5425      1442.8347      2720.5121      0             -5684.8891      0              0             -188.59416      132191.52      50.941047      50.941047      50.941047      0.85331081     307.98926     -405.09836     -195.03084    
     82000   164000         300.91987      99.73864       4450.3869      4258.3316      4340.5103     -82.178689      1404.6834      1405.8284      2792.4608      0             -5685.1514      0              0             -188.81869      132034.33      50.920848      50.920848      50.920848      0.8543267      95.113714      408.15004     -204.04784    
     83000   166000         302.48138     -196.60661      3988.3365      4364.6361      4363.0337      1.6023428      1489.3587      1453.7154      2736.6655      0             -5678.1373      0              0             -189.96436      131238.04      50.818274      50.818274      50.818274      0.85951038     217.03809     -320.65087     -486.20705    
     84000   168000         302.10246     -472.89663      3441.1212      4350.3082      4357.5682     -7.2599988      1452.4352      1458.8172      2737.4414      0             -5655.9539      0              0             -189.11272      131829.04      50.894443      50.894443      50.894443      0.85565708    -84.584506     -676.80261     -657.30277    
     85000   170000         299.63922      209.49656      4676.87        4275.2681      4322.038      -46.769848      1502.4081      1421.5877      2725.8727      0             -5696.6383      0              0             -189.66576      131444.65      50.844929      50.844929      50.844929      0.85815933     1164.9945     -685.8224       149.31764    
     86000   172000         301.21953      48.805794      4451.0137      4357.1729      4344.8327      12.34026       1476.4389      1506.6494      2717.1051      0             -5687.8531      0              0             -189.09822      131839.16      50.895745      50.895745      50.895745      0.85559144     324.78307      94.091922     -272.45761    
     87000   174000         302.91118      174.31994      4772.6466      4437.1913      4369.2332      67.958109      1476.5611      1465.4954      2790.7966      0             -5664.8951      0              0             -188.93836      131950.7       50.910094      50.910094      50.910094      0.85486818     241.66635     -411.78035      693.07382    
     88000   176000         299.79103      43.427087      4496.751       4413.0658      4324.2278      88.837998      1466.1601      1495.6179      2778.3442      0             -5651.2841      0              0             -188.67726      132133.3       50.933567      50.933567      50.933567      0.85368681     94.893422      173.59738     -138.20954    
     89000   178000         299.27766     -509.30866      3352.7938      4335.8745      4316.8228      19.051675      1462.029       1451.66        2748.7069      0             -5643.3442      0              0             -188.36475      132352.52      50.961719      50.961719      50.961719      0.85227284    -513.1936      -142.19983     -872.53254    
     90000   180000         298.32634      352.74652      4926.4756      4245.8649      4303.1008     -57.235935      1463.3425      1428.3249      2738.2474      0             -5687.1507      0              0             -188.43938      132300.11      50.954991      50.954991      50.954991      0.85261047    -7.6914462      981.80528      84.125718    
     91000   182000         300.47515     -148.66851      4122.7441      4411.6181      4334.0955      77.522572      1481.5103      1466.4978      2769.8925      0             -5640.378       0              0             -187.11916      133233.55      51.074548      51.074548      51.074548      0.84663702    -740.21618      30.450057      263.76059    
     92000   184000         305.69409      50.247763      4567.6909      4471.3227      4409.3743      61.9484        1481.339       1524.0013      2766.081       0             -5709.4729      0              0             -189.57917      131504.68      50.852668      50.852668      50.852668      0.85776758     217.78911      308.20499     -375.25081    
     93000   186000         292.41618     -17.250734      4172.4112      4205.5445      4217.8519     -12.30739       1454.7089      1456.8209      2758.0542      0             -5681.8914      0              0             -189.29992      131698.68      50.877661      50.877661      50.877661      0.85650409     267.26255     -191.82587     -127.18888    
     94000   188000         301.72246      53.251497      4429.7076      4327.3577      4352.0869     -24.729249      1437.426       1488.4662      2734.3473      0             -5684.9687      0              0             -189.16996      131789.16      50.88931       50.88931       50.88931       0.85591605     140.62921     -365.00062      384.1259     
     95000   190000         296.29975      96.339835      4375.9955      4189.8817      4273.869      -83.987354      1442.3743      1418.0982      2711.5065      0             -5655.9663      0              0             -188.20668      132463.68      50.975983      50.975983      50.975983      0.8515576      287.67412     -69.557556      70.902938    
     96000   192000         296.73346      566.10797      5338.18        4250.1313      4280.1249     -29.993594      1423.2139      1511.6738      2695.7547      0             -5660.636       0              0             -189.1728       131787.18      50.889055      50.889055      50.889055      0.8559289      381.60654      866.4635       450.25387    
     97000   194000         300.73485     -424.11112      3469.0392      4288.5089      4337.8415     -49.332614      1431.687       1423.2872      2738.1403      0             -5642.4472      0              0             -188.17177      132488.25      50.979135      50.979135      50.979135      0.85139967    -709.13727      432.79729     -995.99339    
     98000   196000         310.55491     -604.51173      3287.4301      4444.8028      4479.4874     -34.684555      1412.0952      1507.0766      2728.6555      0             -5682.5119      0              0             -189.90624      131278.2       50.823457      50.823457      50.823457      0.85924744    -1002.7536      91.077906     -901.8595     
     99000   198000         297.12333      102.50757      4486.0435      4288.3242      4285.7485      2.5757826      1412.7352      1437.9628      2764.2424      0             -5612.3646      0              0             -188.50145      132256.54      50.949397      50.949397      50.949397      0.85289133     632.8451       473.92305     -799.24545    
    100000   200000         297.85827     -162.25687      3903.3405      4217.2896      4296.3493     -79.059639      1354.8319      1468.9571      2721.5791      0             -5624.4279      0              0             -187.91068      132672.34      51.002735      51.002735      51.002735      0.85021832    -223.3324       89.710513     -353.14872    
    101000   202000         298.44512     -479.3597       3445.3819      4370.0483      4304.8141      65.234212      1457.0554      1411.8802      2810.886       0             -5614.5874      0              0             -188.48822      132265.82      50.95059       50.95059       50.95059       0.85283146    -91.556847     -260.60877     -1085.9135    
    102000   204000         303.87959     -132.91528      4152.1189      4407.0644      4383.2016      23.862801      1447.6917      1473.624       2754.1491      0             -5651.602       0              0             -189.55497      131521.48      50.854832      50.854832      50.854832      0.85765807    -141.46689      190.53988     -447.81883    
    103000   206000         299.82869     -125.20166      4092.7521      4333.2474      4324.7709      8.476429       1438.7971      1456.2941      2795.1042      0             -5681.7189      0              0             -189.28288      131710.53      50.879188      50.879188      50.879188      0.85642699    -145.13708     -287.22863      56.760729    
    104000   208000         294.01676      807.89394      5807.234       4246.5904      4240.9388      5.6515685      1492.4382      1474.3343      2664.065       0             -5625.1859      0              0             -188.21679      132456.57      50.97507       50.97507       50.97507       0.85160334     1119.6792      658.22597      645.7766     
    105000   210000         301.80981      808.47759      5862.3363      4309.8131      4353.3469     -43.533835      1423.0414      1456.75        2723.7801      0             -5647.1053      0              0             -189.33793      131672.24      50.874257      50.874257      50.874257      0.85667603     1096.8967      1156.0779      172.45812    
    106000   212000         298.28723      175.26875      4599.0974      4260.0719      4302.5367     -42.464864      1388.2031      1492.6038      2716.4863      0             -5639.758       0              0             -187.96621      132633.14      50.997712      50.997712      50.997712      0.85046959    -219.99831      374.3376       371.46695    
    107000   214000         294.73946      304.91516      4892.1321      4304.0516      4251.3633      52.688396      1459.5225      1485.1894      2771.8334      0             -5663.8568      0              0             -188.51678      132245.78      50.948016      50.948016      50.948016      0.85296071     984.85311     -197.67917      127.57155    
    108000   216000         303.46863     -6.5064549      4384.0384      4396.5891      4377.274       19.315138      1451.1175      1446.4029      2763.6313      0             -5641.8365      0              0             -188.488        132265.98      50.950609      50.950609      50.950609      0.85283047    -168.64305     -636.15275      785.27643    
    109000   218000         297.03584     -290.20216      3687.5546      4246.283       4284.4865     -38.203495      1449.8109      1434.2387      2743.0649      0             -5665.318       0              0             -188.84593      132015.28      50.918399      50.918399      50.918399      0.85444997    -324.55773      328.24518     -874.29394    
    110000   220000         299.85566      199.08431      4728.6153      4346.2886      4325.16        21.128633      1452.1976      1504.5895      2765.6009      0             -5701.2594      0              0             -189.32596      131680.57      50.875329      50.875329      50.875329      0.85662187     418.17332      85.171855      93.907764    
    111000   222000         300.90737     -258.72553      3885.4981      4383.317       4340.33        42.986989      1439.2715      1493.9198      2778.2574      0             -5668.4617      0              0             -188.9625       131933.85      50.907927      50.907927      50.907927      0.85497738     63.170025      9.0078083     -848.35443    
    112000   224000         297.39965      43.017242      4322.4421      4239.4614      4289.7342     -50.272762      1409.5663      1448.3758      2745.8152      0             -5654.03        0              0             -188.48351      132269.13      50.951014      50.951014      50.951014      0.85281014    -596.17168      852.54469     -127.32127    
    113000   226000         303.49241     -94.786059      4178.7366      4360.6065      4377.617      -17.010476      1389.6321      1477.8741      2782.8304      0             -5667.3471      0              0             -189.4922       131565.04      50.860447      50.860447      50.860447      0.85737407    -321.40963      524.02643     -486.97497    
    114000   228000         298.73586      295.96376      5054.6232      4480.5458      4309.0078      171.53803      1492.4489      1494.9459      2810.8436      0             -5626.7004      0              0             -187.44588      133001.32      51.044856      51.044856      51.044856      0.84811531     926.07477     -393.90683      355.72336    
    115000   230000         306.33086     -39.197802      4315.5953      4391.2142      4418.5591     -27.344852      1423.7584      1460.8396      2701.7426      0             -5613.6854      0              0             -188.4685       132279.66      50.952366      50.952366      50.952366      0.85274224     19.245405      16.748515     -153.58733    
    116000   232000         298.16874     -117.93384      4093.9453      4322.1638      4300.8276      21.336202      1438.9414      1429.2979      2762.0139      0             -5608.9171      0              0             -187.88636      132689.51      51.004935      51.004935      51.004935      0.85010832     313.44165     -397.95812     -269.28505    
    117000   234000         299.24826      49.643391      4488.595       4393.0681      4316.3987      76.669406      1459.1988      1486.881       2801.4064      0             -5670.8168      0              0             -188.94861      131943.54      50.909174      50.909174      50.909174      0.85491455     48.775793      133.52066     -33.366274    
    118000   236000         303.66531      151.18699      4730.1501      4438.6844      4380.1109      58.573508      1473.3804      1452.2815      2781.6438      0             -5648.7321      0              0             -188.59702      132189.52      50.94079       50.94079       50.94079       0.85332372     211.38569     -44.424634      286.59991    
    119000   238000         297.90624     -253.50214      3742.1761      4227.6919      4297.0412     -69.349346      1422.7068      1419.6721      2764.2031      0             -5675.9314      0              0             -189.83925      131324.52      50.829434      50.829434      50.829434      0.85894434    -492.36369     -94.734879     -173.40784    
    120000   240000         299.74432     -602.51196      3097.7843      4260.6006      4323.554      -62.953396      1431.089       1441.4691      2692.5041      0             -5628.0155      0              0             -188.39194      132333.42      50.959268      50.959268      50.959268      0.85239583    -330.03995     -82.627446     -1394.8685    
    121000   242000         295.93787     -482.29423      3354.1004      4282.8881      4268.6492      14.238974      1478.4551      1397.0675      2787.3875      0             -5648.6711      0              0             -188.80057      132047         50.922476      50.922476      50.922476      0.85424474    -766.19623     -148.99705     -531.68942    
    122000   244000         298.92613     -266.09693      3763.071       4275.2148      4311.7524     -36.537512      1446.1731      1453.719       2707.1307      0             -5643.5603      0              0             -188.91032      131970.29      50.912613      50.912613      50.912613      0.85474129    -53.169994     -254.22504     -490.89576    
    123000   246000         292.49365     -182.45674      3915.8547      4268.6921      4218.9693      49.722797      1473.41        1455.0614      2760.6963      0             -5639.4449      0              0             -188.01521      132598.58      50.993281      50.993281      50.993281      0.85069127    -14.438733     -864.32124      331.38976    
    124000   248000         300.76002      485.12034      5237.808       4299.7731      4338.2046     -38.43145       1428.3546      1426.9242      2724.2718      0             -5617.982       0              0             -188.03481      132584.75      50.991509      50.991509      50.991509      0.85077999     692.11882      282.82627      480.41592    
    125000   250000         299.89573     -236.92505      3816.7104      4275.3553      4325.738      -50.382683      1437.5576      1393.8176      2750.621       0             -5632.3789      0              0             -187.82011      132736.31      51.010931      51.010931      51.010931      0.84980856    -1036.1879      369.27733     -43.864569    
    126000   252000         304.00538      299.1614       4985.4863      4410.5251      4385.0162      25.508985      1447.8325      1486.0941      2740.2162      0             -5648.6338      0              0             -189.17981      131782.3       50.888427      50.888427      50.888427      0.85596062     347.66439      491.77197      58.04786     
    127000   254000         296.54636      132.43581      4440.0523      4186.2748      4277.4262     -91.151326      1449.0277      1441.166       2704.118       0             -5685.4631      0              0             -189.74051      131392.87      50.838251      50.838251      50.838251      0.85849755    -23.624411      159.74865      261.18319    
    128000   256000         306.3592       167.62907      4705.1592      4381.8144      4418.968      -37.153568      1436.5484      1456.8397      2703.239       0             -5633.7807      0              0             -188.49128      132263.67      50.950314      50.950314      50.950314      0.85284532     471.0772      -33.88189       65.691911    
    129000   258000         304.8551      -50.978298      4355.6518      4454.0497      4397.2726      56.777138      1449.3757      1449.0396      2766.6729      0             -5608.3111      0              0             -188.36805      132350.2       50.961422      50.961422      50.961422      0.85228773     369.20589      87.709083     -609.84986    
    130000   260000         300.25297     -350.85202      3728.7887      4411.7325      4330.8909      80.84159       1514.3497      1409.6374      2784.7326      0             -5627.878       0              0             -186.78706      133470.43      51.1048        51.1048        51.1048        0.8451344     -437.3417      -203.10757     -412.10679    
    131000   262000         298.9268      -172.08837      3971.7211      4304.274       4311.762      -7.4880208      1503.7944      1423.1078      2720.6267      0             -5655.0169      0              0             -188.14752      132505.33      50.981325      50.981325      50.981325      0.85128992    -246.18272      323.88492     -593.96733    
    132000   264000         301.7009      -164.60886      3950.6993      4266.559       4351.776      -85.216935      1432.7584      1380.6359      2773.4404      0             -5672.0516      0              0             -189.48145      131572.51      50.861409      50.861409      50.861409      0.85732542    -30.766375     -43.721102     -419.3391     
    133000   266000         304.22928      71.114099      4535.9698      4400.6597      4388.2457      12.414042      1475.2349      1428.2816      2804.6685      0             -5695.7709      0              0             -191.08795      130466.36      50.718474      50.718474      50.718474      0.86459419    -290.43701      62.391095      441.38822    
    134000   268000         302.33993     -137.01342      4017.0163      4279.9848      4360.9934     -81.008594      1458.2138      1457.3314      2682.192       0             -5678.7459      0              0             -189.43803      131602.66      50.865294      50.865294      50.865294      0.85712897    -275.65482     -614.27426      478.88882    
    135000   270000         297.43276     -137.65665      3882.969       4148.3932      4290.2118     -141.81857      1444.1914      1416.7626      2665.2255      0             -5667.998       0              0             -188.56643      132210.96      50.943544      50.943544      50.943544      0.85318534     206.62604     -173.13866     -446.45733    
    136000   272000         307.125        63.595659      4562.2976      4439.7389      4430.014       9.7249128      1468.784       1469.0783      2732.5788      0             -5660.7161      0              0             -188.6648       132142.03      50.934689      50.934689      50.934689      0.85363041     36.358204      50.034458      104.39432    
    137000   274000         306.54705      111.9302       4569.9037      4353.98        4421.6775     -67.697486      1443.5376      1467.3335      2692.2901      0             -5670.8587      0              0             -188.47547      132274.77      50.951738      50.951738      50.951738      0.85277377     368.27414      78.700003     -111.18354    
    138000   276000         297.69849     -526.21532      3350.6233      4367.2362      4294.0447      73.19153       1470.3327      1455.115       2787.4827      0             -5639.7389      0              0             -188.19826      132469.61      50.976743      50.976743      50.976743      0.85151951    -434.10727     -586.12485     -558.41383    
    139000   278000         294.45556     -140.9301       4087.3495      4358.5121      4247.2681      111.24396      1458.0348      1435.7419      2842.8257      0             -5625.3585      0              0             -188.96515      131932         50.907688      50.907688      50.907688      0.85498938    -384.83903     -61.249036      23.297755    
    140000   280000         301.01048      84.820193      4599.8742      4437.6634      4341.8172      95.846163      1510.6059      1459.3931      2776.1927      0             -5650.3456      0              0             -190.11974      131130.78      50.804426      50.804426      50.804426      0.86021342     406.71034     -1257.7612      1105.5114    
    141000   282000         302.61045      662.63452      5625.5279      4353.192       4364.8955     -11.703524      1445.71        1434.2463      2769.932       0             -5661.5918      0              0             -189.35641      131659.39      50.872602      50.872602      50.872602      0.85675964     1108.5125     -4.1256861      883.5167     
    142000   284000         300.51111     -228.02429      3948.1574      4387.8296      4334.6143      53.215281      1424.0817      1479.4952      2778.1782      0             -5628.5398      0              0             -188.56445      132212.35      50.943723      50.943723      50.943723      0.85317637    -383.40201      54.866005     -355.53687    
    143000   286000         305.10596      426.05496      5261.2197      4443.2882      4400.8911      42.39711       1408.0788      1487.1063      2815.2965      0             -5668.0845      0              0             -189.38973      131636.23      50.869618      50.869618      50.869618      0.85691042     419.83585      722.28679      136.04224    
    144000   288000         301.64296      131.79047      4663.0882      4409.1797      4350.9402      58.239506      1457.7811      1436.6627      2809.5862      0             -5645.7905      0              0             -188.71847      132104.45      50.92986       50.92986       50.92986       0.85387327    -246.93443      250.78951      391.51634    
    145000   290000         304.80228     -833.8695       2748.9354      4350.7929      4396.5107     -45.717874      1444.4406      1400.6912      2759.2572      0             -5650.1069      0              0             -189.27008      131719.44      50.880335      50.880335      50.880335      0.85636906    -807.70933     -883.69051     -810.20865    
    146000   292000         296.51838      221.45149      4852.6614      4427.6665      4277.0226      150.6439       1477.1576      1499.9426      2805.6227      0             -5632.079       0              0             -189.45349      131591.92      50.86391       50.86391       50.86391       0.85719893     295.66835     -86.297039      454.98317    
    147000   294000         296.10587     -407.52632      3599.7575      4385.3185      4271.0724      114.24604      1452.625       1461.7207      2809.898       0             -5609.9977      0              0             -188.61817      132174.7       50.938886      50.938886      50.938886      0.85341943    -94.862757     -212.59824     -915.11795    
    148000   296000         301.16277     -201.82984      3913.5481      4302.6447      4344.0139     -41.369204      1422.6366      1449.8412      2748.6833      0             -5662.5303      0              0             -188.59741      132189.25      50.940755      50.940755      50.940755      0.85332549    -464.40297     -375.04447      233.95793    
    149000   298000         301.56644     -80.833693      4336.9342      4493.1169      4349.8364      143.28047      1480.3043      1432.3358      2845.5328      0             -5614.8925      0              0             -188.17733      132484.34      50.978633      50.978633      50.978633      0.85142482     403.64414     -357.55196     -288.59326    
    150000   300000         300.01045      630.88793      5640.2647      4431.0275      4327.3927      103.63486      1485.6336      1456.3713      2782.3603      0             -5620.7303      0              0             -189.69177      131426.63      50.842605      50.842605      50.842605      0.85827701     120.55909      722.09182      1050.0129    
    151000   302000         301.18866      66.030722      4554.37        4427.0853      4344.3873      82.698001      1472.6186      1437.5395      2799.5288      0             -5626.9888      0              0             -188.61569      132176.44      50.939109      50.939109      50.939109      0.85340819     96.898637      493.16891     -391.97538    
    152000   304000         299.42108     -230.2223       3939.3041      4384.2169      4318.8916      65.325301      1448.4233      1436.4333      2785.7992      0             -5605.3305      0              0             -188.13961      132510.9       50.982039      50.982039      50.982039      0.85125414    -71.458547     -568.68652     -50.521839    
    153000   306000         297.95002      469.47185      5286.9762      4384.4657      4297.6727      86.792928      1465.4897      1448.9429      2806.0928      0             -5633.7326      0              0             -189.13201      131815.6       50.892713      50.892713      50.892713      0.85574433     736.23446     -41.064677      713.24575    
    154000   308000         295.37082      842.02657      6005.9946      4388.3986      4260.47        127.92856      1503.4359      1457.6568      2844.6947      0             -5677.8588      0              0             -189.26202      131725.05      50.881057      50.881057      50.881057      0.8563326      844.28908      826.48042      855.31021    
    155000   310000         298.45672      436.22375      5085.7328      4246.3042      4304.9814     -58.67722       1400.5639      1433.7585      2770.7944      0             -5663.7941      0              0             -188.94408      131946.71      50.909581      50.909581      50.909581      0.85489404     768.99701      271.47334      268.20091    
    156000   312000         300.76391     -832.68549      2785.1263      4386.5106      4338.2607      48.249947      1454.7361      1445.8079      2803.7178      0             -5656.0118      0              0             -189.05717      131867.78      50.899428      50.899428      50.899428      0.85540572    -537.22813     -1051.7252     -909.10315    
    157000   314000         299.84814     -63.957241      4316.5321      4438.8056      4325.0515      113.75405      1458.2859      1500.4659      2825.5998      0             -5670.5975      0              0             -190.1802       131089.09      50.799041      50.799041      50.799041      0.86048698    -154.81529      127.39411     -164.45055    
    158000   316000         298.29422      377.38914      5108.0076      4384.4782      4302.6375      81.840689      1458.0199      1484.9102      2811.0358      0             -5672.1253      0              0             -189.64482      131459.16      50.846799      50.846799      50.846799      0.85806462     299.58229     -63.491121      896.07625    
    159000   318000         304.6636      -545.74819      3435.3253      4494.7695      4394.5103      100.25912      1464.0912      1458.2562      2793.9413      0             -5616.0295      0              0             -187.29319      133109.75      51.058724      51.058724      51.058724      0.84742444    -572.27625     -995.94156     -69.026761    
    160000   320000         300.35564     -194.84719      3966.1843      4341.32        4332.3718      8.9482284      1467.6618      1421.0262      2769.2899      0             -5649.0298      0              0             -188.84848      132013.5       50.91817       50.91817       50.91817       0.85446149    -11.786238     -350.31463     -222.4407     
    161000   322000         298.9471      -761.56826      2880.4883      4346.8871      4312.0547      34.832348      1413.8481      1467.7969      2797.4198      0             -5644.2324      0              0             -188.82718      132028.4       50.920085      50.920085      50.920085      0.85436511    -208.42632     -1428.8221     -647.45638    
    162000   324000         300.20115     -671.01925      3045.6408      4337.522       4330.1434      7.3786082      1444.54        1475.9269      2722.6328      0             -5635.721       0              0             -188.85138      132011.48      50.917909      50.917909      50.917909      0.85447461    -993.95992     -427.40119     -591.69665    
    163000   326000         297.59366      237.08268      4710.2055      4254.8971      4292.5326     -37.635479      1443.8368      1477.3463      2729.8446      0             -5688.6632      0              0             -189.32234      131683.08      50.875652      50.875652      50.875652      0.85660554     369.35496     -308.5008       650.39388    
    164000   328000         295.97049     -31.805915      4146.2477      4206.911       4269.1197     -62.208714      1405.9194      1434.505       2790.9051      0             -5693.5382      0              0             -190.62947      130780.14      50.759103      50.759103      50.759103      0.86251974     222.93015      263.84511     -582.19301    
    165000   330000         303.7905      -584.3439       3268.5697      4391.9526      4381.9167      10.035941      1456.2841      1430.1276      2794.3503      0             -5670.7261      0              0             -189.12478      131820.64      50.893362      50.893362      50.893362      0.85571164    -704.65949     -516.87827     -531.49395    
    166000   332000         297.85047     -195.83703      3924.1057      4300.4182      4296.2369      4.1813638      1415.325       1481.2452      2781.2638      0             -5673.6526      0              0             -189.21425      131758.31      50.885339      50.885339      50.885339      0.85611643    -62.098421     -175.37176     -350.04092    
    167000   334000         307.55076     -320.31812      3856.0532      4470.1175      4436.1552      33.962295      1478.9681      1457.5021      2794.9635      0             -5697.4714      0              0             -189.65987      131448.73      50.845454      50.845454      50.845454      0.85813271    -36.715422     -426.57918     -497.65975    
    168000   336000         299.9418      -116.46891      4125.3212      4348.4         4326.4024      21.997544      1463.4293      1479.0275      2781.7759      0             -5702.2352      0              0             -189.82767      131332.54      50.830468      50.830468      50.830468      0.85889193    -295.04925      249.23436     -303.59186    
    169000   338000         300.06808      57.504118      4430.4723      4320.2378      4328.2239     -7.9861326      1473.8727      1415.2604      2771.6947      0             -5668.8139      0              0             -189.66583      131444.6       50.844922      50.844922      50.844922      0.85815966     469.88245     -388.58914      91.219042    
    170000   340000         296.15782     -0.34194296     4243.0536      4243.7092      4271.8218     -28.112589      1460.6347      1409.3583      2800.3152      0             -5698.4208      0              0             -189.6477       131457.17      50.846542      50.846542      50.846542      0.85807763     181.60418     -197.41394      14.783936    
    171000   342000         302.09013      293.53831      4915.5931      4355.3015      4357.3903     -2.0888247      1471.9562      1455.2221      2762.9336      0             -5692.2008      0              0             -190.48394      130880.06      50.772026      50.772026      50.772026      0.86186129     286.97977      612.05194     -18.416777    
    172000   344000         299.0062      -581.32717      3195.3004      4308.1456      4312.9072     -4.7616181      1464.4505      1454.8332      2772.0971      0             -5696.1424      0              0             -189.93         131261.78      50.821338      50.821338      50.821338      0.85935494    -699.87202     -441.25539     -602.85408    
    173000   346000         302.85682     -101.15706      4051.5644      4247.2991      4368.4491     -121.14999      1424.4802      1397.2177      2720.8565      0             -5663.7044      0              0             -187.90406      132677.02      51.003334      51.003334      51.003334      0.85018836    -284.5351      -375.53852      356.60245    
    174000   348000         300.76863     -284.66107      3681.4811      4227.834       4338.3287     -110.49475      1455.0834      1405.6929      2729.7696      0             -5701.0407      0              0             -189.43604      131604.05      50.865472      50.865472      50.865472      0.85711997    -79.170508     -180.3         -594.51271    
    175000   350000         304.28122     -6.4904498      4368.6534      4381.0821      4388.9949     -7.9128435      1425.0841      1534.3376      2717.2415      0             -5684.576       0              0             -189.87086      131302.66      50.826614      50.826614      50.826614      0.85908736    -426.04685      272.38556      134.18994    
    176000   352000         301.87082     -338.6954       3571.3776      4221.9745      4354.2269     -132.25241      1441.9478      1415.0869      2678.3546      0             -5667.6417      0              0             -189.28013      131712.45      50.879434      50.879434      50.879434      0.85641453     46.387998     -492.64138     -569.83283    
    177000   354000         293.1769      -421.99859      3481.8547      4298.9337      4228.8246      70.109148      1497.5448      1476.3496      2750.9361      0             -5654.7214      0              0             -187.78231      132763.03      51.014354      51.014354      51.014354      0.84963752    -532.52568     -609.39673     -124.07336    
    178000   356000         296.73849      536.15052      5288.9941      4257.8201      4280.1974     -22.377387      1489.0227      1466.5515      2717.8089      0             -5695.7605      0              0             -189.04383      131877.09      50.900625      50.900625      50.900625      0.85534536     946.44793      176.37814      485.62548    
    179000   358000         296.65008      616.67648      5346.4859      4167.462       4278.9223     -111.46031      1439.0103      1454.4461      2689.4008      0             -5694.3175      0              0             -190.17021      131095.98      50.799931      50.799931      50.799931      0.86044178     1212.3216      640.17651     -2.4686359    
    180000   360000         303.78         115.72239      4663.2467      4441.2533      4381.7652      59.48808       1505.9396      1479.6388      2768.6205      0             -5694.7108      0              0             -189.53312      131536.64      50.856787      50.856787      50.856787      0.85755919     190.99355     -23.587195      179.76081    
    181000   362000         301.13698      59.548151      4397.847       4282.764       4343.6419     -60.877855      1461.7354      1452.5214      2666.8382      0             -5641.9728      0              0             -188.1329       132515.63      50.982646      50.982646      50.982646      0.85122377    -576.40805      442.00331      313.04919    
    182000   364000         301.47747      118.22921      4479.1121      4251.7446      4348.5531     -96.80852       1433.6012      1482.7824      2668.8896      0             -5682.0817      0              0             -189.06195      131864.44      50.898998      50.898998      50.898998      0.85542737    -178.98643      192.91032      340.76376    
    183000   366000         299.44188     -39.982238      4058.5193      4135.1669      4319.1915     -184.02458      1428.4377      1422.579       2654.4215      0             -5689.4628      0              0             -189.66018      131448.51      50.845426      50.845426      50.845426      0.85813412     431.74598      66.596059     -618.28876    
    184000   368000         309.17047     -292.98413      3822.3847      4386.9836      4459.5181     -72.53451       1480.3177      1427.1089      2678.2325      0             -5658.1936      0              0             -188.67391      132135.65      50.933869      50.933869      50.933869      0.85367165     482.3225      -390.2051      -971.06978    
    185000   370000         298.41535      184.91363      4575.7766      4222.0335      4304.3847     -82.351256      1501.6829      1468.2743      2641.5378      0             -5693.8462      0              0             -190.05908      131172.63      50.80983       50.80983       50.80983       0.85993895     12.136596      312.4174       230.18689    
    186000   372000         295.5194       488.49209      5125.4155      4185.7842      4262.6131     -76.828929      1433.5897      1455.3178      2694.2709      0             -5660.0072      0              0             -189.02003      131893.69      50.902762      50.902762      50.902762      0.85523767     543.64435      824.40655      97.425362    
    187000   374000         298.83391      129.00166      4583.1697      4333.5862      4310.4221      23.164061      1477.9102      1446.3298      2745.394       0             -5646.4699      0              0             -187.92612      132661.44      51.001338      51.001338      51.001338      0.8502882      172.59055      126.87896      87.535471    
    188000   376000         303.46227     -174.84204      3999.507       4334.9297      4377.1822     -42.252548      1534.7343      1398.8983      2716.0047      0             -5691.8899      0              0             -189.52265      131543.9       50.857722      50.857722      50.857722      0.85751186    -376.30398     -70.974154     -77.247999    
    189000   378000         300.77146      243.72714      4831.6187      4364.9805      4338.3696      26.610827      1522.0891      1458.1131      2702.4917      0             -5656.083       0              0             -189.90277      131280.6       50.823767      50.823767      50.823767      0.85923171     200.65815      543.1332      -12.609921    
    190000   380000         300.5023      -95.865772      4114.1945      4298.7912      4334.4871     -35.695933      1450.7262      1507.2983      2671.7281      0             -5665.4485      0              0             -188.81972      132033.61      50.920755      50.920755      50.920755      0.85433137     612.35762     -332.47404     -567.4809     
    191000   382000         294.54328      101.66996      4410.8673      4214.7677      4248.5334     -33.765693      1486.1863      1430.7558      2694.1387      0             -5644.8465      0              0             -188.50537      132253.79      50.949045      50.949045      50.949045      0.85290904    -185.74582      277.21811      213.53759    
    192000   384000         302.36309      190.05451      4727.9428      4364.8513      4361.3274      3.5238961      1504.4324      1472.8969      2733.4285      0             -5707.2339      0              0             -190.3136       130997.2       50.787169      50.787169      50.787169      0.86109056     284.02067      937.85517     -651.71231    
    193000   386000         300.86587     -127.64398      4028.5655      4273.2035      4339.7314     -66.527914      1478.702       1424.0919      2706.1676      0             -5675.4894      0              0             -189.70736      131415.83      50.841212      50.841212      50.841212      0.85834756    -431.56468      308.49767     -259.86494    
    194000   388000         300.24945     -327.63746      3594.7427      4228.2352      4330.8401     -102.60483      1427.9845      1391.3881      2740.6217      0             -5662.5992      0              0             -188.04415      132578.17      50.990665      50.990665      50.990665      0.85082222    -209.37813     -972.80071      199.26647    
    195000   390000         298.65817     -81.664809      4021.3121      4179.6585      4307.8872     -128.22878      1440.7919      1423.2029      2634.8493      0             -5627.0729      0              0             -187.51439      132952.73      51.038639      51.038639      51.038639      0.84842527     183.84472     -141.58501     -287.25414    
    196000   392000         298.96739      409.49209      5022.4031      4236.0967      4312.3474     -76.250663      1457.235       1423.4795      2680.3784      0             -5637.3436      0              0             -189.34831      131665.02      50.873327      50.873327      50.873327      0.85672303    -0.21552806     735.12716      493.56463    
    197000   394000         300.76114     -159.07295      3884.2569      4190.0956      4338.2207     -148.12507      1423.0462      1487.5497      2614.3401      0             -5673.0611      0              0             -189.10873      131831.83      50.894802      50.894802      50.894802      0.85563901    -572.02038     -152.69665      247.49818    
    198000   396000         298.72698     -87.202781      4078.8434      4246.936       4308.8798     -61.943806      1456.9061      1458.5811      2659.8625      0             -5637.2936      0              0             -188.62083      132172.83      50.938646      50.938646      50.938646      0.85343149     68.936546      632.22096     -962.76585    
    199000   398000         300.25097      43.041493      4402.9879      4320.0471      4330.862      -10.814934      1486.8782      1464.2242      2662.8464      0             -5624.7637      0              0             -188.68044      132131.07      50.933281      50.933281      50.933281      0.8537012      28.81375      -200.34369      300.65442    
[...]
   4956000   9912000        297.32512      142.17393      4300.5788      4030.7881      4288.6591     -257.87096      1478.4565      1412.4909      2632.9069      0             -5781.7254      0              0             -191.60237      130116.08      50.673044      50.673044      50.673044      0.8669217      587.93833      73.074169     -234.49072    
   4957000   9914000        294.44866      722.32104      5431.5613      4053.1859      4247.1686     -193.98272      1440.6528      1439.4448      2646.3879      0             -5720.4682      0              0             -190.53313      130846.27      50.767657      50.767657      50.767657      0.86208383     855.09934      431.37627      880.48751    
   4958000   9916000        298.01424      272.09613      4709.5966      4191.9659      4298.5991     -106.63326      1477.6374      1490.496       2666.2471      0             -5741.0138      0              0             -191.12171      130443.31      50.715488      50.715488      50.715488      0.86474692     376.27137     -3.1666156      443.18365    
   4959000   9918000        299.36752     -460.14521      3279.8009      4160.1697      4318.119      -157.94931      1493.9507      1418.2753      2668.2213      0             -5738.3967      0              0             -190.03693      131187.92      50.811804      50.811804      50.811804      0.85983872    -490.426       -432.59559     -457.41405    
   4960000   9920000        294.33228     -154.45194      3833.1709      4129.8711      4245.49       -115.61886      1458.8467      1454.824       2678.0453      0             -5707.3348      0              0             -189.27067      131719.03      50.880282      50.880282      50.880282      0.85637174     34.953334     -250.32298     -247.98619    
   4961000   9922000        293.75932      7.0738259      4090.7447      4077.1236      4237.2255     -160.10187      1497.2891      1429.0669      2630.4743      0             -5716.9322      0              0             -188.82149      132032.37      50.920595      50.920595      50.920595      0.8543394     -243.26649      232.0555       32.432468    
   4962000   9924000        298.85141      140.94045      4500.8296      4230.9539      4310.6746     -79.720675      1470.2656      1485.1927      2688.7184      0             -5723.8973      0              0             -189.88015      131296.24      50.825785      50.825785      50.825785      0.85912938     264.95904     -290.551        448.41332    
   4963000   9926000        302.39166      29.626257      4267.8786      4211.2818      4361.7396     -150.4578       1464.9465      1475.1727      2649.9546      0             -5740.5316      0              0             -190.32366      130990.28      50.786275      50.786275      50.786275      0.86113606     325.30062      235.55064     -471.97249    
   4964000   9928000        295.2028       96.060569      4267.6858      4083.4785      4258.0464     -174.56797      1434.4303      1455.1738      2659.0118      0             -5723.1838      0              0             -189.60331      131487.94      50.85051       50.85051       50.85051       0.85787679     9.1186654      64.752224      214.31082    
   4965000   9930000        306.72502      345.3742       4949.557       4284.7587      4424.2446     -139.48593      1479.1043      1405.0329      2656.0177      0             -5679.6408      0              0             -188.88946      131984.87      50.914488      50.914488      50.914488      0.85464689     623.07707      68.971247      344.07429    
   4966000   9932000        305.16688     -37.659578      4243.1841      4315.7083      4401.7698     -86.061513      1490.1537      1417.7849      2690.4434      0             -5684.4435      0              0             -188.79922      132047.95      50.922598      50.922598      50.922598      0.85423861    -240.86165     -122.02978      249.9127     
   4967000   9934000        293.32584     -146.05308      3822.9855      4103.2255      4230.9729     -127.74738      1472.1812      1405.3531      2672.0604      0             -5677.342       0              0             -189.49092      131565.93      50.860561      50.860561      50.860561      0.85736828    -390.11393     -132.23847      84.19316     
   4968000   9936000        295.48896     -129.12939      3834.1063      4082.9494      4262.174      -179.22463      1456.1132      1380.3153      2696.1259      0             -5711.7789      0              0             -188.67187      132137.08      50.934052      50.934052      50.934052      0.85366242     163.81483     -193.83651     -357.36648    
   4969000   9938000        300.22906      137.28132      4384.6523      4120.7366      4330.5459     -209.8093       1433.1726      1467.002       2589.9253      0             -5699.9092      0              0             -189.12718      131818.97      50.893147      50.893147      50.893147      0.85572248     583.10364     -137.96197     -33.297702    
   4970000   9940000        297.95406      318.07211      4743.8934      4134.7998      4297.7311     -162.9313       1450.8556      1443.0776      2671.1497      0             -5728.0142      0              0             -189.86691      131305.4       50.826967      50.826967      50.826967      0.85906946    -117.3983       605.28822      466.3264     
   4971000   9942000        302.2887      -9.2284227      4157.1861      4174.9387      4360.2544     -185.31579      1462.3101      1442.5897      2616.5754      0             -5706.791       0              0             -189.00553      131903.81      50.904062      50.904062      50.904062      0.8551721     -152.63315      570.39706     -445.44918    
   4972000   9944000        291.65944     -362.19081      3327.7934      4021.6654      4206.9365     -185.2711       1462.6189      1437.7591      2617.5418      0             -5703.1909      0              0             -189.78672      131360.88      50.834124      50.834124      50.834124      0.85870663    -241.617       -1063.9811      219.02564    
   4973000   9946000        301.65459      192.13091      4555.0344      4187.233       4351.1081     -163.8751       1480.0626      1463.7405      2626.0428      0             -5733.721       0              0             -189.9291       131262.4       50.821419      50.821419      50.821419      0.85935084     157.24259     -52.387988      471.53813    
   4974000   9948000        294.00008      231.27793      4437.675       3998.399       4240.6983     -242.29932      1481.0162      1426.8785      2619.3279      0             -5769.522       0              0             -191.42756      130234.9       50.688464      50.688464      50.688464      0.86613077    -127.33362      691.19216      129.97526    
   4975000   9950000        302.83447      287.8226       4769.3002      4218.526       4368.1268     -149.60079      1490.357       1485.8807      2580.3687      0             -5706.2072      0              0             -190.0024       131211.76      50.814882      50.814882      50.814882      0.85968248     153.83724      336.32804      373.30253    
   4976000   9952000        293.33716      98.699133      4109.5633      3921.065       4231.1363     -310.0712       1437.7011      1447.7204      2570.5914      0             -5766.084       0              0             -190.37672      130953.77      50.781556      50.781556      50.781556      0.86137615     19.482814      60.852841      215.76174    
   4977000   9954000        298.31285     -285.21691      3582.1899      4127.9997      4302.9062     -174.90658      1510.8143      1477.5976      2600.7501      0             -5764.0686      0              0             -189.9948       131217.01      50.815559      50.815559      50.815559      0.85964814     108.31953     -520.26091     -443.70936    
   4978000   9956000        300.13695     -494.19883      3124.0346      4063.7678      4329.2173     -265.44955      1481.8877      1422.458       2593.6257      0             -5763.421       0              0             -191.20749      130384.79      50.707903      50.707903      50.707903      0.86513505    -314.07922     -377.00771     -791.50955    
   4979000   9958000        300.39987      624.85034      5317.6066      4129.053       4333.0098     -203.95673      1491.8487      1447.4646      2630.0394      0             -5773.3094      0              0             -191.1459       130426.8       50.713348      50.713348      50.713348      0.86485639     1128.1344      243.76151      502.65509    
   4980000   9960000        298.92331      76.477627      4315.4965      4169.1676      4311.7117     -142.5441       1481.7963      1444.8746      2664.6194      0             -5733.8344      0              0             -190.02551      131195.81      50.812822      50.812822      50.812822      0.85978705     82.532559      441.69727     -294.79695    
   4981000   9962000        298.8323      -527.82429      3069.7587      4078.8167      4310.3989     -231.58211      1460.1365      1433.5028      2618.4348      0             -5743.6561      0              0             -190.18706      131084.36      50.798431      50.798431      50.798431      0.860518      -926.20361     -440.83076     -216.4385     
   4982000   9964000        304.78398     -27.212863      4326.0439      4378.2678      4396.2468     -17.979032      1554.7833      1467.1053      2664.3066      0             -5704.1742      0              0             -189.45808      131588.73      50.863499      50.863499      50.863499      0.8572197      93.339524      221.10658     -396.08469    
   4983000   9966000        297.67526      186.588        4474.0597      4116.2485      4293.7095     -177.46098      1485.6618      1416.5629      2615.8411      0             -5695.5268      0              0             -189.59967      131490.47      50.850835      50.850835      50.850835      0.85786032     686.6245       122.10593     -248.96644    
   4984000   9968000        298.75156     -177.33223      3844.5413      4183.285       4309.2343     -125.94929      1521.0627      1428.9241      2635.4456      0             -5711.3816      0              0             -190.33742      130980.81      50.785051      50.785051      50.785051      0.86119833     58.446582     -692.04367      101.60041    
   4985000   9970000        303.26011     -345.82389      3492.433       4154.6486      4374.2663     -219.61767      1517.3789      1392.0113      2599.509       0             -5728.5169      0              0             -189.87306      131301.14      50.826417      50.826417      50.826417      0.85909731    -438.51356     -12.037094     -586.92102    
   4986000   9972000        298.83341     -137.06047      3963.3625      4226.5205      4310.4149     -83.894425      1523.2102      1441.4598      2640.3536      0             -5688.918       0              0             -189.36666      131652.27      50.871684      50.871684      50.871684      0.85680604    -145.01867      13.642118     -279.80486    
   4987000   9974000        301.56466     -155.45524      3918.1594      4216.9265      4349.8108     -132.88435      1478.3907      1427.4419      2664.1845      0             -5702.9014      0              0             -189.18226      131780.59      50.888207      50.888207      50.888207      0.85597169    -192.16204      142.73301     -416.93669    
   4988000   9976000        295.12486     -14.018639      4094.3717      4121.1776      4256.9223     -135.74471      1482.5821      1446.9676      2618.6287      0             -5683.9231      0              0             -190.14476      131113.53      50.802198      50.802198      50.802198      0.86032661    -156.73865     -15.729915      130.41265    
   4989000   9978000        294.98034      5.9759574      4102.8882      4091.4096      4254.8376     -163.42803      1477.6015      1438.2074      2612.5387      0             -5691.7756      0              0             -189.28921      131706.13      50.878621      50.878621      50.878621      0.85645561     167.4103       167.31402     -316.79645    
   4990000   9980000        298.6935      -227.37839      3797.7678      4235.0742      4308.3969     -73.322692      1511.1779      1432.5237      2667.5167      0             -5684.541       0              0             -189.04756      131874.48      50.90029       50.90029       50.90029       0.85536226    -363.80121      363.2643      -681.59826    
   4991000   9982000        297.54927     -158.4905       3841.7699      4146.5538      4291.8923     -145.33857      1483.8987      1468.0323      2607.3164      0             -5704.586       0              0             -189.06845      131859.91      50.898415      50.898415      50.898415      0.85545677     104.69424     -353.91945     -226.2463     
   4992000   9984000        298.14894      191.86264      4545.1759      4176.075       4300.5419     -124.46692      1473.1935      1422.9349      2661.748       0             -5682.3433      0              0             -188.99623      131910.3       50.904898      50.904898      50.904898      0.85512999    -366.98878      112.94283      829.63387    
   4993000   9986000        299.81027      426.61012      4985.1956      4172.019       4324.5053     -152.48626      1450.2144      1458.8928      2689.2626      0             -5750.8561      0              0             -190.74537      130700.68      50.74882       50.74882       50.74882       0.86304416     116.53725      942.13571      221.15742    
   4994000   9988000        292.8562      -54.904855      3987.5042      4092.4171      4224.1988     -131.78172      1494.8213      1420.7229      2684.0813      0             -5731.4072      0              0             -190.27847      131021.39      50.790295      50.790295      50.790295      0.86093162     266.9535      -772.59355      340.92548    
   4995000   9990000        300.43432     -147.61055      3904.2908      4186.106       4333.5066     -147.40064      1479.0432      1426.6152      2667.86        0             -5720.9191      0              0             -190.44115      130909.47      50.775828      50.775828      50.775828      0.86166768    -266.76925     -139.29642     -36.765987    
   4996000   9992000        295.17455     -177.01142      3799.2802      4138.7728      4257.6389     -118.86614      1515.7494      1445.5708      2644.8577      0             -5725.044       0              0             -189.57398      131508.29      50.853132      50.853132      50.853132      0.85774407    -1233.9245      431.84086      271.04936    
   4997000   9994000        297.60626      73.967096      4194.0327      4053.3623      4292.7143     -239.352        1421.11        1423.5257      2667.5265      0             -5751.5142      0              0             -191.18049      130403.21      50.71029       50.71029       50.71029       0.8650129     -172.45438      144.94521      249.41045    
   4998000   9996000        299.89281     -158.52785      3854.9647      4157.8462      4325.6958     -167.84963      1443.4379      1461.152       2666.3639      0             -5738.8034      0              0             -190.30076      131006.04      50.788312      50.788312      50.788312      0.86103245    -957.93065      447.1883       35.158809    
   4999000   9998000        296.32146     -255.93172      3755.6687      4245.8293      4274.1821     -28.352832      1516.7165      1493.3792      2661.8417      0             -5700.2902      0              0             -189.8425       131322.28      50.829145      50.829145      50.829145      0.85895902     548.44949     -839.28169     -476.96297    
   5000000   10000000       298.26697     -264.62133      3705.6834      4214.0436      4302.2445     -88.200891      1508.3994      1419.8859      2671.914       0             -5688.4002      0              0             -189.26095      131725.79      50.881153      50.881153      50.881153      0.85632777    -566.87622     -357.94248      130.95471    
Loop time of 43125.6 on 1 procs for 5000000 steps with 4840 atoms

Performance: 20.035 ns/day, 1.198 hours/ns, 115.940 timesteps/s, 561.152 katom-step/s
59.7% CPU use with 1 MPI tasks x 1 OpenMP threads

MPI task timing breakdown:
Section |  min time  |  avg time  |  max time  |%varavg| %total
---------------------------------------------------------------
Pair    | 3569.6     | 3569.6     | 3569.6     |   0.0 |  8.28
Bond    | 9406.6     | 9406.6     | 9406.6     |   0.0 | 21.81
Neigh   | 27168      | 27168      | 27168      |   0.0 | 63.00
Comm    | 1028.8     | 1028.8     | 1028.8     |   0.0 |  2.39
Output  | 141.56     | 141.56     | 141.56     |   0.0 |  0.33
Modify  | 1442.4     | 1442.4     | 1442.4     |   0.0 |  3.34
Other   |            | 368.8      |            |       |  0.86

Nlocal:           4840 ave        4840 max        4840 min
Histogram: 1 0 0 0 0 0 0 0 0 0
Nghost:          16073 ave       16073 max       16073 min
Histogram: 1 0 0 0 0 0 0 0 0 0
Neighs:              0 ave           0 max           0 min
Histogram: 1 0 0 0 0 0 0 0 0 0
FullNghs:  3.01828e+06 ave 3.01828e+06 max 3.01828e+06 min
Histogram: 1 0 0 0 0 0 0 0 0 0

Total # of neighbors = 3018284
Ave neighs/atom = 623.6124
Ave special neighs/atom = 5.9504132
Neighbor list builds = 135419
Dangerous builds = 0

# --- Cleanup ---
unfix npt_fix

undump dump_npt

# --- Write Output ---
write_dump all custom npt_production_last.dump id type mol x y z xu yu zu vx vy vz modify sort id
write_data /home/arz2/PolyJarvis/data/PE1/lammps/equil/npt_production/npt_production_out.data
System init for write_data ...
Generated 1 of 1 mixed pair_coeff terms from arithmetic mixing rule

print "STAGE COMPLETE: NPT T=300.0->300.0K P=1.0->1.0atm steps=5000000"
STAGE COMPLETE: NPT T=300.0->300.0K P=1.0->1.0atm steps=5000000
quit
---------------------------------------------------------
Data Transfer:   530.5643 s.
Neighbor copy:   1541.5603 s.
Neighbor unpack: 0.0000 s.
Force calc:      3482.9272 s.
Device Overhead: 116.3520 s.
CPU Cast/Pack:   756.2465 s.
CPU Driver_Time: 89.8665 s.
CPU Idle_Time:   354.7651 s.
Average split:   1.0000.
Max Mem / Proc:  16.73 MB.
Prefetch mode:   None.
Vector width:    32.
Lanes / atom:    4.
Pair block:      256.
Neigh block:     128.
Neigh mode:      Host.
---------------------------------------------------------------------


--------------------------------------------------------------------------
- Using acceleration for lj/cut:
-  with 1 proc(s) per device.
-  with 1 thread(s) per proc.
-  Horizontal vector operations: ENABLED
-  Shared memory system: No
--------------------------------------------------------------------------
Device 0: Quadro RTX 6000, 72 CUs, 22/24 GB, 1.8 GHZ (Mixed Precision)
--------------------------------------------------------------------------

Initializing Device and compiling on process 0...Done.
Initializing Device 0 on core 0...Done.

Generated 1 of 1 mixed pair_coeff terms from arithmetic mixing rule
STAGE COMPLETE: NPT T=300.0->300.0K P=1.0->1.0atm steps=5000000
Cuda driver error 4 in call at file '/home/arz2/lammps/lib/gpu/geryon/nvd_timer.h' in line 98.
Cuda driver error 4 in call at file '/home/arz2/lammps/lib/gpu/geryon/nvd_timer.h' in line 99.
Cuda driver error 4 in call at file '/home/arz2/lammps/lib/gpu/geryon/nvd_timer.h' in line 98.
Cuda driver error 4 in call at file '/home/arz2/lammps/lib/gpu/geryon/nvd_timer.h' in line 99.
Cuda driver error 4 in call at file '/home/arz2/lammps/lib/gpu/geryon/nvd_timer.h' in line 98.
Cuda driver error 4 in call at file '/home/arz2/lammps/lib/gpu/geryon/nvd_timer.h' in line 99.
