units real
atom_style full
boundary p p p

# --- Force Field Styles ---
pair_style lj/class2/coul/long 9.5 9.5
kspace_style pppm 1e-6
dielectric 1.000000
bond_style class2
angle_style class2
dihedral_style class2
improper_style class2
special_bonds lj/coul 0 0 1
pair_modify mix sixthpower tail yes
neighbor 2.0 bin
neigh_modify delay 0 every 1 check yes
neigh_modify one 4000
# KOKKOS: package loaded via -pk kokkos on the command line

read_data /home/alexzhao/PolyJarvis/data/PEG2/lammps/equil/npt_cool/npt_cool_out.data
Reading data file ...
  orthogonal box = (4.111258 4.111258 4.111258) to (45.209875 45.209875 45.209875)
  1 by 1 by 1 MPI processor grid
  reading atoms ...
  7020 atoms
  reading velocities ...
  7020 velocities
  scanning bonds ...
  4 = max bonds/atom
  scanning angles ...
  10 = max angles/atom
  scanning dihedrals ...
  16 = max dihedrals/atom
  scanning impropers ...
  7 = max impropers/atom
  orthogonal box = (4.111258 4.111258 4.111258) to (45.209875 45.209875 45.209875)
  1 by 1 by 1 MPI processor grid
  reading bonds ...
  7010 bonds
  reading angles ...
  13000 angles
  reading dihedrals ...
  14970 dihedrals
  reading impropers ...
  8000 impropers
Finding 1-2 1-3 1-4 neighbors ...
  special bond factors lj:    0        0        1       
  special bond factors coul:  0        0        1       
     4 = max # of 1-2 neighbors
     6 = max # of 1-3 neighbors
     8 = max # of special neighbors
  special bonds CPU = 0.004 seconds
  read_data CPU = 0.262 seconds
include /home/alexzhao/PolyJarvis/data/PEG2/lammps/equil/emc_build.params
# LAMMPS parameters created by EMC v9.4.4, build Jul 31 2025 20:33:44

# Variables

variable	seed		index	533381
variable	ntotal		index	7020
variable	fshape		index	1
variable	output		index	emc_build
variable	field		index	pcff/pcff
variable	location1	index	~/emc/field/
variable	nav		index	0.6022141179
variable	temperature	index	300
variable	radius		index	5
variable	nrelax		index	100
variable	weight_nonbond	index	0.0001
variable	weight_bond	index	0.0001
variable	weight_focus	index	1
variable	cutoff		index	9.5
variable	charge_cutoff	index	9.5
variable	kappa		index	4
variable	density1	index	0.61
variable	lprevious	index	0
variable	lphase		index	49.3211329242
variable	f_poly		index	10
variable	chem_repeat	index	*CCO*
variable	chem_cap	index	*[H]
variable	lg_repeat	index	7
variable	lg_cap		index	1
variable	norm_poly	index	100
variable	l_poly		index	702
variable	mg_repeat	index	16.04303
variable	mg_cap		index	0
variable	m_poly		index	1604.303
variable	n_poly		index	10
variable	mtotal		index	44073.7394
variable	nphase1		index	7020
variable	mphase1		index	44073.7394
variable	vphase1		index	119977.313144
variable	lbox		index	49.3211329242
variable	lphase1		index	49.3211329242
variable	lxx		index	49.3211329242
variable	lyy		index	49.3211329242
variable	lzz		index	49.3211329242
variable	lzy		index	0
variable	lzx		index	0
variable	lyx		index	0
variable	vtotal		index	119977.313144
variable	nl_poly		index	10

# Types

variable	type_c		index	1
variable	type_hc		index	2
variable	type_ho		index	3
variable	type_oc		index	4
variable	type_oh		index	5

variable	type_bond_c_c	index	1
variable	type_bond_c_hc	index	2
variable	type_bond_c_oc	index	3
variable	type_bond_c_oh	index	4
variable	type_bond_ho_oh	index	5

variable	type_angle_c_c_hc index	1
variable	type_angle_c_c_oc index	2
variable	type_angle_c_c_oh index	3
variable	type_angle_c_oc_c index	4
variable	type_angle_c_oh_ho index	5
variable	type_angle_hc_c_hc index	6
variable	type_angle_hc_c_oc index	7
variable	type_angle_hc_c_oh index	8

# Clusters

variable	n0_poly		index	1
variable	n1_poly		index	10
variable	nl_poly		index	10

# Flags

variable	flag_charged	index	1

# Masses

mass		1    12.01115  # c
mass		2     1.00797  # hc
mass		3     1.00797  # ho
mass		4    15.99940  # oc
mass		5    15.99940  # oh

# Potentials

pair_modify	mix sixthpower tail yes
special_bonds	lj/coul 0 0 1

# Pair Coeffs

pair_coeff	 1  1    0.05400    4.01000  # c,c
pair_coeff	 2  2    0.02000    2.99500  # hc,hc
pair_coeff	 3  3    0.01300    1.09800  # ho,ho
pair_coeff	 4  4    0.24000    3.53500  # oc,oc
pair_coeff	 5  5    0.24000    3.53500  # oh,oh

# Bond Coeffs

bond_coeff	1    1.53000  299.67000 -501.77000  679.81000  # c,c
bond_coeff	2    1.10100  345.00000 -691.89000  844.60000  # c,hc
bond_coeff	3    1.42000  400.39540 -835.19510 1313.01420  # c,oc
bond_coeff	4    1.42000  400.39540 -835.19510 1313.01420  # c,oh
bond_coeff	5    0.96500  532.50620 -1282.90500 2004.76580  # ho,oh

# Angle Coeffs

angle_coeff	1  110.77000   41.45300  -10.60400    5.12900  # c,c,hc
angle_coeff	2  111.27000   54.53810   -8.36420  -13.08380  # c,c,oc
angle_coeff	3  111.27000   54.53810   -8.36420  -13.08380  # c,c,oh
angle_coeff	4  104.50000   35.74540  -10.00670   -6.27290  # c,oc,c
angle_coeff	5  105.80000   52.70610  -12.10900   -9.86810  # c,oh,ho
angle_coeff	6  107.66000   39.64100  -12.92100   -2.43180  # hc,c,hc
angle_coeff	7  108.72800   58.54460  -10.80880  -12.40060  # hc,c,oc
angle_coeff	8  108.72800   58.54460  -10.80880  -12.40060  # hc,c,oh

# BondBond Coeffs

angle_coeff	1 bb    3.38720    1.53000    1.10100  # c,c,hc
angle_coeff	2 bb   11.43180    1.53000    1.42000  # c,c,oc
angle_coeff	3 bb   11.43180    1.53000    1.42000  # c,c,oh
angle_coeff	4 bb   -7.11310    1.42000    1.42000  # c,oc,c
angle_coeff	5 bb   -9.68790    1.42000    0.96500  # c,oh,ho
angle_coeff	6 bb    5.33160    1.10100    1.10100  # hc,c,hc
angle_coeff	7 bb   23.19790    1.10100    1.42000  # hc,c,oc
angle_coeff	8 bb   23.19790    1.10100    1.42000  # hc,c,oh

# BondAngle Coeffs

angle_coeff	1 ba   20.75400   11.42100    1.53000    1.10100  # c,c,hc
angle_coeff	2 ba    2.68680   20.40330    1.53000    1.42000  # c,c,oc
angle_coeff	3 ba    2.68680   20.40330    1.53000    1.42000  # c,c,oh
angle_coeff	4 ba   -2.81120   -2.81120    1.42000    1.42000  # c,oc,c
angle_coeff	5 ba   28.58000   18.92770    1.42000    0.96500  # c,oh,ho
angle_coeff	6 ba   18.10300   18.10300    1.10100    1.10100  # hc,c,hc
angle_coeff	7 ba    4.61890   55.32700    1.10100    1.42000  # hc,c,oc
angle_coeff	8 ba    4.61890   55.32700    1.10100    1.42000  # hc,c,oh

# Dihedral Coeffs

dihedral_coeff	1   -0.52030    0.00000   -0.30280    0.00000   -0.34500    0.00000  # c,c,oc,c
dihedral_coeff	2   -0.67320    0.00000   -0.47780    0.00000   -0.16700    0.00000  # c,c,oh,ho
dihedral_coeff	3    0.53020    0.00000    0.00000    0.00000   -0.39660    0.00000  # c,oc,c,hc
dihedral_coeff	4   -0.14320    0.00000    0.06170    0.00000   -0.10830    0.00000  # hc,c,c,hc
dihedral_coeff	5   -0.14350    0.00000    0.25300    0.00000   -0.09050    0.00000  # hc,c,c,oc
dihedral_coeff	6   -0.14350    0.00000    0.25300    0.00000   -0.09050    0.00000  # hc,c,c,oh
dihedral_coeff	7    0.18630    0.00000   -0.43380    0.00000   -0.21210    0.00000  # hc,c,oh,ho
dihedral_coeff	8   -0.18200    0.00000   -0.10840    0.00000   -0.70470    0.00000  # oc,c,c,oc
dihedral_coeff	9   -0.18200    0.00000   -0.10840    0.00000   -0.70470    0.00000  # oc,c,c,oh

# MiddleBondTorsion Coeffs

dihedral_coeff	1 mbt   -5.92880   -2.70070   -0.31750    1.42000  # c,c,oc,c
dihedral_coeff	2 mbt    1.24720    0.00000    0.74850    1.42000  # c,c,oh,ho
dihedral_coeff	3 mbt   -6.80070   -4.65460   -1.41010    1.42000  # c,oc,c,hc
dihedral_coeff	4 mbt  -14.26100   -0.53220   -0.48640    1.53000  # hc,c,c,hc
dihedral_coeff	5 mbt  -16.79750   -1.22960   -0.27500    1.53000  # hc,c,c,oc
dihedral_coeff	6 mbt  -16.79750   -1.22960   -0.27500    1.53000  # hc,c,c,oh
dihedral_coeff	7 mbt    0.00000    0.92410   -0.58890    1.42000  # hc,c,oh,ho
dihedral_coeff	8 mbt  -17.25850   -3.61570   -0.83640    1.53000  # oc,c,c,oc
dihedral_coeff	9 mbt  -17.25850   -3.61570   -0.83640    1.53000  # oc,c,c,oh

# EndBondTorsion Coeffs

dihedral_coeff	1 ebt   -0.24560    1.05170   -0.77950    0.47410    1.26350    0.55760    1.53000    1.42000  # c,c,oc,c
dihedral_coeff	2 ebt   -0.58000    0.90040    0.00000    0.00000    0.53430    0.90250    1.53000    0.96500  # c,c,oh,ho
dihedral_coeff	3 ebt   -0.16200    0.15640   -1.14080   -0.60540    1.33390    0.96480    1.42000    1.10100  # c,oc,c,hc
dihedral_coeff	4 ebt    0.21300    0.31200    0.07770    0.21300    0.31200    0.07770    1.10100    1.10100  # hc,c,c,hc
dihedral_coeff	5 ebt    0.96810    0.95510    0.04360    0.59030    0.66690    0.85840    1.10100    1.42000  # hc,c,c,oc
dihedral_coeff	6 ebt    0.96810    0.95510    0.04360    0.59030    0.66690    0.85840    1.10100    1.42000  # hc,c,c,oh
dihedral_coeff	7 ebt   -1.75540    1.31450    0.22630    0.24930    0.68030    0.00000    1.10100    0.96500  # hc,c,oh,ho
dihedral_coeff	8 ebt    1.01650    0.75530   -0.46090    1.01650    0.75530   -0.46090    1.42000    1.42000  # oc,c,c,oc
dihedral_coeff	9 ebt    1.01650    0.75530   -0.46090    1.01650    0.75530   -0.46090    1.42000    1.42000  # oc,c,c,oh

# AngleTorsion Coeffs

dihedral_coeff	1 at   -2.74660    1.48770   -0.89550    0.56760    0.94500    0.07030  111.27000  104.50000  # c,c,oc,c
dihedral_coeff	2 at   -3.59030    2.52250    0.48880    0.87260   -0.35770    0.38880  111.27000  105.80000  # c,c,oh,ho
dihedral_coeff	3 at   -0.77770    0.43400   -0.66530   -1.82340    1.63930    0.51440  104.50000  108.72800  # c,oc,c,hc
dihedral_coeff	4 at   -0.80850    0.55690   -0.24660   -0.80850    0.55690   -0.24660  110.77000  110.77000  # hc,c,c,hc
dihedral_coeff	5 at    2.36680    2.49200   -1.01220   -0.18920    0.49180    0.72730  110.77000  111.27000  # hc,c,c,oc
dihedral_coeff	6 at    2.36680    2.49200   -1.01220   -0.18920    0.49180    0.72730  110.77000  111.27000  # hc,c,c,oh
dihedral_coeff	7 at   -3.40600    1.63960    0.07370    0.00000   -0.28100   -0.59440  108.72800  105.80000  # hc,c,oh,ho
dihedral_coeff	8 at    0.55110    0.97370   -0.66730    0.55110    0.97370   -0.66730  111.27000  111.27000  # oc,c,c,oc
dihedral_coeff	9 at    0.55110    0.97370   -0.66730    0.55110    0.97370   -0.66730  111.27000  111.27000  # oc,c,c,oh

# AngleAngleTorsion Coeffs

dihedral_coeff	1 aat  -19.00590  111.27000  104.50000  # c,c,oc,c
dihedral_coeff	2 aat  -12.10380  111.27000  105.80000  # c,c,oh,ho
dihedral_coeff	3 aat  -16.44380  104.50000  108.72800  # c,oc,c,hc
dihedral_coeff	4 aat  -12.56400  110.77000  110.77000  # hc,c,c,hc
dihedral_coeff	5 aat  -20.20060  110.77000  111.27000  # hc,c,c,oc
dihedral_coeff	6 aat  -20.20060  110.77000  111.27000  # hc,c,c,oh
dihedral_coeff	7 aat  -10.50930  108.72800  105.80000  # hc,c,oh,ho
dihedral_coeff	8 aat  -14.04840  111.27000  111.27000  # oc,c,c,oc
dihedral_coeff	9 aat  -14.04840  111.27000  111.27000  # oc,c,c,oh

# BondBond13 Coeffs

dihedral_coeff	1 bb13    0.00000    1.53000    1.42000  # c,c,oc,c
dihedral_coeff	2 bb13    0.00000    1.53000    0.96500  # c,c,oh,ho
dihedral_coeff	3 bb13    0.00000    1.42000    1.10100  # c,oc,c,hc
dihedral_coeff	4 bb13    0.00000    1.10100    1.10100  # hc,c,c,hc
dihedral_coeff	5 bb13    0.00000    1.10100    1.42000  # hc,c,c,oc
dihedral_coeff	6 bb13    0.00000    1.10100    1.42000  # hc,c,c,oh
dihedral_coeff	7 bb13    0.00000    1.10100    0.96500  # hc,c,oh,ho
dihedral_coeff	8 bb13    0.00000    1.42000    1.42000  # oc,c,c,oc
dihedral_coeff	9 bb13    0.00000    1.42000    1.42000  # oc,c,c,oh

# Improper Coeffs

improper_coeff	1    0.00000    0.00000  # c,c,hc,hc
improper_coeff	2    0.00000    0.00000  # c,c,hc,oc
improper_coeff	3    0.00000    0.00000  # c,c,oc,hc
improper_coeff	4    0.00000    0.00000  # c,c,oh,hc
improper_coeff	5    0.00000    0.00000  # c,hc,hc,hc
improper_coeff	6    0.00000    0.00000  # c,hc,hc,oc
improper_coeff	7    0.00000    0.00000  # c,hc,hc,oh

# AngleAngle Coeffs

improper_coeff	1 aa    0.27380   -0.48250    0.27380  110.77000  110.77000  107.66000  # c,c,hc,hc
improper_coeff	2 aa    3.91770    2.59260    0.16890  110.77000  111.27000  108.72800  # c,c,hc,oc
improper_coeff	3 aa    0.16890    2.59260    3.91770  111.27000  110.77000  108.72800  # c,c,oc,hc
improper_coeff	4 aa    0.16890    2.59260    3.91770  111.27000  110.77000  108.72800  # c,c,oh,hc
improper_coeff	5 aa   -0.31570   -0.31570   -0.31570  107.66000  107.66000  107.66000  # c,hc,hc,hc
improper_coeff	6 aa    2.42590    2.42590    2.12830  107.66000  108.72800  108.72800  # c,hc,hc,oc
improper_coeff	7 aa    2.42590    2.42590    2.12830  107.66000  108.72800  108.72800  # c,hc,hc,oh


# --- Thermo Output ---
thermo_style custom step time temp press enthalpy etotal ke pe ebond eangle edihed eimp evdwl ecoul elong etail vol lx ly lz density pxx pyy pzz
thermo_modify flush yes
thermo 1000

# --- Trajectory ---
dump dump_nvt all custom 1000 nvt_production.dump id type mol x y z ix iy iz vx vy vz

# --- Restart Checkpointing ---
# No restart checkpointing

# --- Initial Velocities (optional) ---
# Velocities read from data file

# --- SHAKE Constraints ---
# Constrains H-X bonds to allow 2fs timestep
# SHAKE disabled

# --- NVT Thermostat (Nose-Hoover) ---
# T_damp = 100.0 fs  (coupling timescale for heat exchange)
# Ramp: 300.0 K -> 300.0 K over 2000000 steps
timestep 1.0
fix nvt_fix all nvt temp 300.0 300.0 100.0

run 2000000
PPPM Kokkos initialization ...
  using 12-bit tables for long-range coulomb
  G vector (1/distance) = 0.30294461
  grid = 30 30 30
  stencil order = 5
  estimated absolute RMS force accuracy = 0.00030667665
  estimated relative force accuracy = 9.2354762e-07
  using double precision cuFFT
  3d grid and FFT values/proc = 50653 27000
Generated 10 of 10 mixed pair_coeff terms from sixthpower/sixthpower mixing rule
Neighbor list info ...
  update: every = 1 steps, delay = 0 steps, check = yes
  max neighbors/atom: 4000, page size: 100000
  master list distance cutoff = 11.5
  ghost atom cutoff = 11.5
  binsize = 11.5, bins = 4 4 4
  1 neighbor lists, perpetual/occasional/extra = 1 0 0
  (1) pair lj/class2/coul/long/kk, perpetual
      attributes: full, newton off, kokkos_device
      pair build: full/bin/kk/device
      stencil: full/bin/3d
      bin: kk/device
Per MPI rank memory allocation (min/avg/max) = 32.47 | 32.47 | 32.47 Mbytes
   Step          Time           Temp          Press         Enthalpy        TotEng         KinEng         PotEng         E_bond        E_angle        E_dihed        E_impro         E_vdwl         E_coul         E_long         E_tail         Volume           Lx             Ly             Lz          Density          Pxx            Pyy            Pzz      
         0   0              297.91047     -173.94107      4038.7398      4214.8399      6232.9739     -2018.134       2345.3976      5099.3609     -8505.3838     -58.251856     -3003.1465      6981.9405     -4878.0507     -462.44504      69419.522      41.098617      41.098617      41.098617      1.0542591      1125.031      -962.27296     -684.58125    
      1000   1000           304.22993     -608.83816      3755.097       4371.4923      6365.1916     -1993.6993      2400.7498      5023.0707     -8508.5744     -54.517062     -2964.9103      6986.8308     -4876.3488     -462.44504      69419.522      41.098617      41.098617      41.098617      1.0542591     -1120.9948     -484.99511     -220.52461    
      2000   2000           300.99627      1117.1457      5359.3851      4228.3728      6297.536      -2069.1633      2326.3759      4869.7817     -8445.9697     -52.41328      -2893.0908      6999.0042     -4872.8512     -462.44504      69419.522      41.098617      41.098617      41.098617      1.0542591      1971.0986      524.27468      856.06385    
      3000   3000           299.31786     -352.15181      3763.8453      4120.3682      6262.4198     -2142.0515      2303.3885      4924.3441     -8497.2586     -48.867422     -2940.7872      6993.5682     -4876.439      -462.44504      69419.522      41.098617      41.098617      41.098617      1.0542591     -1357.5602      137.49854      163.60623    
      4000   4000           299.11121      674.19726      4846.4302      4163.8645      6258.0962     -2094.2317      2315.0101      4973.489      -8483.0307     -52.494557     -2956.7081      6984.2107     -4874.7081     -462.44504      69419.522      41.098617      41.098617      41.098617      1.0542591      1035.6643      23.801885      963.12558    
      5000   5000           299.06295     -286.01987      4084.9397      4374.5098      6257.0865     -1882.5767      2411.4199      5080.3957     -8478.0919     -57.752435     -2949.7468      6987.4648     -4876.2659     -462.44504      69419.522      41.098617      41.098617      41.098617      1.0542591      204.63872      847.94482     -1910.6431    
      6000   6000           303.77905      851.22602      5067.404       4205.6121      6355.7581     -2150.146       2333.7732      4902.2306     -8519.2902     -53.886918     -2920.5291      6986.0525     -4878.4962     -462.44504      69419.522      41.098617      41.098617      41.098617      1.0542591      359.25768      2016.6247      177.79566    
      7000   7000           301.37648     -570.68176      3690.8878      4268.6532      6305.4908     -2036.8376      2350.5123      5069.3614     -8513.2912     -59.15888      -2995.0692      6986.462      -4875.6541     -462.44504      69419.522      41.098617      41.098617      41.098617      1.0542591      24.898237     -1390.2537     -346.68981    
      8000   8000           300.57892     -1537.3017      2575.1197      4131.5032      6288.8041     -2157.301       2357.9918      4916.5011     -8546.6133     -53.929919     -2936.1974      6980.9455     -4875.9987     -462.44504      69419.522      41.098617      41.098617      41.098617      1.0542591     -1062.7202     -2335.0833     -1214.1015    
      9000   9000           300.98833     -226.27463      4048.017       4277.1003      6297.3699     -2020.2697      2406.0255      4971.2789     -8508.228      -53.374418     -2951.7111      6992.7098     -4876.9704     -462.44504      69419.522      41.098617      41.098617      41.098617      1.0542591     -181.01773      261.70511     -759.51127    
     10000   10000          297.44896      1119.4055      5194.5158      4061.2157      6223.3181     -2162.1025      2289.3176      4984.7293     -8536.6573     -53.629307     -2943.2828      6977.0952     -4879.6752     -462.44504      69419.522      41.098617      41.098617      41.098617      1.0542591      747.10887      1194.3467      1416.7608    
     11000   11000          300.72383      508.17726      4766.1302      4251.6452      6291.8359     -2040.1906      2391.0753      4973.4594     -8539.9061     -56.39835      -2925.128       6988.9725     -4872.2653     -462.44504      69419.522      41.098617      41.098617      41.098617      1.0542591      1485.7101      898.10463     -859.28294    
     12000   12000          300.04226     -11.541738      4242.5545      4254.2395      6277.5758     -2023.3364      2342.3111      5014.8134     -8494.1234     -54.428239     -2942.4247      6986.2026     -4875.6871     -462.44504      69419.522      41.098617      41.098617      41.098617      1.0542591     -889.60264      274.9547       580.02273    
     13000   13000          299.70068     -758.21231      3414.4737      4182.0974      6270.4293     -2088.3319      2341.6765      4944.0201     -8496.2347     -53.630222     -2932.139       6982.9256     -4874.9501     -462.44504      69419.522      41.098617      41.098617      41.098617      1.0542591      6.3901196     -2177.8372     -103.18989    
     14000   14000          300.51608     -1412.5108      2721.0071      4151.0507      6287.4894     -2136.4387      2354.4869      4993.989      -8557.4538     -53.158093     -2963.336       6970.2356     -4881.2023     -462.44504      69419.522      41.098617      41.098617      41.098617      1.0542591     -2126.8168     -1504.8179     -605.8976     
     15000   15000          297.47925      578.07459      4728.6122      4143.3623      6223.9518     -2080.5895      2406.212       4931.2684     -8513.4155     -56.810009     -2935.6         6967.7917     -4880.0362     -462.44504      69419.522      41.098617      41.098617      41.098617      1.0542591     -186.00447      1306.1042      614.12403    
     16000   16000          305.00932     -1026.9856      3217.0045      4256.7376      6381.4982     -2124.7606      2378.0863      4865.6658     -8520.3937     -51.750155     -2911.3044      6989.3954     -4874.4599     -462.44504      69419.522      41.098617      41.098617      41.098617      1.0542591     -1348.1827     -270.11823     -1462.6558    
     17000   17000          302.49082      281.56224      4592.701       4307.6439      6328.8054     -2021.1615      2301.1706      5101.3186     -8517.8047     -58.437294     -2949.7934      6981.6282     -4879.2435     -462.44504      69419.522      41.098617      41.098617      41.098617      1.0542591     -726.33105      1830.5126     -259.49487    
     18000   18000          301.16637      470.4156       4619.9372      4143.6826      6301.0949     -2157.4124      2334.7126      4942.2422     -8493.7686     -52.975882     -2964.0328      6959.1714     -4882.7614     -462.44504      69419.522      41.098617      41.098617      41.098617      1.0542591     -77.804882      973.22977      515.82192    
     19000   19000          306.45404      929.49154      5216.6901      4275.6612      6411.7252     -2136.064       2314.0168      4955.2614     -8468.0845     -53.751856     -2966.1046      6961.1192     -4878.5205     -462.44504      69419.522      41.098617      41.098617      41.098617      1.0542591      1883.0483      30.650438      874.77591    
     20000   20000          298.3964       248.13395      4338.1259      4086.9119      6243.1407     -2156.2288      2278.0453      4920.7662     -8482.6024     -53.072949     -2941.3704      6997.0805     -4875.0751     -462.44504      69419.522      41.098617      41.098617      41.098617      1.0542591     -18.452205      1075.0187     -312.16469    
     21000   21000          296.73374      233.30504      4376.9748      4140.7738      6208.3541     -2067.5802      2332.5488      4947.5325     -8481.0221     -51.718407     -2923.7581      6985.3135     -4876.4764     -462.44504      69419.522      41.098617      41.098617      41.098617      1.0542591      1600.3739      208.43884     -1108.8976    
     22000   22000          294.26437      392.08057      4521.0163      4124.069       6156.6891     -2032.6201      2353.9232      4988.8158     -8489.4622     -52.54973      -2935.8753      6977.1724     -4874.6443     -462.44504      69419.522      41.098617      41.098617      41.098617      1.0542591     -104.77134      703.23481      577.77823    
     23000   23000          308.69103     -324.33734      4060.4107      4388.7739      6458.5282     -2069.7543      2360.6216      5018.0208     -8543.2575     -53.874094     -2946.2128      6975.5655     -4880.6179     -462.44504      69419.522      41.098617      41.098617      41.098617      1.0542591      199.7796       153.81335     -1326.605     
     24000   24000          302.991        335.26436      4550.9594      4211.5336      6339.2704     -2127.7368      2316.319       4919.4578     -8546.0312     -56.683717     -2862.6835      6981.3402     -4879.4555     -462.44504      69419.522      41.098617      41.098617      41.098617      1.0542591      80.164387      224.64873      700.97997    
     25000   25000          304.69955     -42.512896      4256.4135      4299.4541      6375.0172     -2075.5631      2332.8402      5016.6325     -8488.0676     -52.268138     -2982.0995      6981.2913     -4883.8918     -462.44504      69419.522      41.098617      41.098617      41.098617      1.0542591     -464.10172      1115.0889     -778.52584    
     26000   26000          298.53306      241.88354      4377.6533      4132.7674      6246          -2113.2326      2329.8047      4954.7949     -8506.0231     -54.120401     -2934.4358      6975.9593     -4879.2122     -462.44504      69419.522      41.098617      41.098617      41.098617      1.0542591      991.88413     -1471.0673      1204.8338    
     27000   27000          303.83166     -701.18643      3680.6963      4390.5862      6356.8589     -1966.2727      2363.7278      5119.8955     -8528.9649     -59.412768     -2956.9764      6975.3929     -4879.9347     -462.44504      69419.522      41.098617      41.098617      41.098617      1.0542591     -197.76103     -1440.2535     -465.5448     
     28000   28000          301.49137      343.83172      4537.8671      4189.7676      6307.8945     -2118.1269      2309.5928      5027.399      -8547.0919     -57.683951     -2929.1707      6962.1757     -4883.3479     -462.44504      69419.522      41.098617      41.098617      41.098617      1.0542591      256.04897     -171.44995      946.89615    
     29000   29000          304.88514      3.6259473      4274.441       4270.7701      6378.9        -2108.1299      2351.2799      4964.4201     -8544.1503     -53.787259     -2930.5609      6984.4534     -4879.785      -462.44504      69419.522      41.098617      41.098617      41.098617      1.0542591     -170.48241     -588.0553       769.41555    
     30000   30000          295.9454       373.50789      4510.5179      4132.3739      6191.8602     -2059.4863      2334.9474      5016.288      -8515.7175     -52.620313     -2962.5074      6994.1148     -4873.9914     -462.44504      69419.522      41.098617      41.098617      41.098617      1.0542591     -374.17998      866.1911       628.51255    
     31000   31000          299.51        -1385.7385      2823.5671      4226.5061      6266.4397     -2039.9337      2335.7533      4991.2461     -8497.3806     -50.757741     -2914.4119      6968.4382     -4872.821      -462.44504      69419.522      41.098617      41.098617      41.098617      1.0542591     -1595.1065     -1390.1927     -1171.9161    
     32000   32000          299.91124     -51.218278      4225.2935      4277.1476      6274.8347     -1997.6871      2387.7888      4928.4782     -8478.3198     -55.680529     -2879.0672      6977.8492     -4878.7358     -462.44504      69419.522      41.098617      41.098617      41.098617      1.0542591     -359.79461     -251.24759      457.38737    
     33000   33000          302.05561     -809.26916      3478.3009      4297.6151      6319.6998     -2022.0847      2354.8512      5037.3684     -8523.4118     -56.616288     -2938.9839      6979.8584     -4875.1507     -462.44504      69419.522      41.098617      41.098617      41.098617      1.0542591     -752.2288      -463.52253     -1212.0561    
     34000   34000          296.32939     -1477.9036      2672.0489      4168.2971      6199.8941     -2031.597       2334.7426      5057.4709     -8488.2757     -54.653896     -2993.7468      6991.8143     -4878.9485     -462.44504      69419.522      41.098617      41.098617      41.098617      1.0542591     -2854.9574     -1032.0533     -546.70019    
     35000   35000          296.79777      1246.4044      5274.8907      4013.0153      6209.6937     -2196.6784      2213.9992      4908.3509     -8520.3759     -52.630839     -2852.2217      6984.5705     -4878.3706     -462.44504      69419.522      41.098617      41.098617      41.098617      1.0542591      3097.8826      1444.5598     -803.22927    
     36000   36000          299.30475      862.86944      5122.5546      4248.9748      6262.1456     -2013.1708      2381.0746      4977.6338     -8514.9519     -54.985915     -2906.9437      6985.9033     -4880.901      -462.44504      69419.522      41.098617      41.098617      41.098617      1.0542591      1255.445       1150.9936      182.16963    
     37000   37000          296.75787     -383.83526      3735.2834      4123.8831      6208.8589     -2084.9759      2367.3096      4892.2775     -8496.3026     -50.819747     -2908.148       6987.5202     -4876.8128     -462.44504      69419.522      41.098617      41.098617      41.098617      1.0542591     -1121.4093     -278.66948      248.57301    
     38000   38000          298.986       -176.20305      4046.0521      4224.4423      6255.4765     -2031.0343      2383.1317      4992.9534     -8499.6185     -56.818255     -2949.1814      6974.9903     -4876.4916     -462.44504      69419.522      41.098617      41.098617      41.098617      1.0542591     -1290.1311      264.30107      497.22087    
     39000   39000          295.50488      802.70138      4884.7366      4072.0717      6182.6435     -2110.5718      2295.1771      4946.1792     -8489.4385     -52.664965     -2911.8289      6979.354      -4877.3498     -462.44504      69419.522      41.098617      41.098617      41.098617      1.0542591     -255.49278      809.49314      1854.1038    
     40000   40000          305.00649      665.76144      5009.1508      4335.1256      6381.439      -2046.3134      2341.5173      4973.1521     -8454.2846     -54.339352     -2955.9866      6979.9997     -4876.3719     -462.44504      69419.522      41.098617      41.098617      41.098617      1.0542591      1305.4391      680.56818      11.277088    
     41000   41000          296.84011      1101.6091      5223.3414      4108.0585      6210.5796     -2102.5211      2352.3565      5012.7679     -8532.9024     -52.542883     -3002.7737      6994.779      -4874.2055     -462.44504      69419.522      41.098617      41.098617      41.098617      1.0542591      1321.8451      1405.2193      577.76303    
     42000   42000          302.68521      361.87478      4620.5771      4254.2106      6332.8726     -2078.662       2314.5782      4890.9947     -8413.8453     -51.428247     -2934.5123      6990.5404     -4874.9895     -462.44504      69419.522      41.098617      41.098617      41.098617      1.0542591      1216.244      -1743.1528      1612.5331    
     43000   43000          300.1399       182.09901      4489.443       4305.0836      6279.6188     -1974.5351      2397.8536      5072.1513     -8575.6747     -53.438917     -2952.0601      7007.8665     -4871.2329     -462.44504      69419.522      41.098617      41.098617      41.098617      1.0542591      1638.5696      933.12388     -2025.3964    
     44000   44000          300.36577     -551.01921      3587.519       4145.3778      6284.3444     -2138.9667      2282.2626      4974.8206     -8543.2086     -55.159675     -2905.9828      6985.8091     -4877.5079     -462.44504      69419.522      41.098617      41.098617      41.098617      1.0542591      313.80229     -785.82855     -1181.0314    
     45000   45000          299.12591     -792.74383      3383.936       4186.5198      6258.4036     -2071.8838      2365.4621      5019.7915     -8536.3728     -54.607775     -2977.7934      6987.7863     -4876.1497     -462.44504      69419.522      41.098617      41.098617      41.098617      1.0542591     -686.50847     -1771.0095      79.28653     
     46000   46000          299.78486      557.0536       4900.1806      4336.2126      6272.1906     -1935.978       2396.4533      5020.6246     -8514.8715     -57.473588     -2915.0175      7001.5084     -4867.2016     -462.44504      69419.522      41.098617      41.098617      41.098617      1.0542591     -877.62566      2465.9442      82.842231    
     47000   47000          299.41196     -935.41758      3267.9452      4214.9737      6264.3886     -2049.4149      2392.4394      4899.0336     -8503.8793     -53.956786     -2888.237       6983.7121     -4878.5268     -462.44504      69419.522      41.098617      41.098617      41.098617      1.0542591     -1058.8064     -1322.0134     -425.43298    
     48000   48000          298.58208     -415.41723      3766.0403      4186.6139      6247.0256     -2060.4117      2399.5978      4918.2856     -8501.592      -56.225836     -2942.992       6993.6508     -4871.1361     -462.44504      69419.522      41.098617      41.098617      41.098617      1.0542591     -913.04307      203.67834     -536.88696    
     49000   49000          297.38876     -122.6031       4133.016       4257.1409      6222.0587     -1964.9177      2401.8835      5054.4777     -8462.1434     -54.103068     -2997.7285      6971.5495     -4878.8535     -462.44504      69419.522      41.098617      41.098617      41.098617      1.0542591     -751.49169      1944.9186     -1561.2362    
     50000   50000          297.90024     -587.19511      3622.9151      4217.3988      6232.76       -2015.3612      2341.4561      5005.7438     -8485.647      -55.874696     -2929.0831      6986.2753     -4878.2315     -462.44504      69419.522      41.098617      41.098617      41.098617      1.0542591     -1312.551      -48.988151     -400.04622    
     51000   51000          301.0831      -1103.1755      3132.5932      4249.4619      6299.3527     -2049.8909      2311.9589      5097.9452     -8558.9447     -58.684624     -2940.9812      6977.1023     -4878.2868     -462.44504      69419.522      41.098617      41.098617      41.098617      1.0542591      85.019134     -2321.8332     -1072.7123    
     52000   52000          304.04941      2501.5383      6827.9597      4295.371       6361.4147     -2066.0437      2359.3318      4941.082      -8530.2741     -53.286554     -2893.462       6992.4211     -4881.856      -462.44504      69419.522      41.098617      41.098617      41.098617      1.0542591      2585.3324      2792.2254      2127.057     
     53000   53000          294.03717      163.07601      4228.1049      4063.0047      6151.9356     -2088.9309      2325.6802      4951.8708     -8465.7538     -53.432497     -2949.3327      6981.8206     -4879.7835     -462.44504      69419.522      41.098617      41.098617      41.098617      1.0542591      1370.519      -1883.5965      1002.3055    
     54000   54000          302.99572      1526.7903      5822.8201      4277.0784      6339.369      -2062.2905      2317.503       5013.5032     -8506.5363     -52.650994     -2933.1032      6982.5137     -4883.52       -462.44504      69419.522      41.098617      41.098617      41.098617      1.0542591      944.91966      869.59625      2765.8551    
     55000   55000          294.75223     -1432.0507      2683.8701      4133.6961      6166.8963     -2033.2001      2361.3234      5020.6433     -8498.9436     -55.500252     -2951.3946      6975.6005     -4884.9288     -462.44504      69419.522      41.098617      41.098617      41.098617      1.0542591     -966.03656     -1698.1189     -1631.9967    
     56000   56000          298.68223      2543.5508      6730.043       4154.9203      6249.121      -2094.2007      2327.0298      5002.1823     -8545.8489     -52.999253     -2937.0091      6992.3871     -4879.9426     -462.44504      69419.522      41.098617      41.098617      41.098617      1.0542591      2994.1879      2366.4412      2270.0232    
     57000   57000          297.27617      241.95256      4536.2446      4291.2888      6219.7028     -1928.414       2412.8086      5027.9657     -8525.8966     -55.179104     -2889.6047      6978.6948     -4877.2027     -462.44504      69419.522      41.098617      41.098617      41.098617      1.0542591     -208.62072      1600.8466     -666.3682     
     58000   58000          297.33524      286.16088      4365.7142      4076.0013      6220.9389     -2144.9376      2351.234       4953.8996     -8578.299      -52.015199     -2912.6588      6971.4644     -4878.5626     -462.44504      69419.522      41.098617      41.098617      41.098617      1.0542591     -710.2804       1365.2238      203.53919    
     59000   59000          301.33049     -731.03633      3487.001       4227.1114      6304.5287     -2077.4173      2343.583       5024.0406     -8532.2167     -52.628481     -2951.8721      6970.9332     -4879.2568     -462.44504      69419.522      41.098617      41.098617      41.098617      1.0542591     -1845.1462      219.79742     -567.76019    
     60000   60000          304.21577      1175.8056      5507.0288      4316.6286      6364.8953     -2048.2667      2319.0262      5037.7677     -8533.6762     -57.373359     -2900.9881      6969.3739     -4882.3968     -462.44504      69419.522      41.098617      41.098617      41.098617      1.0542591      959.01993      1965.0773      603.31941    
     61000   61000          297.90667     -37.847406      4120.765       4159.0822      6232.8944     -2073.8122      2383.1851      4966.1668     -8492.5207     -55.722629     -2962.3887      6968.881      -4881.4131     -462.44504      69419.522      41.098617      41.098617      41.098617      1.0542591     -314.05995      1623.1268     -1422.6091    
     62000   62000          301.78483      584.40963      4923.1708      4331.5071      6314.0345     -1982.5273      2400.5855      4905.4338     -8438.7904     -52.844356     -2889.3079      6973.1729     -4880.777      -462.44504      69419.522      41.098617      41.098617      41.098617      1.0542591      1468.0232     -230.55177      515.75744    
     63000   63000          302.52803     -76.564409      4087.4073      4164.922       6329.5839     -2164.6618      2284.0676      5008.5458     -8524.4104     -53.405717     -2954.8995      6960.3576     -4884.9172     -462.44504      69419.522      41.098617      41.098617      41.098617      1.0542591     -1143.7634      1059.3798     -145.30968    
     64000   64000          297.53263     -141.08072      3993.9411      4136.773       6225.0687     -2088.2957      2381.1634      4894.1627     -8502.5787     -51.076462     -2908.0825      6978.7082     -4880.5923     -462.44504      69419.522      41.098617      41.098617      41.098617      1.0542591     -735.75493      313.90621     -1.3934511    
     65000   65000          297.1547      -446.60603      3752.1909      4204.3404      6217.1614     -2012.821       2408.0174      4994.3041     -8461.9362     -54.818335     -2982.7329      6967.8121     -4883.4671     -462.44504      69419.522      41.098617      41.098617      41.098617      1.0542591     -1407.0828     -280.25384      347.51855    
     66000   66000          302.91115      461.42352      4750.0144      4282.8634      6337.5996     -2054.7362      2356.0489      4913.1344     -8417.5406     -55.762942     -2956.6727      6985.9386     -4879.8819     -462.44504      69419.522      41.098617      41.098617      41.098617      1.0542591      518.2501      -622.4392       1488.4597    
     67000   67000          299.70107      831.83255      5040.8099      4198.6522      6270.4373     -2071.7851      2352.4962      4972.4151     -8481.5753     -54.340193     -2948.6061      6969.6887     -4881.8636     -462.44504      69419.522      41.098617      41.098617      41.098617      1.0542591      1872.791       564.23215      58.474458    
     68000   68000          294.56552     -155.91023      3990.5116      4148.3571      6162.9898     -2014.6327      2380.2692      4994.0505     -8477.3        -56.436004     -2947.2625      6972.8931     -4880.847      -462.44504      69419.522      41.098617      41.098617      41.098617      1.0542591      1316.3952     -1276.6176     -507.50822    
     69000   69000          300.60583     -632.25713      3670.5424      4310.6474      6289.367      -1978.7196      2362.252       4956.3737     -8432.0716     -53.617479     -2900.1435      6968.2692     -4879.782      -462.44504      69419.522      41.098617      41.098617      41.098617      1.0542591     -1232.5235     -1105.2086      440.96069    
     70000   70000          295.27232      850.05126      4939.5783      4078.9758      6177.7777     -2098.8019      2329.2033      4999.1331     -8477.3428     -54.519296     -2985.0309      6969.8164     -4880.0616     -462.44504      69419.522      41.098617      41.098617      41.098617      1.0542591      340.07986      888.02945      1322.0445    
     71000   71000          297.65681      297.76052      4462.9608      4161.5044      6227.6669     -2066.1625      2380.0023      4948.5813     -8477.2547     -51.852453     -2948.5166      6964.1798     -4881.3021     -462.44504      69419.522      41.098617      41.098617      41.098617      1.0542591      1001.3826      271.04217     -379.14325    
     72000   72000          297.2172      -229.98403      4012.4793      4245.318       6218.4691     -1973.1511      2363.6944      5061.5058     -8523.1886     -56.634981     -2906.6341      6968.9328     -4880.8264     -462.44504      69419.522      41.098617      41.098617      41.098617      1.0542591      710.5945      -624.06632     -776.48027    
     73000   73000          297.58881     -238.9976       3980.3097      4222.2739      6226.244      -2003.9701      2343.2389      5166.0894     -8553.5942     -58.325021     -2975.6969      6956.2144     -4881.8968     -462.44504      69419.522      41.098617      41.098617      41.098617      1.0542591      283.71625      651.49792     -1652.207     
     74000   74000          298.21234      335.67696      4522.1964      4182.3529      6239.2898     -2056.9369      2333.2311      4993.6131     -8493.0983     -53.698428     -2922.6729      6968.1544     -4882.4661     -462.44504      69419.522      41.098617      41.098617      41.098617      1.0542591      1627.8691     -972.57963      351.74136    
     75000   75000          302.28181      315.27627      4577.9627      4258.773       6324.4324     -2065.6593      2370.4175      5006.3412     -8529.1091     -53.331143     -2930.0886      6954.9645     -4884.8537     -462.44504      69419.522      41.098617      41.098617      41.098617      1.0542591      1116.5086      424.33103     -595.01084    
     76000   76000          297.45996      607.20908      4737.4489      4122.7028      6223.5483     -2100.8456      2364.8123      4982.0226     -8540.4741     -54.199175     -2934.9894      6965.5718     -4883.5897     -462.44504      69419.522      41.098617      41.098617      41.098617      1.0542591      566.23155     -437.82426      1693.22      
     77000   77000          300.70154     -924.28508      3181.3455      4117.1032      6291.3696     -2174.2663      2296.3872      5017.9608     -8554.8966     -55.490472     -2972.0566      6974.5767     -4880.7473     -462.44504      69419.522      41.098617      41.098617      41.098617      1.0542591     -2078.2605     -678.84196     -15.752789    
     78000   78000          300.58237     -584.72123      3691.2781      4283.2571      6288.8763     -2005.6191      2388.0266      5012.3778     -8464.669      -56.191016     -2969.0849      6968.1874     -4884.2661     -462.44504      69419.522      41.098617      41.098617      41.098617      1.0542591     -554.96974     -401.80345     -797.3905     
     79000   79000          300.6422      -897.5394       3315.3092      4223.9894      6290.1279     -2066.1386      2343.2595      4967.992      -8505.0002     -54.822776     -2914.6355      6976.2033     -4879.1349     -462.44504      69419.522      41.098617      41.098617      41.098617      1.0542591     -295.39492     -2169.2999     -227.92341    
     80000   80000          299.80479      1729.4207      5986.8205      4235.9333      6272.6075     -2036.6742      2338.7555      5072.6802     -8553.019      -51.441927     -2938.6797      6972.8842     -4877.8535     -462.44504      69419.522      41.098617      41.098617      41.098617      1.0542591      1760.0347      1900.9656      1527.2618    
     81000   81000          295.19813      965.11668      5109.9612      4132.8649      6176.2255     -2043.3606      2370.4292      4943.5983     -8510.2602     -52.585042     -2900.8068      6983.0612     -4876.7974     -462.44504      69419.522      41.098617      41.098617      41.098617      1.0542591      729.34454      940.58324      1225.4223    
     82000   82000          301.67289      110.6212       4364.9853      4252.991       6311.6924     -2058.7014      2323.0527      5044.5614     -8503.3595     -56.178391     -2968.0423      6980.5017     -4879.2369     -462.44504      69419.522      41.098617      41.098617      41.098617      1.0542591     -862.14932      681.33999      512.67294    
     83000   83000          304.60052     -586.35777      3690.1839      4283.8199      6372.9452     -2089.1253      2405.3357      4989.2626     -8550.5663     -52.257664     -2984.9105      6980.396      -4876.3852     -462.44504      69419.522      41.098617      41.098617      41.098617      1.0542591     -1483.9167     -390.59429      115.43769    
     84000   84000          299.43178     -200.03019      3866.0388      4068.5518      6264.8032     -2196.2514      2291.5004      4891.6083     -8496.0974     -53.164585     -2934.2085      6978.8792     -4874.7688     -462.44504      69419.522      41.098617      41.098617      41.098617      1.0542591      833.0912       98.807699     -1531.9895    
     85000   85000          300.7786       251.53989      4433.7927      4179.1306      6292.9818     -2113.8512      2340.0113      4924.5317     -8495.4092     -56.329675     -2927.518       6978.5661     -4877.7034     -462.44504      69419.522      41.098617      41.098617      41.098617      1.0542591      561.99354      86.954792      105.67133    
     86000   86000          300.91693      172.59751      4504.2766      4329.5368      6295.876      -1966.3393      2380.4656      4976.5416     -8423.6818     -53.431945     -2948.0522      6979.1329     -4877.3135     -462.44504      69419.522      41.098617      41.098617      41.098617      1.0542591      156.41886     -346.40504      707.77871    
     87000   87000          298.51438      815.55106      4990.5911      4164.917       6245.6091     -2080.6921      2300.6509      5036.0813     -8503.5472     -55.191714     -2951.096       6973.4292     -4881.0185     -462.44504      69419.522      41.098617      41.098617      41.098617      1.0542591      564.84002      1264.3324      617.4808     
     88000   88000          294.70735     -133.17613      3872.188       4007.0172      6165.9573     -2158.9402      2270.8981      4946.5483     -8454.2362     -53.447729     -2959.3991      6968.9671     -4878.2707     -462.44504      69419.522      41.098617      41.098617      41.098617      1.0542591     -796.2085      -626.82599      1023.5061    
     89000   89000          303.04252      1177.7479      5460.7621      4268.3954      6340.3483     -2071.9529      2295.8407      4924.8679     -8400.4243     -51.331451     -2934.5156      6974.0043     -4880.3945     -462.44504      69419.522      41.098617      41.098617      41.098617      1.0542591     -146.95876      3290.7607      389.44163    
     90000   90000          304.85339      1758.9542      6150.8205      4370.0332      6378.2358     -2008.2026      2291.4999      5085.7778     -8504.0269     -55.088376     -2918.901       6971.4828     -4878.9467     -462.44504      69419.522      41.098617      41.098617      41.098617      1.0542591      1570.5797      2271.4448      1434.838     
     91000   91000          297.3039       300.8334       4471.8909      4167.3234      6220.2832     -2052.9598      2327.4317      4997.4771     -8473.3351     -53.901236     -2938.2599      6969.3127     -4881.685      -462.44504      69419.522      41.098617      41.098617      41.098617      1.0542591     -135.09645     -602.48079      1640.0774    
     92000   92000          299.20013      1178.4627      5548.3836      4355.2932      6259.9567     -1904.6635      2307.9545      5076.6491     -8431.3736     -53.036747     -2899.1882      6973.6527     -4879.3213     -462.44504      69419.522      41.098617      41.098617      41.098617      1.0542591      1129.4178      1496.8432      909.12723    
     93000   93000          302.81482     -372.77117      3994.1641      4371.5623      6335.5843     -1964.022       2365.4469      5003.1252     -8432.4292     -55.186841     -2931.3815      6964.7945     -4878.391      -462.44504      69419.522      41.098617      41.098617      41.098617      1.0542591      177.41829     -698.68451     -597.04728    
     94000   94000          299.58126      774.97917      4976.5079      4191.9093      6267.9307     -2076.0214      2287.6801      4974.1339     -8464.741      -53.471868     -2903.3506      6963.5774     -4879.8494     -462.44504      69419.522      41.098617      41.098617      41.098617      1.0542591      2230.8913     -594.95699      689.00326    
     95000   95000          304.62137      291.93576      4540.1074      4244.548       6373.3814     -2128.8334      2304.896       4986.1939     -8542.986      -52.551746     -2928.6216      6978.5979     -4874.3619     -462.44504      69419.522      41.098617      41.098617      41.098617      1.0542591      1483.1152     -1118.9689      511.66096    
     96000   96000          300.64516      1051.3539      5255.8266      4191.4228      6290.1899     -2098.7671      2309.3699      4927.1513     -8492.2331     -49.58162      -2911.9157      6991.9892     -4873.5471     -462.44504      69419.522      41.098617      41.098617      41.098617      1.0542591      2023.3099      567.88428      562.86746    
     97000   97000          300.27058     -322.98006      3938.6752      4265.6643      6282.353      -2016.6887      2285.6924      5082.2771     -8478.8846     -54.75324      -2954.3587      6975.5172     -4872.1788     -462.44504      69419.522      41.098617      41.098617      41.098617      1.0542591      123.50029     -2370.7353      1278.2948    
     98000   98000          293.5627      -614.33344      3350.7396      3972.6985      6142.0085     -2169.31        2303.5264      4922.6607     -8492.9827     -50.879609     -2966.7059      6990.9237     -4875.8526     -462.44504      69419.522      41.098617      41.098617      41.098617      1.0542591     -719.18933     -680.08663     -443.72437    
     99000   99000          298.22497     -214.42471      3928.6819      4145.7681      6239.554      -2093.7858      2320.8058      4963.2694     -8466.2457     -52.356458     -2956.8719      6972.0111     -4874.398      -462.44504      69419.522      41.098617      41.098617      41.098617      1.0542591     -442.20246      285.57399     -486.64566    
    100000   100000         298.62665      557.22398      4739.7187      4175.5782      6247.958      -2072.3798      2299.7273      5031.9729     -8496.2841     -54.55735      -2941.4122      6965.7108     -4877.5371     -462.44504      69419.522      41.098617      41.098617      41.098617      1.0542591     -681.06231      1089.4033      1263.331     
    101000   101000         300.13928      708.08998      4907.3735      4190.4944      6279.6058     -2089.1114      2270.0757      5064.7613     -8557.0053     -53.350036     -2912.8789      6970.0251     -4870.7392     -462.44504      69419.522      41.098617      41.098617      41.098617      1.0542591      1002.0415     -307.81215      1430.0406    
    102000   102000         295.9937      -535.59992      3579.9681      4122.2162      6192.8707     -2070.6545      2353.6493      4860.3949     -8432.088      -51.454835     -2925.0902      6995.0738     -4871.1394     -462.44504      69419.522      41.098617      41.098617      41.098617      1.0542591     -3023.7363      63.825558      1353.111     
    103000   103000         302.40109     -1259.6321      2927.4633      4202.7306      6326.9281     -2124.1975      2351.1861      4978.7983     -8592.3924     -56.462741     -2923.5773      6991.7937     -4873.5431     -462.44504      69419.522      41.098617      41.098617      41.098617      1.0542591     -1717.0069     -1111.0381     -950.85145    
    104000   104000         295.6547      -565.81234      3616.8773      4189.7128      6185.7781     -1996.0653      2361.5136      5066.0836     -8533.2154     -50.972668     -2964.507       6992.0815     -4867.0489     -462.44504      69419.522      41.098617      41.098617      41.098617      1.0542591     -2177.7064      334.65224      145.61715    
    105000   105000         296.24386     -14.307805      4162.0387      4176.5241      6198.1047     -2021.5806      2376.6041      5047.7259     -8541.4348     -54.172619     -2966.0701      6991.8894     -4876.1225     -462.44504      69419.522      41.098617      41.098617      41.098617      1.0542591     -732.81232      454.43804      235.45087    
    106000   106000         302.48957     -1639.1189      2699.727       4359.1916      6328.7792     -1969.5876      2382.6508      5016.6869     -8487.4458     -52.958196     -2938.6063      6982.6535     -4872.5686     -462.44504      69419.522      41.098617      41.098617      41.098617      1.0542591     -1810.1505     -2273.3746     -833.83179    
    107000   107000         298.96398     -510.82077      3715.7202      4232.8816      6255.0157     -2022.1341      2392.1436      4998.4227     -8514.7692     -54.219842     -2959.0276      6989.6221     -4874.3059     -462.44504      69419.522      41.098617      41.098617      41.098617      1.0542591     -941.87348      372.91548     -963.50431    
    108000   108000         296.01455      381.6927       4489.1711      4102.7406      6193.3069     -2090.5663      2334.4763      4980.2489     -8569.145      -53.289        -2892.7294      6985.1273     -4875.2554     -462.44504      69419.522      41.098617      41.098617      41.098617      1.0542591      86.006428     -165.10487      1224.1766    
    109000   109000         301.70769      1845.4039      6057.2997      4188.9897      6312.4206     -2123.4309      2335.2213      4801.4852     -8408.4679     -52.172877     -2921.5326      6995.7901     -4873.7543     -462.44504      69419.522      41.098617      41.098617      41.098617      1.0542591      950.27307      2769.5721      1816.3665    
    110000   110000         299.2308       675.46053      4947.8975      4264.0528      6260.5984     -1996.5456      2304.3719      5126.2763     -8548.7506     -51.61122      -2937.2942      6985.1731     -4874.7108     -462.44504      69419.522      41.098617      41.098617      41.098617      1.0542591      1021.1235      69.710643      935.54748    
    111000   111000         301.25511     -124.64239      4101.9761      4228.1656      6302.9515     -2074.7859      2345.5642      4890.0317     -8450.2099     -54.170355     -2912.1556      6977.9268     -4871.7727     -462.44504      69419.522      41.098617      41.098617      41.098617      1.0542591     -561.25243      253.13723     -65.81197     
    112000   112000         300.62289      950.01856      5245.2554      4283.4447      6289.724      -2006.2793      2326.0054      5045.658      -8497.7221     -54.437307     -2934.675       6982.9375     -4874.0458     -462.44504      69419.522      41.098617      41.098617      41.098617      1.0542591      911.09554      760.52263      1178.4375    
    113000   113000         297.81902     -370.97169      3718.2797      4093.8561      6231.0607     -2137.2046      2299.5553      4985.0584     -8490.6004     -53.56157      -2999.5703      6993.8517     -4871.9376     -462.44504      69419.522      41.098617      41.098617      41.098617      1.0542591     -907.97614     -725.82283      520.8839     
    114000   114000         299.62103      1741.1859      6131.1393      4368.3409      6268.7628     -1900.422       2377.8235      5149.2057     -8568.3094     -55.209644     -2909.6415      6980.5651     -4874.8557     -462.44504      69419.522      41.098617      41.098617      41.098617      1.0542591      4.4053081      1662.0317      3557.1206    
    115000   115000         303.52604      360.8405       4628.3569      4263.0374      6350.4647     -2087.4272      2311.0117      4965.8773     -8504.739      -54.607753     -2933.8084      6996.5851     -4867.7461     -462.44504      69419.522      41.098617      41.098617      41.098617      1.0542591      1387.602      -423.06197      117.98149    
    116000   116000         296.60944      915.28703      5080.3772      4153.7291      6205.7534     -2052.0243      2299.5878      4992.816      -8482.8289     -54.143763     -2918.5614      6982.9983     -4871.8923     -462.44504      69419.522      41.098617      41.098617      41.098617      1.0542591      2613.9678      243.49935     -111.60604    
    117000   117000         301.99621      84.998908      4395.9678      4309.9138      6318.4571     -2008.5432      2363.7291      4879.5322     -8438.1176     -50.075955     -2893.0747      6998.4348     -4868.9711     -462.44504      69419.522      41.098617      41.098617      41.098617      1.0542591      166.92873      876.3891      -788.3211     
    118000   118000         297.25636      784.73625      4968.382       4173.9052      6219.2885     -2045.3832      2361.8897      4922.5468     -8461.22       -54.199072     -2915.6278      6976.1336     -4874.9064     -462.44504      69419.522      41.098617      41.098617      41.098617      1.0542591     -508.07774      1750.3704      1111.916     
    119000   119000         294.75475     -230.94261      3944.5881      4178.3973      6166.9489     -1988.5517      2364.0915      5015.5771     -8468.7404     -55.75545      -2935.3049      6966.9361     -4875.3556     -462.44504      69419.522      41.098617      41.098617      41.098617      1.0542591     -502.37386      261.48955     -451.94351    
    120000   120000         305.87843     -516.94594      3853.9058      4377.2683      6399.682      -2022.4136      2365.6237      4994.0151     -8470.1267     -54.977827     -2958.783       6976.1358     -4874.3007     -462.44504      69419.522      41.098617      41.098617      41.098617      1.0542591      39.844179     -66.351752     -1524.3303    
    121000   121000         300.04433      925.87975      5274.9998      4337.6275      6277.6193     -1939.9917      2407.951       5027.783      -8483.2798     -53.90212      -2951.3344      6984.9892     -4872.1986     -462.44504      69419.522      41.098617      41.098617      41.098617      1.0542591      916.55248      1054.5909      806.49585    
    122000   122000         299.10087      682.51265      4837.411       4146.4267      6257.88       -2111.4533      2349.9586      5039.1906     -8554.7955     -57.76146      -2994.8871      6976.6503     -4869.8087     -462.44504      69419.522      41.098617      41.098617      41.098617      1.0542591      972.29791     -656.61554      1731.8556    
    123000   123000         301.76252     -649.75634      3616.3189      4274.1403      6313.5676     -2039.4273      2310.7284      4967.1519     -8442.4167     -55.054051     -2930.0218      6984.2709     -4874.0859     -462.44504      69419.522      41.098617      41.098617      41.098617      1.0542591     -750.33903     -826.73742     -372.19255    
    124000   124000         298.42928     -234.64462      3929.5025      4167.0596      6243.8287     -2076.769       2325.3234      4975.9095     -8451.8927     -52.209382     -2987.1907      6985.9352     -4872.6443     -462.44504      69419.522      41.098617      41.098617      41.098617      1.0542591      509.80175     -200.92236     -1012.8132    
    125000   125000         299.03997     -249.82599      3990.9156      4243.8426      6256.6058     -2012.7632      2392.2672      5018.9066     -8542.3249     -55.117685     -2919.669       6968.4016     -4875.2271     -462.44504      69419.522      41.098617      41.098617      41.098617      1.0542591     -886.12475     -668.19848      804.84526    
    126000   126000         298.8457       178.42503      4370.4134      4189.7736      6252.5411     -2062.7675      2409.9824      5003.9798     -8562.6872     -52.339123     -2947.5977      6961.8354     -4875.9411     -462.44504      69419.522      41.098617      41.098617      41.098617      1.0542591      914.383       -1487.5052      1108.3973    
    127000   127000         295.99958      72.108171      4250.6357      4177.6325      6192.9937     -2015.3612      2370.0525      4956.1328     -8509.5488     -52.106905     -2897.5329      6991.2558     -4873.6137     -462.44504      69419.522      41.098617      41.098617      41.098617      1.0542591      228.3462       560.17332     -572.19501    
    128000   128000         298.36885      908.67606      5071.4109      4151.4558      6242.5642     -2091.1084      2329.152       4947.8132     -8516.3416     -52.008537     -2901.6083      6976.3019     -4874.417      -462.44504      69419.522      41.098617      41.098617      41.098617      1.0542591      1118.577       3618.5612     -2011.11      
    129000   129000         297.03009     -329.84287      3953.9305      4287.8675      6214.5543     -1926.6868      2403.2474      5028.9837     -8491.1636     -58.392667     -2917.8063      6982.2751     -4873.8304     -462.44504      69419.522      41.098617      41.098617      41.098617      1.0542591      1117.9492     -1344.0099     -763.46801    
    130000   130000         302.07835      422.55544      4688.1671      4260.3667      6320.1755     -2059.8088      2373.3359      5018.118      -8548.6284     -57.241464     -2951.8889      6982.8889     -4876.3928     -462.44504      69419.522      41.098617      41.098617      41.098617      1.0542591      755.87769     -735.11223      1246.9009    
    131000   131000         297.86311     -177.24533      3979.3068      4158.7522      6231.9831     -2073.2309      2363.2065      4977.2559     -8515.6024     -51.52595      -2948.1337      6978.2526     -4876.6838     -462.44504      69419.522      41.098617      41.098617      41.098617      1.0542591      436.72988     -1099.1325      130.66667    
    132000   132000         303.98517     -1480.5721      2793.9384      4292.8881      6360.0707     -2067.1825      2347.5837      4889.3594     -8487.6415     -50.229324     -2866.833       6976.8604     -4876.2822     -462.44504      69419.522      41.098617      41.098617      41.098617      1.0542591     -821.41623     -2419.8634     -1200.4366    
    133000   133000         295.59203      216.28982      4316.5699      4097.5954      6184.4669     -2086.8715      2375.4264      4901.5171     -8506.2096     -50.719589     -2922.7817      6986.9141     -4871.0182     -462.44504      69419.522      41.098617      41.098617      41.098617      1.0542591      332.97836     -120.6923       436.5834     
    134000   134000         303.40347     -902.76288      3310.0883      4224.0567      6347.9002     -2123.8434      2272.8189      4990.1623     -8469.2475     -54.074696     -2952.9734      6966.0405     -4876.5695     -462.44504      69419.522      41.098617      41.098617      41.098617      1.0542591      209.98264     -2222.8122     -695.4591     
    135000   135000         302.04851      150.18612      4394.4299      4242.3796      6319.5512     -2077.1716      2352.2863      5022.0287     -8528.5128     -52.861806     -2969.0857      6970.1563     -4871.1826     -462.44504      69419.522      41.098617      41.098617      41.098617      1.0542591      1672.6885     -1111.4461     -110.68404    
    136000   136000         298.07817      132.71461      4258.6568      4124.2949      6236.4827     -2112.1878      2312.8493      4968.6261     -8494.1075     -53.458445     -2955.4131      6982.4388     -4873.123      -462.44504      69419.522      41.098617      41.098617      41.098617      1.0542591     -810.9833       900.11343      309.01371    
    137000   137000         301.7427       548.44385      4876.8244      4321.573       6313.1531     -1991.58        2345.8366      4996.7154     -8482.0364     -52.976909     -2917.8435      6995.985      -4877.2603     -462.44504      69419.522      41.098617      41.098617      41.098617      1.0542591     -279.28524      721.22004      1203.3967    
    138000   138000         298.60005      686.06456      5040.7543      4346.174       6247.4015     -1901.2275      2467.6396      4992.4305     -8481.179      -58.47226      -2943.4548      6993.4809     -4871.6723     -462.44504      69419.522      41.098617      41.098617      41.098617      1.0542591      310.30942      35.244634      1712.6396    
    139000   139000         299.75546     -438.35154      3809.077       4252.8696      6271.5755     -2018.7059      2367.1392      4963.4789     -8497.4299     -56.752091     -2898.4093      6978.6292     -4875.3619     -462.44504      69419.522      41.098617      41.098617      41.098617      1.0542591      601.03998     -377.19981     -1538.8948    
    140000   140000         300.10045      753.0155       5024.4371      4262.0748      6278.7935     -2016.7187      2345.0547      4997.4341     -8498.9731     -55.259849     -2930.3185      6997.2523     -4871.9083     -462.44504      69419.522      41.098617      41.098617      41.098617      1.0542591      939.76906      1094.9209      224.35658    
    141000   141000         295.0832       306.34154      4524.8012      4214.6572      6173.821      -1959.1639      2335.1205      5088.8079     -8519.3258     -55.390928     -2909.8653      6975.8526     -4874.3629     -462.44504      69419.522      41.098617      41.098617      41.098617      1.0542591      886.32567      424.81379     -392.11483    
    142000   142000         298.95273      1269.2756      5539.8894      4254.8589      6254.7803     -1999.9214      2372.8538      4995.9917     -8518.6358     -52.669563     -2937.543       7012.8432     -4872.7618     -462.44504      69419.522      41.098617      41.098617      41.098617      1.0542591      2051.0448      1346.16        410.62183    
    143000   143000         295.35602     -81.368188      4022.2482      4104.6263      6179.5289     -2074.9026      2300.4046      4955.4321     -8483.8398     -54.656166     -2927.8482      7007.0023     -4871.3974     -462.44504      69419.522      41.098617      41.098617      41.098617      1.0542591     -1.0964885      183.42362     -426.4317     
    144000   144000         294.65519     -717.88393      3418.0766      4144.8713      6164.8659     -2019.9946      2376.4251      5006.0825     -8548.4826     -54.283611     -2924.7065      7000.5487     -4875.5783     -462.44504      69419.522      41.098617      41.098617      41.098617      1.0542591     -1847.5884     -721.87666      415.81331    
    145000   145000         300.29461     -995.16745      3244.6847      4252.2047      6282.8557     -2030.651       2372.9504      4930.6223     -8441.9137     -55.128703     -2960.1175      7000.0646     -4877.1285     -462.44504      69419.522      41.098617      41.098617      41.098617      1.0542591     -1545.6217     -1522.7587      82.878064    
    146000   146000         296.59907     -559.13712      3544.8587      4110.9361      6205.5364     -2094.6003      2379.6276      4974.2501     -8565.906      -53.453591     -2956.8625      6998.9428     -4871.1987     -462.44504      69419.522      41.098617      41.098617      41.098617      1.0542591     -731.69339      190.74011     -1136.4581    
    147000   147000         301.6748       410.17682      4696.3275      4281.0593      6311.7325     -2030.6732      2323.2268      5099.5181     -8545.9942     -56.072821     -2970.7185      6992.257      -4872.8896     -462.44504      69419.522      41.098617      41.098617      41.098617      1.0542591      773.83976     -205.59854      662.28924    
    148000   148000         300.42591      1499.0305      5779.0233      4261.386       6285.6028     -2024.2168      2313.3329      4949.4419     -8484.1747     -54.206339     -2866.6639      6991.3805     -4873.3272     -462.44504      69419.522      41.098617      41.098617      41.098617      1.0542591      479.25981      2521.0468      1496.785     
    149000   149000         293.21377     -813.81813      3188.994       4012.9137      6134.7081     -2121.7944      2276.7206      4934.6361     -8466.9301     -52.799889     -2930.1641      6990.3708     -4873.6277     -462.44504      69419.522      41.098617      41.098617      41.098617      1.0542591      384.56309     -1375.8315     -1450.186     
    150000   150000         295.6127      -98.428052      4091.7891      4191.4389      6184.8993     -1993.4604      2347.6421      4961.8109     -8469.889      -52.930315     -2900.9802      6994.2198     -4873.3338     -462.44504      69419.522      41.098617      41.098617      41.098617      1.0542591      750.38893     -1805.6484      759.97536    
    151000   151000         300.18154      50.836434      4390.6951      4339.2276      6280.49       -1941.2624      2450.0446      4952.9859     -8478.9021     -55.691166     -2919.4178      6986.0738     -4876.3555     -462.44504      69419.522      41.098617      41.098617      41.098617      1.0542591     -587.7471       600.7968       139.4596     
    152000   152000         293.50748     -143.65657      3981.5977      4127.0375      6140.8532     -2013.8158      2386.1363      4930.5599     -8477.6205     -55.269835     -2921.6051      6994.2014     -4870.2179     -462.44504      69419.522      41.098617      41.098617      41.098617      1.0542591     -686.22889     -416.94424      672.20342    
    153000   153000         298.84527     -252.95087      4029.4211      4285.5117      6252.532      -1967.0203      2311.0124      5106.2551     -8518.8902     -54.343016     -2929.2507      6993.3478     -4875.1518     -462.44504      69419.522      41.098617      41.098617      41.098617      1.0542591     -254.9396      -1297.8223      793.90932    
    154000   154000         301.31254     -820.37069      3453.93        4284.4836      6304.1531     -2019.6695      2321.0169      5024.6593     -8459.3104     -55.510379     -2969.9298      6994.2857     -4874.8809     -462.44504      69419.522      41.098617      41.098617      41.098617      1.0542591     -1547.5573     -227.33159     -686.22317    
    155000   155000         298.20963      891.17067      5022.3012      4120.0688      6239.2331     -2119.1643      2327.6872      4890.9039     -8516.2126     -53.936137     -2881.1604      6990.5228     -4876.9691     -462.44504      69419.522      41.098617      41.098617      41.098617      1.0542591      954.44841      470.07553      1248.9881    
    156000   156000         305.32277     -127.92165      4262.5366      4392.0461      6388.0563     -1996.0102      2420.6336      4936.9475     -8446.04       -52.43171      -2959.6318      6984.2143     -4879.7021     -462.44504      69419.522      41.098617      41.098617      41.098617      1.0542591     -635.44506     -1011.4525      1263.1326    
    157000   157000         299.7714       1376.2627      5633.5289      4240.1833      6271.909      -2031.7257      2277.57        4972.8531     -8474.0767     -53.902933     -2843.876       6971.8352     -4882.1284     -462.44504      69419.522      41.098617      41.098617      41.098617      1.0542591      1951.6645      16.433526      2160.6901    
    158000   158000         300.92917     -93.708569      4221.782       4316.6537      6296.132      -1979.4783      2395.0172      4958.6201     -8435.8283     -53.502662     -2948.0638      6979.7039     -4875.4246     -462.44504      69419.522      41.098617      41.098617      41.098617      1.0542591      682.17862     -638.24254     -325.06179    
    159000   159000         296.21553     -1348.1192      2810.639       4175.4918      6197.5118     -2022.0201      2349.8236      5011.586      -8489.2428     -53.237762     -2932.9138      6968.4564     -4876.4918     -462.44504      69419.522      41.098617      41.098617      41.098617      1.0542591     -2543.5064     -1373.2837     -127.56743    
    160000   160000         299.98943     -107.44454      4230.4497      4339.2279      6276.4706     -1937.2427      2384.3728      5063.9088     -8550.6303     -53.762629     -2898.4236      6993.0557     -4875.7633     -462.44504      69419.522      41.098617      41.098617      41.098617      1.0542591     -48.326692     -329.26851      55.261563    
    161000   161000         301.68707      288.17457      4600.884       4309.1325      6311.9891     -2002.8566      2367.2465      5056.3312     -8519.7941     -56.187569     -2937.9254      6966.8678     -4879.395      -462.44504      69419.522      41.098617      41.098617      41.098617      1.0542591      318.6292      -439.95983      985.85433    
    162000   162000         296.77717      1183.0381      5367.6507      4169.928       6209.2626     -2039.3346      2341.1679      4975.4916     -8505.5376     -51.051438     -2909.0428      6985.0361     -4875.3983     -462.44504      69419.522      41.098617      41.098617      41.098617      1.0542591     -203.49862      1796.9121      1955.7009    
    163000   163000         301.90817      1453.8748      5752.3598      4280.4388      6316.6151     -2036.1763      2319.3245      4923.7428     -8460.5728     -55.315144     -2903.163       7008.7239     -4868.9166     -462.44504      69419.522      41.098617      41.098617      41.098617      1.0542591      1217.7113      2019.2695      1124.6435    
    164000   164000         304.55832      379.79749      4741.7227      4357.2109      6372.0624     -2014.8515      2354.1573      5008.2087     -8487.5267     -50.751796     -2941.5245      6978.9405     -4876.3551     -462.44504      69419.522      41.098617      41.098617      41.098617      1.0542591      498.06461      235.50689      405.82096    
    165000   165000         298.78208     -7.9570579      4295.8706      4303.9264      6251.21       -1947.2836      2374.4411      5075.9757     -8462.5905     -51.837785     -2980.4766      6969.9342     -4872.7296     -462.44504      69419.522      41.098617      41.098617      41.098617      1.0542591     -113.17467      483.29841     -393.99492    
    166000   166000         306.01022     -207.04485      4169.9402      4379.555       6402.4394     -2022.8844      2334.8497      5053.8257     -8514.8359     -53.119517     -2937.3666      6967.8185     -4874.0565     -462.44504      69419.522      41.098617      41.098617      41.098617      1.0542591      453.99753     -1736.5383      661.40619    
    167000   167000         299.62771      246.05294      4470.9776      4221.8706      6268.9027     -2047.0321      2326.2339      4983.3515     -8507.3183     -54.066447     -2905.2668      6982.2115     -4872.1775     -462.44504      69419.522      41.098617      41.098617      41.098617      1.0542591      2241.8649     -640.9595      -862.74661    
    168000   168000         302.84537     -1730.3759      2624.5152      4376.3694      6336.2234     -1959.854       2428.6566      5043.391      -8560.185      -56.570383     -2929.26        6987.2725     -4873.1587     -462.44504      69419.522      41.098617      41.098617      41.098617      1.0542591     -1696.8627     -955.49208     -2538.7729    
    169000   169000         297.55995     -323.28288      3851.9324      4179.2281      6225.6402     -2046.4121      2333.9208      5027.5577     -8478.2454     -58.172536     -2976.5434      6984.4439     -4879.3731     -462.44504      69419.522      41.098617      41.098617      41.098617      1.0542591      986.5593      -73.636054     -1882.7719    
    170000   170000         299.01507     -547.24661      3563.9892      4118.0285      6256.0847     -2138.0562      2347.0265      4878.0901     -8486.4069     -53.382692     -2928.652       6977.3971     -4872.1282     -462.44504      69419.522      41.098617      41.098617      41.098617      1.0542591     -2270.8144      1178.2249     -549.15036    
    171000   171000         303.80806     -230.13514      4067.5761      4300.5678      6356.3652     -2055.7974      2370.5396      5032.6948     -8522.263      -51.942382     -2987.6584      6973.3884     -4870.5563     -462.44504      69419.522      41.098617      41.098617      41.098617      1.0542591      1419.1917      147.4469      -2257.0441    
    172000   172000         300.49981      1768.1451      5974.4739      4184.3817      6287.1489     -2102.7672      2285.3862      5049.1268     -8551.5159     -57.461589     -2948.325       6993.6374     -4873.6152     -462.44504      69419.522      41.098617      41.098617      41.098617      1.0542591      1540.2391      2068.392       1695.8041    
    173000   173000         301.68852     -773.48715      3295.3321      4078.4202      6312.0194     -2233.5992      2250.9345      4980.3426     -8488.2        -57.956896     -3030.3836      6981.7177     -4870.0537     -462.44504      69419.522      41.098617      41.098617      41.098617      1.0542591      99.199631     -2421.2036      1.5424955    
    174000   174000         302.60134      629.36438      4939.7718      4302.5954      6331.1178     -2028.5223      2341.3309      5092.5501     -8505.6918     -53.421137     -3001.743       6969.3032     -4870.8505     -462.44504      69419.522      41.098617      41.098617      41.098617      1.0542591      255.40724      1088.4109      544.27499    
    175000   175000         292.13036     -1126.5287      2928.4408      4068.9526      6112.0407     -2043.0882      2376.137       4996.2479     -8506.915      -53.353752     -2974.0754      6990.7809     -4871.9098     -462.44504      69419.522      41.098617      41.098617      41.098617      1.0542591     -1090.3789     -1153.2776     -1135.9296    
    176000   176000         300.00668     -971.8491       3175.4575      4159.3697      6276.8316     -2117.4619      2368.7493      4965.3443     -8503.1283     -56.296938     -2998.9802      6982.5097     -4875.6598     -462.44504      69419.522      41.098617      41.098617      41.098617      1.0542591     -1344.8636     -1219.0747     -351.60893    
    177000   177000         301.44641     -325.30748      4012.1947      4341.5401      6306.954      -1965.4138      2376.9648      4983.4983     -8498.0765     -55.697767     -2892.1268      6996.2709     -4876.2468     -462.44504      69419.522      41.098617      41.098617      41.098617      1.0542591     -492.77027     -728.89854      245.74637    
    178000   178000         296.2574       234.17163      4432.4782      4195.3999      6198.3879     -2002.988       2346.7605      4978.2909     -8470.9384     -53.371302     -2906.5832      6979.4298     -4876.5763     -462.44504      69419.522      41.098617      41.098617      41.098617      1.0542591     -13.876128      375.45278      340.93824    
    179000   179000         298.63753      1495.1444      5774.9077      4261.2048      6248.1858     -1986.981       2360.4814      4987.8061     -8489.0199     -55.942484     -2904.8409      6987.2861     -4872.7513     -462.44504      69419.522      41.098617      41.098617      41.098617      1.0542591      2045.7344      1392.4395      1047.2593    
    180000   180000         303.53171      610.01344      5023.9979      4406.4126      6350.5832     -1944.1706      2405.9781      5022.0462     -8495.8735     -48.705688     -2922.9796      6973.0602     -4877.6963     -462.44504      69419.522      41.098617      41.098617      41.098617      1.0542591      703.98988      411.17137      714.87906    
    181000   181000         299.20749     -127.37235      4125.9208      4254.8742      6260.1106     -2005.2365      2366.9108      5000.0122     -8513.8838     -55.948102     -2901.3852      6976.1276     -4877.07       -462.44504      69419.522      41.098617      41.098617      41.098617      1.0542591      336.34645     -25.583964     -692.87955    
    182000   182000         301.97231     -758.63285      3420.1385      4188.1879      6317.9571     -2129.7692      2340.2081      4959.3252     -8564.975      -54.19049      -2936.189       6999.5795     -4873.5275     -462.44504      69419.522      41.098617      41.098617      41.098617      1.0542591     -611.62137      91.767177     -1756.0444    
[...]
   1955000   1955000        305.9582      -812.02144      3403.6777      4225.7784      6401.351      -2175.5727      2387.939       4847.3863     -8516.6353     -50.62394      -2939.2844      6978.7673     -4883.1215     -462.44504      69419.522      41.098617      41.098617      41.098617      1.0542591     -1161.1241     -1523.3077      248.36751    
   1956000   1956000        299.36422     -1088.5059      2962.1991      4064.2161      6263.3897     -2199.1736      2357.2407      4927.3909     -8536.621      -49.509481     -2976.5936      6963.7684     -4884.8494     -462.44504      69419.522      41.098617      41.098617      41.098617      1.0542591     -9.4287628     -1990.1046     -1265.9843    
   1957000   1957000        297.69419     -1348.6644      2655.0217      4020.4264      6228.4489     -2208.0225      2424.9335      4861.1103     -8523.4999     -52.998688     -3008.8706      6970.313      -4879.0099     -462.44504      69419.522      41.098617      41.098617      41.098617      1.0542591     -1391.0234     -981.75413     -1673.2155    
   1958000   1958000        306.75605      742.3804       5026.9308      4275.3355      6418.044      -2142.7084      2339.6357      5047.7175     -8601.2983     -54.503314     -2947.2301      6958.4968     -4885.5268     -462.44504      69419.522      41.098617      41.098617      41.098617      1.0542591      670.83862      1439.6543      116.64832    
   1959000   1959000        299.91253     -996.36922      3056.8236      4065.5603      6274.8616     -2209.3013      2324.8648      4972.0235     -8513.875      -55.028086     -3006.0394      6955.3601     -4886.6073     -462.44504      69419.522      41.098617      41.098617      41.098617      1.0542591     -2729.1979     -800.73771      540.82791    
   1960000   1960000        299.43486     -272.10693      3943.1314      4218.6159      6264.8677     -2046.2518      2449.9041      4975.4219     -8530.0912     -54.962706     -2973.9738      6965.8389     -4878.389      -462.44504      69419.522      41.098617      41.098617      41.098617      1.0542591     -504.1244       152.44369     -464.64006    
   1961000   1961000        303.77544     -501.56581      3755.688       4263.4795      6355.6825     -2092.203       2365.6347      5035.4497     -8560.6263     -55.963901     -2946.3958      6952.0929     -4882.3942     -462.44504      69419.522      41.098617      41.098617      41.098617      1.0542591     -217.15815     -1916.8951      629.35581    
   1962000   1962000        299.91841     -232.88959      3783.1245      4018.9048      6274.9846     -2256.0797      2354.9884      4943.6862     -8588.6309     -53.338975     -2992.0966      6960.3726     -4881.0605     -462.44504      69419.522      41.098617      41.098617      41.098617      1.0542591     -1039.7435     -764.92918      1106.0039    
   1963000   1963000        306.26007     -936.57965      3280.4077      4228.6127      6407.6669     -2179.0542      2358.8439      4926.6872     -8476.2148     -53.14684      -3003.4363      6948.795      -4880.5823     -462.44504      69419.522      41.098617      41.098617      41.098617      1.0542591     -1685.6554     -754.50093     -369.58265    
   1964000   1964000        299.91813     -1002.6691      3122.0227      4137.1374      6274.9788     -2137.8415      2385.6902      4999.0933     -8565.6721     -51.792899     -2992.2824      6965.5148     -4878.3924     -462.44504      69419.522      41.098617      41.098617      41.098617      1.0542591      1.9826128      70.207982     -3080.1978    
   1965000   1965000        296.06088     -766.90203      3284.0813      4060.5025      6194.2762     -2133.7737      2394.1268      4974.1414     -8553.2265     -51.339498     -2982.6444      6965.4912     -4880.3227     -462.44504      69419.522      41.098617      41.098617      41.098617      1.0542591     -2468.2978      1089.8012     -922.20945    
   1966000   1966000        298.76074      906.15561      4921.5025      4004.0992      6250.7635     -2246.6642      2364.4633      4972.3326     -8587.3131     -52.134743     -3011.5248      6951.3796     -4883.867      -462.44504      69419.522      41.098617      41.098617      41.098617      1.0542591      1793.2037      89.25426       836.00889    
   1967000   1967000        294.46519     -589.62863      3381.9703      3978.9177      6160.8907     -2181.9729      2364.4059      4878.1058     -8514.2561     -51.45752      -2939.8311      6961.75       -4880.6899     -462.44504      69419.522      41.098617      41.098617      41.098617      1.0542591      188.78085     -1445.535      -512.13179    
   1968000   1968000        297.45357      52.438848      4080.6751      4027.5853      6223.4146     -2195.8292      2373.1287      4866.838      -8546.9217     -51.620036     -2923.5868      6964.2029     -4877.8704     -462.44504      69419.522      41.098617      41.098617      41.098617      1.0542591      55.977735      1075.6853     -974.34653    
   1969000   1969000        297.32089     -708.95691      3286.17        4003.9268      6220.6387     -2216.7118      2360.6042      4914.2401     -8536.9642     -53.513958     -3003.489       6981.7912     -4879.3801     -462.44504      69419.522      41.098617      41.098617      41.098617      1.0542591     -761.73535     -1584.6421      219.50671    
   1970000   1970000        299.21348      1919.5926      6088.4524      4145.0329      6260.2359     -2115.203       2311.9528      4970.8202     -8485.1791     -50.969143     -2955.0824      6972.2165     -4878.9619     -462.44504      69419.522      41.098617      41.098617      41.098617      1.0542591      2908.6029      1204.9324      1645.2424    
   1971000   1971000        297.54033     -59.302532      3892.5024      3952.541       6225.2298     -2272.6888      2293.7184      4874.8992     -8526.8177     -54.775239     -2963.6052      6980.63       -4876.7383     -462.44504      69419.522      41.098617      41.098617      41.098617      1.0542591      978.69894     -800.835       -355.77154    
   1972000   1972000        302.79777      1087.0914      5269.32        4168.735       6335.2275     -2166.4924      2297.1504      4999.147      -8558.7359     -55.972021     -2948.7561      6974.6322     -4873.958      -462.44504      69419.522      41.098617      41.098617      41.098617      1.0542591      415.43415      558.5888       2287.2512    
   1973000   1973000        308.38819     -555.46084      3667.0764      4229.4319      6452.192      -2222.7602      2345.0485      4902.8101     -8535.3078     -50.760598     -2983.9931      6976.1683     -4876.7255     -462.44504      69419.522      41.098617      41.098617      41.098617      1.0542591     -2387.0878      517.87446      202.83079    
   1974000   1974000        298.47512      98.059846      4221.849       4122.572       6244.7877     -2122.2157      2373.2793      4961.9719     -8544.7514     -55.594334     -2944.005       6964.892      -4878.0081     -462.44504      69419.522      41.098617      41.098617      41.098617      1.0542591      358.21858     -951.69684      887.6578     
   1975000   1975000        302.03466     -938.78511      3160.1357      4110.5735      6319.2615     -2208.6879      2349.0828      4927.7905     -8607.461      -51.19103      -2906.392       6960.1285     -4880.6458     -462.44504      69419.522      41.098617      41.098617      41.098617      1.0542591     -975.45104     -1215.0057     -625.89858    
   1976000   1976000        303.20631     -930.66749      3294.7658      4236.9853      6343.7751     -2106.7899      2379.9164      4987.2654     -8519.8251     -54.440964     -2986.8875      6968.4896     -4881.3076     -462.44504      69419.522      41.098617      41.098617      41.098617      1.0542591      608.80572     -1326.7237     -2074.0845    
   1977000   1977000        296.87178      1417.3249      5462.0104      4027.0929      6211.2422     -2184.1493      2318.8671      4942.487      -8542.9054     -52.960847     -2944.0235      6977.1012     -4882.7148     -462.44504      69419.522      41.098617      41.098617      41.098617      1.0542591      1684.8791      662.81359      1904.2819    
   1978000   1978000        302.68286     -813.6672       3451.0159      4274.7828      6332.8233     -2058.0405      2404.0246      4928.2564     -8459.9512     -57.093218     -2965.7637      6973.2113     -4880.7247     -462.44504      69419.522      41.098617      41.098617      41.098617      1.0542591     -177.26871     -1412.6073     -851.12558    
   1979000   1979000        299.93639      92.506099      4085.5671      3991.9128      6275.3609     -2283.4482      2290.9779      4936.4611     -8553.2701     -52.727546     -2974.1397      6953.8833     -4884.6332     -462.44504      69419.522      41.098617      41.098617      41.098617      1.0542591      1028.5852     -1298.4203      547.3533     
   1980000   1980000        298.62123     -1051.5653      3044.7098      4109.3277      6247.8447     -2138.517       2379.091       4979.1944     -8535.1652     -51.824746     -3002.4959      6971.8178     -4879.1343     -462.44504      69419.522      41.098617      41.098617      41.098617      1.0542591     -618.25332     -176.41611     -2360.0266    
   1981000   1981000        296.55411     -189.76899      3896.1003      4088.2248      6204.5957     -2116.3708      2417.3684      5032.4722     -8541.2731     -57.252205     -3040.8765      6953.9048     -4880.7145     -462.44504      69419.522      41.098617      41.098617      41.098617      1.0542591      58.197239     -653.97092      26.466701    
   1982000   1982000        301.20911     -860.80421      3217.6984      4089.1874      6301.9891     -2212.8017      2334.042       5011.5566     -8570.4134     -53.977965     -3015.242       6960.3733     -4879.1403     -462.44504      69419.522      41.098617      41.098617      41.098617      1.0542591     -1332.4694      312.42593     -1562.3692    
   1983000   1983000        301.21259     -45.665658      4139.8933      4186.1257      6302.0619     -2115.9362      2366.122       4966.3739     -8511.8441     -53.79552      -2971.8047      6968.5928     -4879.5806     -462.44504      69419.522      41.098617      41.098617      41.098617      1.0542591      706.92839     -1444.5198      600.59439    
   1984000   1984000        300.60101     -86.26054       3974.7577      4062.089       6289.2662     -2227.1772      2394.9622      4878.9366     -8574.6933     -50.768905     -2980.1932      6979.4588     -4874.8794     -462.44504      69419.522      41.098617      41.098617      41.098617      1.0542591      1072.9644     -1248.2732     -83.472779    
   1985000   1985000        295.83846     -586.6857       3415.0725      4009.0405      6189.6227     -2180.5822      2334.6959      4917.8687     -8541.6609     -51.450358     -2944.7926      6981.7373     -4876.9803     -462.44504      69419.522      41.098617      41.098617      41.098617      1.0542591     -1476.3271      1456.0451     -1739.7751    
   1986000   1986000        300.12109      1685.0816      5739.2191      4033.2214      6279.2253     -2246.0039      2291.662       4957.638      -8566.3852     -52.353631     -2953.7278      6961.6663     -4884.5036     -462.44504      69419.522      41.098617      41.098617      41.098617      1.0542591      1306.5416      1989.4443      1759.259     
   1987000   1987000        301.10297      11.095675      4100.5511      4089.3177      6299.7683     -2210.4506      2385.3071      4843.0988     -8548.6017     -53.445009     -2920.063       6965.6134     -4882.3601     -462.44504      69419.522      41.098617      41.098617      41.098617      1.0542591      203.16067      103.51153     -273.38518    
   1988000   1988000        296.11104      1151.2503      5144.6762      3979.136       6195.3257     -2216.1897      2321.4856      4905.1193     -8528.8507     -51.461822     -2944.499       6961.9472     -4879.9303     -462.44504      69419.522      41.098617      41.098617      41.098617      1.0542591      750.30537      1170.5003      1532.9451    
   1989000   1989000        300.8024      -190.21255      3842.5263      4035.0999      6293.4797     -2258.3798      2325.5177      4898.5184     -8519.6412     -48.83618      -3002.8206      6968.1931     -4879.311      -462.44504      69419.522      41.098617      41.098617      41.098617      1.0542591      730.3925      -139.56196     -1161.4682    
   1990000   1990000        298.94068     -858.2972       3133.7138      4002.6647      6254.5284     -2251.8637      2268.6404      4921.7131     -8482.5632     -54.007107     -2989.9945      6967.7954     -4883.4478     -462.44504      69419.522      41.098617      41.098617      41.098617      1.0542591      341.3181      -251.17391     -2665.0358    
   1991000   1991000        300.30954     -1982.7495      2173.5071      4180.8675      6283.1679     -2102.3004      2387.2186      4958.8744     -8518.6262     -50.919996     -2981.2085      6981.7463     -4879.3851     -462.44504      69419.522      41.098617      41.098617      41.098617      1.0542591     -928.56001     -1232.2866     -3787.4019    
   1992000   1992000        299.19654     -293.19039      3804.6028      4101.4324      6259.8815     -2158.4491      2343.3472      5028.9135     -8606.2674     -53.05246      -2954.4136      6964.3756     -4881.3519     -462.44504      69419.522      41.098617      41.098617      41.098617      1.0542591      182.44599      742.85303     -1804.8702    
   1993000   1993000        294.90294     -1982.405       2110.6173      4117.629       6170.0495     -2052.4205      2340.6947      5159.1327     -8586.4138     -55.664756     -3000.3134      6970.1158     -4879.9717     -462.44504      69419.522      41.098617      41.098617      41.098617      1.0542591     -1038.8366     -2060.0826     -2848.2959    
   1994000   1994000        301.44446     -424.11814      3750.6208      4180.0033      6306.9131     -2126.9097      2341.5335      4990.2571     -8542.6767     -55.197552     -2928.0965      6953.3424     -4886.072      -462.44504      69419.522      41.098617      41.098617      41.098617      1.0542591     -883.97871      551.28022     -939.65594    
   1995000   1995000        307.77169      322.03046      4574.2278      4248.2002      6439.2935     -2191.0933      2329.4262      4939.7255     -8550.8769     -53.572257     -2937.3349      6965.8659     -4884.3268     -462.44504      69419.522      41.098617      41.098617      41.098617      1.0542591     -794.31445      645.48262      1114.9232    
   1996000   1996000        307.34675     -380.03746      3933.7908      4318.5454      6430.4027     -2111.8572      2369.2584      5028.7752     -8582.3177     -54.147325     -2971.2999      6977.447      -4879.5728     -462.44504      69419.522      41.098617      41.098617      41.098617      1.0542591     -1411.114      -1080.4182      1351.4198    
   1997000   1997000        296.37947      382.91621      4405.7037      4018.0345      6200.9419     -2182.9074      2329.297       4965.2939     -8545.5306     -54.131822     -2978.4615      6976.8428     -4876.2171     -462.44504      69419.522      41.098617      41.098617      41.098617      1.0542591      1046.907      -880.57081      982.41246    
   1998000   1998000        302.04843     -256.73547      3910.3954      4170.3176      6319.5496     -2149.2319      2373.0824      4920.819      -8505.607      -54.888314     -2984.6316      6978.8178     -4876.8243     -462.44504      69419.522      41.098617      41.098617      41.098617      1.0542591     -191.59073      1234.5095     -1813.1252    
   1999000   1999000        295.59063      242.39985      4272.3534      4026.9447      6184.4376     -2157.4929      2366.0377      4889.6578     -8484.7255     -50.424361     -2969.1309      6968.5467     -4877.4544     -462.44504      69419.522      41.098617      41.098617      41.098617      1.0542591     -168.01494      297.11002      598.10448    
   2000000   2000000        301.74707     -414.08218      3541.0389      3960.2608      6313.2445     -2352.9837      2280.0418      4851.657      -8559.6277     -52.460509     -2963.7845      6969.6675     -4878.4773     -462.44504      69419.522      41.098617      41.098617      41.098617      1.0542591     -226.93684     -770.43758     -244.87213    
Loop time of 3226.55 on 1 procs for 2000000 steps with 7020 atoms

Performance: 53.556 ns/day, 0.448 hours/ns, 619.857 timesteps/s, 4.351 Matom-step/s
100.0% CPU use with 1 MPI tasks x 1 OpenMP threads

MPI task timing breakdown:
Section |  min time  |  avg time  |  max time  |%varavg| %total
---------------------------------------------------------------
Pair    | 32.645     | 32.645     | 32.645     |   0.0 |  1.01
Bond    | 590.92     | 590.92     | 590.92     |   0.0 | 18.31
Kspace  | 1888.9     | 1888.9     | 1888.9     |   0.0 | 58.54
Neigh   | 287.3      | 287.3      | 287.3      |   0.0 |  8.90
Comm    | 58.263     | 58.263     | 58.263     |   0.0 |  1.81
Output  | 20.961     | 20.961     | 20.961     |   0.0 |  0.65
Modify  | 279.44     | 279.44     | 279.44     |   0.0 |  8.66
Other   |            | 68.14      |            |       |  2.11

Nlocal:           7020 ave        7020 max        7020 min
Histogram: 1 0 0 0 0 0 0 0 0 0
Nghost:          19585 ave       19585 max       19585 min
Histogram: 1 0 0 0 0 0 0 0 0 0
Neighs:              0 ave           0 max           0 min
Histogram: 1 0 0 0 0 0 0 0 0 0
FullNghs:  4.51773e+06 ave 4.51773e+06 max 4.51773e+06 min
Histogram: 1 0 0 0 0 0 0 0 0 0

Total # of neighbors = 4517726
Ave neighs/atom = 643.55071
Ave special neighs/atom = 5.7008547
Neighbor list builds = 58922
Dangerous builds = 0

# --- Cleanup ---
unfix nvt_fix

undump dump_nvt

# --- Write Output ---
write_dump all custom nvt_production_last.dump id type mol x y z xu yu zu vx vy vz modify sort id
write_data /home/alexzhao/PolyJarvis/data/PEG2/lammps/equil/nvt_production/nvt_production_out.data
System init for write_data ...
PPPM Kokkos initialization ...
  using 12-bit tables for long-range coulomb
  G vector (1/distance) = 0.30294461
  grid = 30 30 30
  stencil order = 5
  estimated absolute RMS force accuracy = 0.00030667665
  estimated relative force accuracy = 9.2354762e-07
  using double precision cuFFT
  3d grid and FFT values/proc = 50653 27000
Generated 10 of 10 mixed pair_coeff terms from sixthpower/sixthpower mixing rule

print "STAGE COMPLETE: NVT T=300.0->300.0K steps=2000000"
STAGE COMPLETE: NVT T=300.0->300.0K steps=2000000
quit
  |            |       |  2.11

Nlocal:           7020 ave        7020 max        7020 min
Histogram: 1 0 0 0 0 0 0 0 0 0
Nghost:          19585 ave       19585 max       19585 min
Histogram: 1 0 0 0 0 0 0 0 0 0
Neighs:              0 ave           0 max           0 min
Histogram: 1 0 0 0 0 0 0 0 0 0
FullNghs:  4.51773e+06 ave 4.51773e+06 max 4.51773e+06 min
Histogram: 1 0 0 0 0 0 0 0 0 0

Total # of neighbors = 4517726
Ave neighs/atom = 643.55071
Ave special neighs/atom = 5.7008547
Neighbor list builds = 58922
Dangerous builds = 0
System init for write_data ...
PPPM Kokkos initialization ...
  using 12-bit tables for long-range coulomb
  G vector (1/distance) = 0.30294461
  grid = 30 30 30
  stencil order = 5
  estimated absolute RMS force accuracy = 0.00030667665
  estimated relative force accuracy = 9.2354762e-07
  using double precision cuFFT
  3d grid and FFT values/proc = 50653 27000
Generated 10 of 10 mixed pair_coeff terms from sixthpower/sixthpower mixing rule
STAGE COMPLETE: NVT T=300.0->300.0K steps=2000000
