units real
atom_style full
boundary p p p

# --- Force Field (injected via PAIR_STYLE_BLOCK) ---
pair_style lj/class2/coul/cut 9.5 9.5
dielectric 1.000000
bond_style class2
angle_style class2
dihedral_style class2
improper_style class2
special_bonds lj/coul 0 0 1
pair_modify mix sixthpower tail yes
neighbor 2.0 bin
neigh_modify delay 0 every 1 check yes
neigh_modify one 4000
# KOKKOS: package loaded via -pk kokkos on the command line

read_data /home/alexzhao/PolyJarvis/data/PVC3/lammps/equil/nvt_softheat/nvt_softheat_out.data
Reading data file ...
  orthogonal box = (0 0 0) to (48.385495 48.385495 48.385495)
  1 by 1 by 1 MPI processor grid
WARNING: Pair style lj/class2/coul/long/kk in data file differs from currently defined pair style lj/class2/coul/cut/kk (src/read_data.cpp:811)
  reading atoms ...
  3620 atoms
  reading velocities ...
  3620 velocities
  scanning bonds ...
  4 = max bonds/atom
  scanning angles ...
  12 = max angles/atom
  scanning dihedrals ...
  24 = max dihedrals/atom
  scanning impropers ...
  10 = max impropers/atom
  orthogonal box = (0 0 0) to (48.385495 48.385495 48.385495)
  1 by 1 by 1 MPI processor grid
  reading bonds ...
  3610 bonds
  reading angles ...
  7200 angles
  reading dihedrals ...
  10710 dihedrals
  reading impropers ...
  4800 impropers
Finding 1-2 1-3 1-4 neighbors ...
  special bond factors lj:    0        0        1       
  special bond factors coul:  0        0        1       
     4 = max # of 1-2 neighbors
     6 = max # of 1-3 neighbors
    10 = max # of special neighbors
  special bonds CPU = 0.002 seconds
  read_data CPU = 0.182 seconds
include /home/alexzhao/PolyJarvis/data/PVC3/lammps/equil/emc_build.params
# LAMMPS parameters created by EMC v9.4.4, build Jul 31 2025 20:33:44

# Variables

variable	seed		index	472913
variable	ntotal		index	3620
variable	fshape		index	1
variable	output		index	emc_build
variable	field		index	pcff/pcff
variable	location1	index	~/emc/field/
variable	nav		index	0.6022141179
variable	temperature	index	300
variable	radius		index	5
variable	nrelax		index	100
variable	weight_nonbond	index	0.0001
variable	weight_bond	index	0.0001
variable	weight_focus	index	1
variable	cutoff		index	9.5
variable	charge_cutoff	index	9.5
variable	kappa		index	4
variable	density1	index	0.55
variable	lprevious	index	0
variable	lphase		index	48.3854950346
variable	f_poly		index	10
variable	chem_repeat	index	*CC(Cl)*
variable	chem_cap	index	*[H]
variable	lg_repeat	index	6
variable	lg_cap		index	1
variable	norm_poly	index	100
variable	l_poly		index	362
variable	mg_repeat	index	50.48806
variable	mg_cap		index	1.00797
variable	m_poly		index	3031.29954
variable	n_poly		index	10
variable	mtotal		index	37519.6854
variable	nphase1		index	3620
variable	mphase1		index	37519.6854
variable	vphase1		index	113277.998291
variable	lbox		index	48.3854950346
variable	lphase1		index	48.3854950346
variable	lxx		index	48.3854950346
variable	lyy		index	48.3854950346
variable	lzz		index	48.3854950346
variable	lzy		index	0
variable	lzx		index	0
variable	lyx		index	0
variable	vtotal		index	113277.998291
variable	nl_poly		index	10

# Types

variable	type_c		index	1
variable	type_c1		index	2
variable	type_cl		index	3
variable	type_hc		index	4

variable	type_bond_c_c	index	1
variable	type_bond_c_c1	index	2
variable	type_bond_c_cl	index	3
variable	type_bond_c_hc	index	4
variable	type_bond_c1_cl	index	5
variable	type_bond_c1_hc	index	6

variable	type_angle_c_c_c1 index	1
variable	type_angle_c_c_cl index	2
variable	type_angle_c_c_hc index	3
variable	type_angle_c_c1_c index	4
variable	type_angle_c_c1_cl index	5
variable	type_angle_c_c1_hc index	6
variable	type_angle_c1_c_c1 index	7
variable	type_angle_c1_c_hc index	8
variable	type_angle_cl_c_hc index	9
variable	type_angle_cl_c1_hc index	10
variable	type_angle_hc_c_hc index	11

# Clusters

variable	n0_poly		index	1
variable	n1_poly		index	10
variable	nl_poly		index	10

# Flags

variable	flag_charged	index	1

# Masses

mass		1    12.01115  # c
mass		2    12.01115  # c1
mass		3    35.45300  # cl
mass		4     1.00797  # hc

# Potentials

pair_modify	mix sixthpower tail yes
special_bonds	lj/coul 0 0 1

# Pair Coeffs

pair_coeff	 1  1    0.05400    4.01000  # c,c
pair_coeff	 2  2    0.05400    4.01000  # c1,c1
pair_coeff	 3  3    0.22470    3.92000  # cl,cl
pair_coeff	 4  4    0.02000    2.99500  # hc,hc

# Bond Coeffs

bond_coeff	1    1.53000  299.67000 -501.77000  679.81000  # c,c
bond_coeff	2    1.53000  299.67000 -501.77000  679.81000  # c,c1
bond_coeff	3    1.79000  194.31900    0.00000    0.00000  # c,cl
bond_coeff	4    1.10100  345.00000 -691.89000  844.60000  # c,hc
bond_coeff	5    1.79000  194.31900    0.00000    0.00000  # c1,cl
bond_coeff	6    1.10100  345.00000 -691.89000  844.60000  # c1,hc

# Angle Coeffs

angle_coeff	 1  112.67000   39.51600   -7.44300   -9.55830  # c,c,c1
angle_coeff	 2  107.00000   61.17450    0.00000    0.00000  # c,c,cl
angle_coeff	 3  110.77000   41.45300  -10.60400    5.12900  # c,c,hc
angle_coeff	 4  112.67000   39.51600   -7.44300   -9.55830  # c,c1,c
angle_coeff	 5  107.00000   61.17450    0.00000    0.00000  # c,c1,cl
angle_coeff	 6  110.77000   41.45300  -10.60400    5.12900  # c,c1,hc
angle_coeff	 7  112.67000   39.51600   -7.44300   -9.55830  # c1,c,c1
angle_coeff	 8  110.77000   41.45300  -10.60400    5.12900  # c1,c,hc
angle_coeff	 9  107.99680   51.09870    0.00000    0.00000  # cl,c,hc
angle_coeff	10  107.99680   51.09870    0.00000    0.00000  # cl,c1,hc
angle_coeff	11  107.66000   39.64100  -12.92100   -2.43180  # hc,c,hc

# BondBond Coeffs

angle_coeff	 1 bb    0.00000    1.53000    1.53000  # c,c,c1
angle_coeff	 2 bb    0.00000    1.53000    1.79000  # c,c,cl
angle_coeff	 3 bb    3.38720    1.53000    1.10100  # c,c,hc
angle_coeff	 4 bb    0.00000    1.53000    1.53000  # c,c1,c
angle_coeff	 5 bb    0.00000    1.53000    1.79000  # c,c1,cl
angle_coeff	 6 bb    3.38720    1.53000    1.10100  # c,c1,hc
angle_coeff	 7 bb    0.00000    1.53000    1.53000  # c1,c,c1
angle_coeff	 8 bb    3.38720    1.53000    1.10100  # c1,c,hc
angle_coeff	 9 bb    0.00000    1.79000    1.10100  # cl,c,hc
angle_coeff	10 bb    0.00000    1.79000    1.10100  # cl,c1,hc
angle_coeff	11 bb    5.33160    1.10100    1.10100  # hc,c,hc

# BondAngle Coeffs

angle_coeff	 1 ba    8.01600    8.01600    1.53000    1.53000  # c,c,c1
angle_coeff	 2 ba    0.00000    0.00000    1.53000    1.79000  # c,c,cl
angle_coeff	 3 ba   20.75400   11.42100    1.53000    1.10100  # c,c,hc
angle_coeff	 4 ba    8.01600    8.01600    1.53000    1.53000  # c,c1,c
angle_coeff	 5 ba    0.00000    0.00000    1.53000    1.79000  # c,c1,cl
angle_coeff	 6 ba   20.75400   11.42100    1.53000    1.10100  # c,c1,hc
angle_coeff	 7 ba    8.01600    8.01600    1.53000    1.53000  # c1,c,c1
angle_coeff	 8 ba   20.75400   11.42100    1.53000    1.10100  # c1,c,hc
angle_coeff	 9 ba    0.00000    0.00000    1.79000    1.10100  # cl,c,hc
angle_coeff	10 ba    0.00000    0.00000    1.79000    1.10100  # cl,c1,hc
angle_coeff	11 ba   18.10300   18.10300    1.10100    1.10100  # hc,c,hc

# Dihedral Coeffs

dihedral_coeff	 1    0.00000    0.00000    0.05140    0.00000   -0.14300    0.00000  # c,c,c1,c
dihedral_coeff	 2    0.00000    0.00000    0.00000    0.00000    0.15000    0.00000  # c,c,c1,cl
dihedral_coeff	 3    0.00000    0.00000    0.03160    0.00000   -0.16810    0.00000  # c,c,c1,hc
dihedral_coeff	 4    0.00000    0.00000    0.05140    0.00000   -0.14300    0.00000  # c,c1,c,c1
dihedral_coeff	 5    0.00000    0.00000    0.03160    0.00000   -0.16810    0.00000  # c,c1,c,hc
dihedral_coeff	 6    0.00000    0.00000    0.00000    0.00000    0.15000    0.00000  # c1,c,c,cl
dihedral_coeff	 7    0.00000    0.00000    0.03160    0.00000   -0.16810    0.00000  # c1,c,c,hc
dihedral_coeff	 8    0.00000    0.00000    0.00000    0.00000    0.15000    0.00000  # c1,c,c1,cl
dihedral_coeff	 9    0.00000    0.00000    0.03160    0.00000   -0.16810    0.00000  # c1,c,c1,hc
dihedral_coeff	10    0.00000    0.00000    0.00000    0.00000   -0.10000    0.00000  # cl,c,c,hc
dihedral_coeff	11    0.00000    0.00000    0.00000    0.00000   -0.10000    0.00000  # cl,c1,c,hc
dihedral_coeff	12   -0.14320    0.00000    0.06170    0.00000   -0.10830    0.00000  # hc,c,c,hc
dihedral_coeff	13   -0.14320    0.00000    0.06170    0.00000   -0.10830    0.00000  # hc,c,c1,hc

# MiddleBondTorsion Coeffs

dihedral_coeff	 1 mbt  -17.78700   -7.18770    0.00000    1.53000  # c,c,c1,c
dihedral_coeff	 2 mbt    0.00000    0.00000    0.00000    1.53000  # c,c,c1,cl
dihedral_coeff	 3 mbt  -14.87900   -3.65810   -0.31380    1.53000  # c,c,c1,hc
dihedral_coeff	 4 mbt  -17.78700   -7.18770    0.00000    1.53000  # c,c1,c,c1
dihedral_coeff	 5 mbt  -14.87900   -3.65810   -0.31380    1.53000  # c,c1,c,hc
dihedral_coeff	 6 mbt    0.00000    0.00000    0.00000    1.53000  # c1,c,c,cl
dihedral_coeff	 7 mbt  -14.87900   -3.65810   -0.31380    1.53000  # c1,c,c,hc
dihedral_coeff	 8 mbt    0.00000    0.00000    0.00000    1.53000  # c1,c,c1,cl
dihedral_coeff	 9 mbt  -14.87900   -3.65810   -0.31380    1.53000  # c1,c,c1,hc
dihedral_coeff	10 mbt    0.00000    0.00000    0.00000    1.53000  # cl,c,c,hc
dihedral_coeff	11 mbt    0.00000    0.00000    0.00000    1.53000  # cl,c1,c,hc
dihedral_coeff	12 mbt  -14.26100   -0.53220   -0.48640    1.53000  # hc,c,c,hc
dihedral_coeff	13 mbt  -14.26100   -0.53220   -0.48640    1.53000  # hc,c,c1,hc

# EndBondTorsion Coeffs

dihedral_coeff	 1 ebt   -0.07320    0.00000    0.00000   -0.07320    0.00000    0.00000    1.53000    1.53000  # c,c,c1,c
dihedral_coeff	 2 ebt    0.00000    0.00000    0.00000    0.00000    0.00000    0.00000    1.53000    1.79000  # c,c,c1,cl
dihedral_coeff	 3 ebt    0.24860    0.24220   -0.09250    0.08140    0.05910    0.22190    1.53000    1.10100  # c,c,c1,hc
dihedral_coeff	 4 ebt   -0.07320    0.00000    0.00000   -0.07320    0.00000    0.00000    1.53000    1.53000  # c,c1,c,c1
dihedral_coeff	 5 ebt    0.24860    0.24220   -0.09250    0.08140    0.05910    0.22190    1.53000    1.10100  # c,c1,c,hc
dihedral_coeff	 6 ebt    0.00000    0.00000    0.00000    0.00000    0.00000    0.00000    1.53000    1.79000  # c1,c,c,cl
dihedral_coeff	 7 ebt    0.24860    0.24220   -0.09250    0.08140    0.05910    0.22190    1.53000    1.10100  # c1,c,c,hc
dihedral_coeff	 8 ebt    0.00000    0.00000    0.00000    0.00000    0.00000    0.00000    1.53000    1.79000  # c1,c,c1,cl
dihedral_coeff	 9 ebt    0.24860    0.24220   -0.09250    0.08140    0.05910    0.22190    1.53000    1.10100  # c1,c,c1,hc
dihedral_coeff	10 ebt    0.00000    0.00000    0.00000    0.00000    0.00000    0.00000    1.79000    1.10100  # cl,c,c,hc
dihedral_coeff	11 ebt    0.00000    0.00000    0.00000    0.00000    0.00000    0.00000    1.79000    1.10100  # cl,c1,c,hc
dihedral_coeff	12 ebt    0.21300    0.31200    0.07770    0.21300    0.31200    0.07770    1.10100    1.10100  # hc,c,c,hc
dihedral_coeff	13 ebt    0.21300    0.31200    0.07770    0.21300    0.31200    0.07770    1.10100    1.10100  # hc,c,c1,hc

# AngleTorsion Coeffs

dihedral_coeff	 1 at    0.38860   -0.31390    0.13890    0.38860   -0.31390    0.13890  112.67000  112.67000  # c,c,c1,c
dihedral_coeff	 2 at    0.00000    0.00000    0.00000    0.00000    0.00000    0.00000  112.67000  107.00000  # c,c,c1,cl
dihedral_coeff	 3 at   -0.24540    0.00000   -0.11360    0.31130    0.45160   -0.19880  112.67000  110.77000  # c,c,c1,hc
dihedral_coeff	 4 at    0.38860   -0.31390    0.13890    0.38860   -0.31390    0.13890  112.67000  112.67000  # c,c1,c,c1
dihedral_coeff	 5 at   -0.24540    0.00000   -0.11360    0.31130    0.45160   -0.19880  112.67000  110.77000  # c,c1,c,hc
dihedral_coeff	 6 at    0.00000    0.00000    0.00000    0.00000    0.00000    0.00000  112.67000  107.00000  # c1,c,c,cl
dihedral_coeff	 7 at   -0.24540    0.00000   -0.11360    0.31130    0.45160   -0.19880  112.67000  110.77000  # c1,c,c,hc
dihedral_coeff	 8 at    0.00000    0.00000    0.00000    0.00000    0.00000    0.00000  112.67000  107.00000  # c1,c,c1,cl
dihedral_coeff	 9 at   -0.24540    0.00000   -0.11360    0.31130    0.45160   -0.19880  112.67000  110.77000  # c1,c,c1,hc
dihedral_coeff	10 at    0.00000    0.00000    0.00000    0.00000    0.00000    0.00000  107.00000  110.77000  # cl,c,c,hc
dihedral_coeff	11 at    0.00000    0.00000    0.00000    0.00000    0.00000    0.00000  107.00000  110.77000  # cl,c1,c,hc
dihedral_coeff	12 at   -0.80850    0.55690   -0.24660   -0.80850    0.55690   -0.24660  110.77000  110.77000  # hc,c,c,hc
dihedral_coeff	13 at   -0.80850    0.55690   -0.24660   -0.80850    0.55690   -0.24660  110.77000  110.77000  # hc,c,c1,hc

# AngleAngleTorsion Coeffs

dihedral_coeff	 1 aat  -22.04500  112.67000  112.67000  # c,c,c1,c
dihedral_coeff	 2 aat    0.00000  112.67000  107.00000  # c,c,c1,cl
dihedral_coeff	 3 aat  -16.16400  112.67000  110.77000  # c,c,c1,hc
dihedral_coeff	 4 aat  -22.04500  112.67000  112.67000  # c,c1,c,c1
dihedral_coeff	 5 aat  -16.16400  112.67000  110.77000  # c,c1,c,hc
dihedral_coeff	 6 aat    0.00000  112.67000  107.00000  # c1,c,c,cl
dihedral_coeff	 7 aat  -16.16400  112.67000  110.77000  # c1,c,c,hc
dihedral_coeff	 8 aat    0.00000  112.67000  107.00000  # c1,c,c1,cl
dihedral_coeff	 9 aat  -16.16400  112.67000  110.77000  # c1,c,c1,hc
dihedral_coeff	10 aat    0.00000  107.00000  110.77000  # cl,c,c,hc
dihedral_coeff	11 aat    0.00000  107.00000  110.77000  # cl,c1,c,hc
dihedral_coeff	12 aat  -12.56400  110.77000  110.77000  # hc,c,c,hc
dihedral_coeff	13 aat  -12.56400  110.77000  110.77000  # hc,c,c1,hc

# BondBond13 Coeffs

dihedral_coeff	 1 bb13    0.00000    1.53000    1.53000  # c,c,c1,c
dihedral_coeff	 2 bb13    0.00000    1.53000    1.79000  # c,c,c1,cl
dihedral_coeff	 3 bb13    0.00000    1.53000    1.10100  # c,c,c1,hc
dihedral_coeff	 4 bb13    0.00000    1.53000    1.53000  # c,c1,c,c1
dihedral_coeff	 5 bb13    0.00000    1.53000    1.10100  # c,c1,c,hc
dihedral_coeff	 6 bb13    0.00000    1.53000    1.79000  # c1,c,c,cl
dihedral_coeff	 7 bb13    0.00000    1.53000    1.10100  # c1,c,c,hc
dihedral_coeff	 8 bb13    0.00000    1.53000    1.79000  # c1,c,c1,cl
dihedral_coeff	 9 bb13    0.00000    1.53000    1.10100  # c1,c,c1,hc
dihedral_coeff	10 bb13    0.00000    1.79000    1.10100  # cl,c,c,hc
dihedral_coeff	11 bb13    0.00000    1.79000    1.10100  # cl,c1,c,hc
dihedral_coeff	12 bb13    0.00000    1.10100    1.10100  # hc,c,c,hc
dihedral_coeff	13 bb13    0.00000    1.10100    1.10100  # hc,c,c1,hc

# Improper Coeffs

improper_coeff	 1    0.00000    0.00000  # c,c,cl,hc
improper_coeff	 2    0.00000    0.00000  # c,c,hc,c1
improper_coeff	 3    0.00000    0.00000  # c,c,hc,cl
improper_coeff	 4    0.00000    0.00000  # c,c,hc,hc
improper_coeff	 5    0.00000    0.00000  # c,c1,c1,hc
improper_coeff	 6    0.00000    0.00000  # c,c1,hc,hc
improper_coeff	 7    0.00000    0.00000  # c,cl,hc,hc
improper_coeff	 8    0.00000    0.00000  # c,hc,hc,hc
improper_coeff	 9    0.00000    0.00000  # c1,c,c,cl
improper_coeff	10    0.00000    0.00000  # c1,c,c,hc
improper_coeff	11    0.00000    0.00000  # c1,c,cl,hc

# AngleAngle Coeffs

improper_coeff	 1 aa    0.00000    0.00000    0.00000  107.00000  110.77000  107.99680  # c,c,cl,hc
improper_coeff	 2 aa    0.11840   -1.31990   -1.31990  110.77000  112.67000  110.77000  # c,c,hc,c1
improper_coeff	 3 aa    0.00000    0.00000    0.00000  110.77000  107.00000  107.99680  # c,c,hc,cl
improper_coeff	 4 aa    0.27380   -0.48250    0.27380  110.77000  110.77000  107.66000  # c,c,hc,hc
improper_coeff	 5 aa   -1.31990   -1.31990    0.11840  112.67000  110.77000  110.77000  # c,c1,c1,hc
improper_coeff	 6 aa    0.27380   -0.48250    0.27380  110.77000  110.77000  107.66000  # c,c1,hc,hc
improper_coeff	 7 aa    0.00000    0.00000    0.00000  107.99680  107.99680  107.66000  # c,cl,hc,hc
improper_coeff	 8 aa   -0.31570   -0.31570   -0.31570  107.66000  107.66000  107.66000  # c,hc,hc,hc
improper_coeff	 9 aa    0.00000    0.00000    0.00000  112.67000  107.00000  107.00000  # c1,c,c,cl
improper_coeff	10 aa   -1.31990   -1.31990    0.11840  112.67000  110.77000  110.77000  # c1,c,c,hc
improper_coeff	11 aa    0.00000    0.00000    0.00000  107.00000  110.77000  107.99680  # c1,c,cl,hc


# --- Thermo Output ---
thermo_style custom step time temp press enthalpy etotal ke pe ebond eangle edihed eimp evdwl ecoul vol lx ly lz density pxx pyy pzz
thermo_modify flush yes
thermo 1000

# --- Trajectory ---
dump dump_comp all custom 2000 npt_compress.dump id type mol x y z ix iy iz vx vy vz

restart 10000 compress_1.rst compress_2.rst
velocity all create 600.0 744652 mom yes rot yes dist gaussian
# SHAKE disabled

# --- NPT Compression ---
# High pressure compresses the cell from low to target density
# P ramp: 1.0 -> 50000.0 atm
timestep 0.5
fix npt_comp all npt temp 610.0 610.0 100.0 iso 1.0 50000.0 1000.0

run 300000
Generated 6 of 6 mixed pair_coeff terms from sixthpower/sixthpower mixing rule
Neighbor list info ...
  update: every = 1 steps, delay = 0 steps, check = yes
  max neighbors/atom: 4000, page size: 100000
  master list distance cutoff = 11.5
  ghost atom cutoff = 11.5
  binsize = 11.5, bins = 5 5 5
  1 neighbor lists, perpetual/occasional/extra = 1 0 0
  (1) pair lj/class2/coul/cut/kk, perpetual
      attributes: full, newton off, kokkos_device
      pair build: full/bin/kk/device
      stencil: full/bin/3d
      bin: kk/device
Per MPI rank memory allocation (min/avg/max) = 21.12 | 21.12 | 21.12 Mbytes
   Step          Time           Temp          Press         Enthalpy        TotEng         KinEng         PotEng         E_bond        E_angle        E_dihed        E_impro         E_vdwl         E_coul         Volume           Lx             Ly             Lz          Density          Pxx            Pyy            Pzz      
         0   0              600            601.2924       8719.8314      7726.4703      6472.5309      1253.9393      2518.3376      3617.2823     -1849.5339      21.819553      506.6579      -3560.6241      113278         48.385495      48.385495      48.385495      0.54999999     1056.9772      1536.5225     -789.62257    
      1000   500            616.46061      90.550272      7776.6099      7630.9719      6650.1007      980.8712       2527.9474      3563.6286     -1884.1108      22.926585      411.41843     -3660.939       110283.13      47.955272      47.955272      47.955272      0.56493591    -584.48121     -135.48151      991.61353    
      2000   1000           622.49397     -903.73279      6586.9624      7966.402       6715.1858      1251.2162      2665.1344      3585.675      -1844.6706      23.342752      391.40537     -3569.6707      104661.45      47.126181      47.126181      47.126181      0.5952803     -1132.5513     -970.316       -608.33111    
      3000   1500           612.81204      59.414963      7739.0547      7652.813       6610.7414      1042.0715      2490.402       3512.8725     -1828.3585      21.412539      464.24749     -3618.5044      99528.152      46.342769      46.342769      46.342769      0.62598266    -383.26298      121.36818      440.13969    
      4000   2000           609.13577      80.997018      7593.8704      7483.1277      6571.0836      912.04414      2511.1318      3408.264      -1829.6735      21.903206      408.35438     -3607.9357      93749.735      45.427972      45.427972      45.427972      0.66456613    -45.911199      122.37087      166.53138    
      5000   2500           613.31975     -613.75893      6727.1431      7518.5134      6616.2184      902.29497      2582.2578      3428.5917     -1851.8957      22.050851      299.28046     -3577.9901      88410.944      44.548732      44.548732      44.548732      0.70469667    -2.8826415     -1199.6952     -638.69898    
      6000   3000           613.04575     -911.27311      6559.1477      7657.868       6613.2626      1044.6054      2507.2682      3568.5161     -1871.1016      24.408675      304.57247     -3489.0585      82672.812      43.563313      43.563313      43.563313      0.75360806    -255.58737     -339.93326     -2138.2987    
      7000   3500           625.75209     -171.15287      7437.3911      7631.4173      6750.333       881.08433      2598.1127      3529.3528     -1890.0614      23.314869      180.1203      -3559.755       77732.057      42.677606      42.677606      42.677606      0.80150842    -368.39445      142.41284     -287.47701    
      8000   4000           610.82143      821.46263      8303.7559      7421.2556      6589.2676      831.98791      2583.2722      3524.7701     -1833.0966      24.526938      190.33621     -3657.8209      73663.303      41.919593      41.919593      41.919593      0.84577932     11.901124      922.95156      1529.5352    
      9000   4500           612.91953      542.28318      7908.105       7360.3717      6611.901       748.47073      2494.2556      3557.9593     -1844.086       24.10279       95.122757     -3578.8837      69257.553      41.066628      41.066628      41.066628      0.89958272     136.98238      477.17327      1012.6939    
     10000   5000           613.26755      233.82286      7671.2185      7447.106       6615.6553      831.45063      2517.0341      3562.88       -1819.8757      23.344891      96.692445     -3548.6251      65720.849      40.355344      40.355344      40.355344      0.94799289     695.91314      579.16045     -573.605      
     11000   5500           623.51263      188.12189      7754.4001      7583.251       6726.1746      857.07633      2562.2952      3613.7134     -1847.9367      24.934754      2.104465      -3498.0347      62382.019      39.66004       39.66004       39.66004       0.99873167    -1176.4519      2041.3349     -300.51735    
     12000   6000           613.85839     -716.75604      6998.6775      7619.0195      6622.0291      996.99037      2566.9907      3651.7253     -1808.4812      24.979433     -50.247106     -3387.9768      59344.969      39.00569       39.00569       39.00569       1.049843       152.08861     -1268.5579     -1033.7988    
     13000   6500           602.99159      737.3246       7732.9708      7126.2241      6504.8029      621.42124      2426.5118      3538.211      -1803.1297      23.974488     -34.333795     -3529.8125      56425.157      38.355201      38.355201      38.355201      1.1041688      1162.8071      789.00249      260.16426    
     14000   7000           618.73879      2585.1817      9223.6356      7182.8246      6674.6766      508.14802      2296.6283      3650.0306     -1812.5814      25.426913     -141.55866     -3509.7977      54129.726      37.827875      37.827875      37.827875      1.1509923      4180.2839      1687.5374      1887.7238    
     15000   7500           628.58062      3060.4523      9589.4831      7260.5076      6780.8459      479.66167      2412.8894      3546.0161     -1796.378       24.426939     -127.43844     -3579.8543      52179.921      37.368111      37.368111      37.368111      1.1940014      2708.3258      4541.4553      1931.5758    
     16000   8000           603.59686      2105.1941      8724.2513      7145.2675      6511.3322      633.93526      2512.2406      3641.5505     -1857.1429      25.860486     -140.4238      -3548.1495      51429.186      37.188034      37.188034      37.188034      1.2114308      2717.4369      2459.8527      1138.2926    
     17000   8500           602.782        2980.8804      9226.5604      7017.1483      6502.5419      514.60642      2401.8436      3561.867      -1793.2704      22.668757     -137.47804     -3541.0244      50822.531      37.041233      37.041233      37.041233      1.2258913      4222.8283      1537.0455      3182.7675    
     18000   9000           600.04203      3112.1425      9178.0194      6927.059       6472.9843      454.07468      2420.1861      3495.7155     -1770.8372      24.627474     -141.66076     -3573.9563      49594.383      36.740424      36.740424      36.740424      1.2562491      2877.0383      2466.7973      3992.5918    
     19000   9500           602.66438      2681.9323      8992.2715      7067.2771      6501.2731      566.00402      2446.5291      3585.9999     -1809.0912      24.026166     -222.28167     -3459.1782      49215.938      36.646732      36.646732      36.646732      1.265909       750.78757      4153.4861      3141.5233    
     20000   10000          600.41944      1725.8597      8260.5171      7037.4837      6477.0557      560.42804      2512.6275      3648.2366     -1810.5477      25.942473     -225.07044     -3590.7604      48591.119      36.490989      36.490989      36.490989      1.2821869      1553.6558      762.97487      2860.9486    
     21000   10500          595.28859      2476.4528      8854.4256      7118.0248      6421.7063      696.31844      2412.4823      3669.7237     -1805.3141      25.92864      -304.50733     -3301.9947      48077.738      36.362021      36.362021      36.362021      1.2958783      2802.0526      3867.1774      760.12853    
     22000   11000          601.75969      4187.0508      9928.035       7023.8908      6491.5136      532.3772       2413.0041      3576.761      -1827.0426      22.049161     -208.36528     -3444.0292      47559.147      36.230808      36.230808      36.230808      1.3100087      3358.356       4582.122       4620.6743    
     23000   11500          605.44239      3084.3053      9127.2277      6991.2946      6531.241       460.05366      2410.9416      3564.6997     -1775.7691      22.815752     -282.25345     -3480.3809      47484.776      36.211913      36.211913      36.211913      1.3120605      2245.1905      2389.8117      4617.9138    
     24000   12000          604.68419      5338.9839      10727.165      7068.1579      6523.0619      545.09597      2420.5727      3668.9911     -1776.5026      25.027971     -231.64666     -3561.3465      46992.523      36.086347      36.086347      36.086347      1.3258045      8401.5898      4086.5737      3528.7881    
     25000   12500          606.57129      3904.7541      9611.8138      6953.2962      6543.4191      409.87719      2316.7639      3715.4872     -1804.6578      24.575943     -322.269       -3520.0231      46684.204      36.007253      36.007253      36.007253      1.3345606      2593.6761      5789.7223      3330.8639    
     26000   13000          599.38493      4809.823       10192.255      6946.8461      6465.8959      480.95023      2368.9116      3708.8326     -1839.3709      25.884966     -318.49822     -3464.8098      46266.266      35.899479      35.899479      35.899479      1.3466161      4482.2377      4101.1643      5846.0672    
     27000   13500          612.36606      6269.6757      11230.754      7016.0087      6605.9305      410.07826      2409.7838      3633.6561     -1846.3366      23.430791     -297.5195      -3512.9364      46094.629      35.855031      35.855031      35.855031      1.3516303      4818.1767      8584.5475      5406.3031    
     28000   14000          615.44501      3722.4162      9668.0036      7133.8379      6639.1448      494.69307      2488.4336      3585.5859     -1848.4856      24.27724      -336.96423     -3418.1538      46680.359      36.006264      36.006264      36.006264      1.3346705      5930.4604      1280.183       3956.6053    
     29000   14500          617.25753      5494.9281      10746.578      7063.4052      6658.6975      404.70776      2394.1177      3586.1168     -1772.7409      23.733441     -282.07444     -3544.4449      45960.436      35.820203      35.820203      35.820203      1.3555767      3512.7765      7534.2264      5437.7814    
     30000   15000          611.25118      4065.9545      9624.2025      6917.3733      6593.9036      323.46966      2371.9768      3649.1748     -1882.8764      26.948852     -405.72841     -3436.026       45648.073      35.73887       35.73887       35.73887       1.3648528      4942.4223      3674.7568      3580.6845    
     31000   15500          617.28374      5974.2535      10961.199      7021.3191      6658.9802      362.33892      2326.9101      3594.0916     -1830.4255      22.749299     -373.25505     -3377.7315      45219.253      35.626607      35.626607      35.626607      1.3777958      5554.3388      6349.1834      6019.2384    
     32000   16000          608.12448      4178.1379      9880.1865      7118.8604      6560.1742      558.68618      2451.1481      3647.7837     -1819.5528      23.675266     -347.58244     -3396.7856      45316.779      35.652201      35.652201      35.652201      1.3748307      5789.7614      1804.9737      4939.6786    
     33000   16500          598.47353      4787.792       9737.8006      6639.1192      6456.0641      183.05509      2354.9642      3537.0372     -1792.0237      23.402612     -341.54608     -3598.7791      44377.8        35.404238      35.404238      35.404238      1.4039204      4991.726       4292.7037      5078.9463    
     34000   17000          614.1127       6065.3111      10746.737      6787.8854      6624.7724      163.11299      2436.4656      3606.0876     -1834.3118      23.578497     -470.25712     -3598.4497      44754.864      35.504228      35.504228      35.504228      1.3920922      5797.4752      6832.1854      5566.2726    
     35000   17500          617.82129      6647.0922      11426.916      7142.4693      6664.779       477.69032      2470.668       3600.7112     -1822.5491      23.767019     -456.21522     -3338.6916      44196.428      35.35594       35.35594       35.35594       1.4096817      6722.1426      5614.0087      7605.1253    
     36000   18000          598.75886      6180.8368      10855.865      6852.7067      6459.1421      393.56455      2407.0629      3646.1722     -1851.4305      23.537915     -345.47295     -3486.3051      44409.877      35.412767      35.412767      35.412767      1.4029063      6137.3653      6110.8842      6294.2607    
     37000   18500          611.98537      5578.8162      10426.53       6836.3055      6601.8237      234.4818       2349.536       3642.8338     -1807.4         24.469372     -392.59278     -3582.3646      44126.927      35.337397      35.337397      35.337397      1.411902       5467.0988      6241.5906      5027.7592    
     38000   19000          604.84579      7169.1181      11388.802      6791.0475      6524.8051      266.24243      2454.221       3650.8664     -1802.9992      22.619697     -373.97362     -3684.4918      43974.829      35.29675       35.29675       35.29675       1.4167854      8379.5426      5605.2583      7522.5535    
     39000   19500          611.0768       8021.7001      12031.901      6894.013       6592.0225      301.99046      2368.9959      3639.5542     -1824.6799      23.639509     -363.27477     -3542.2445      43917.975      35.281532      35.281532      35.281532      1.4186196      6569.5481      9914.3719      7581.1803    
     40000   20000          600.30866      7818.5641      11781.468      6790.9431      6475.8606      315.08246      2408.7039      3600.0272     -1820.982       24.269864     -350.71658     -3546.2198      43766.649      35.240963      35.240963      35.240963      1.4235245      9367.6809      9145.3884      4942.6229    
     41000   20500          610.93564      9216.6894      12747.655      6841.1868      6590.4997      250.68708      2442.5683      3563.99       -1853.0169      23.883885     -402.56419     -3524.174       43941.715      35.287888      35.287888      35.287888      1.4178531      8550.7914      12434.058      6665.2191    
     42000   21000          598.2136       4459.8068      9744.0945      6896.0996      6453.26        442.83954      2528.677       3574.3127     -1816.3174      22.863343     -419.87675     -3446.8193      43787.211      35.246481      35.246481      35.246481      1.4228561      5383.1968      3501.2526      4494.9709    
     43000   21500          600.17977      6362.0444      10937.927      6917.5071      6474.4702      443.03695      2568.5315      3582.2404     -1802.8194      25.255554     -375.33852     -3554.8326      43331.012      35.123647      35.123647      35.123647      1.4378362      4539.0663      7641.6294      6905.4374    
     44000   22000          610.05443      7053.2059      11146.291      6709.3401      6580.9937      128.34648      2324.9755      3594.2219     -1809.3308      22.569359     -412.77377     -3591.3157      43134.245      35.070401      35.070401      35.070401      1.4443952      7621.3493      6757.8111      6780.4574    
     45000   22500          605.61939      6527.5427      10875.752      6763.5206      6533.1504      230.37018      2408.9531      3584.2023     -1784.3436      22.216181     -429.50618     -3571.1516      43196.834      35.087356      35.087356      35.087356      1.4423024      8792.8744      5093.2798      5696.4739    
     46000   23000          608.24786      8925.2408      12385.582      6804.8892      6561.5052      243.38404      2354.0994      3745.9985     -1858.4294      23.460043     -393.72726     -3628.0172      42873.828      34.999681      34.999681      34.999681      1.4531685      8351.2121      10492.294      7932.2165    
     47000   23500          626.49441      6348.3138      10762.702      6781.5232      6758.3408      23.182393      2394.4588      3522.4017     -1789.3932      22.178765     -396.10614     -3730.3576      43000.884      35.034221      35.034221      35.034221      1.4488748      8144.6552      8021.3989      2878.8873    
     48000   24000          631.48557      6584.9853      11180.568      7108.2395      6812.1832      296.05629      2447.3421      3549.6242     -1792.4851      22.223407     -387.9195      -3542.7288      42404.518      34.871507      34.871507      34.871507      1.4692514      6975.9409      5734.4941      7044.5209    
     49000   24500          614.08908      6682.4081      11131.508      6967.9838      6624.5177      343.46611      2448.7124      3773.7768     -1844.6017      24.257643     -473.96186     -3584.7171      42722.067      34.958336      34.958336      34.958336      1.4583306      5477.8637      4932.4149      9636.9455    
     50000   25000          604.65412      9775.8222      12716.202      6657.7534      6522.7375      135.01586      2355.2555      3562.239      -1786.0011      21.574219     -451.99298     -3566.0588      42494.451      34.896141      34.896141      34.896141      1.466142       9981.5559      9805.4053      9540.5055    
     51000   25500          607.94885      7888.4457      11700.187      6853.8865      6558.2795      295.60702      2442.1777      3638.3971     -1804.6506      22.24187      -397.08993     -3605.4691      42125.297      34.794798      34.794798      34.794798      1.4789901      9113.0462      7156.8369      7395.4539    
     52000   26000          604.92508      8730.6         12342.294      6910.9092      6525.6605      385.24864      2462.042       3741.856      -1819.2728      22.871496     -404.37215     -3617.8759      42657.032      34.940588      34.940588      34.940588      1.460554       8479.9326      9862.7707      7849.0968    
     53000   26500          613.57756      8757.1776      12228.108      6856.0683      6618.9996      237.0687       2457.8912      3589.8304     -1816.7391      24.122721     -389.55785     -3628.4787      42062.892      34.777608      34.777608      34.777608      1.4811844      8689.9523      10567.986      7013.5942    
     54000   27000          617.04037      9057.8265      12442.432      6861.0016      6656.3548      204.64675      2359.7554      3605.2833     -1821.7392      23.659073     -419.61367     -3542.6981      42251.842      34.829605      34.829605      34.829605      1.4745605      8672.8271      8726.4736      9774.1787    
     55000   27500          601.6668       8744.7975      12084.497      6703.9172      6490.5116      213.40565      2389.5845      3577.9806     -1814.3757      21.598652     -354.16624     -3607.2161      42189.404      34.81244       34.81244       34.81244       1.4767428      10164.994      9296.4501      6772.9483    
     56000   28000          601.28087      9733.7822      12723.919      6778.3791      6486.3484      292.03067      2355.8906      3601.6306     -1805.3122      22.787897     -404.5809      -3478.3852      41882.614      34.727852      34.727852      34.727852      1.4875599      9132.3469      9337.3311      10731.669    
     57000   28500          605.71836      8825.9217      12046.161      6638.6736      6534.218       104.45552      2426.501       3564.8511     -1803.4491      23.135317     -519.95238     -3586.6304      42010.669      34.76321       34.76321       34.76321       1.4830256      8579.6125      10758.945      7139.2076    
     58000   29000          620.25862      7765.254       12010.85       7267.1817      6691.0719      576.1098       2521.7628      3658.8683     -1816.1637      21.714695     -381.40883     -3428.6634      41887.338      34.729158      34.729158      34.729158      1.4873922      8951.1466      7514.2436      6830.3716    
     59000   29500          608.49434      13155.446      14872.055      6920.2174      6564.164       356.05335      2463.391       3711.0138     -1831.3702      23.346618     -436.76731     -3573.5606      41446.328      34.606846      34.606846      34.606846      1.5032188      10743.315      13474.298      15248.724    
     60000   30000          616.51387      6951.1262      11111.275      6845.643       6650.6752      194.96783      2479.1256      3475.8227     -1804.4456      22.324622     -482.91017     -3494.9494      42077.732      34.781698      34.781698      34.781698      1.480662       9503.9362      6351.5948      4997.8475    
     61000   30500          607.08979      9914.0749      12812.989      6875.3809      6549.0125      326.36846      2349.1201      3634.0138     -1823.9423      22.338012     -387.09019     -3468.071       41066.1        34.500693      34.500693      34.500693      1.5171369      9564.3705      9343.835       10834.019    
     62000   31000          613.50184      9879.2195      12839.616      6816.4424      6618.1827      198.25966      2408.0426      3628.0581     -1821.2128      23.44541      -423.06282     -3617.0109      41804.866      34.70635       34.70635       34.70635       1.4903265      7763.244       11555.518      10318.897    
     63000   31500          608.22278      10562.864      13238.059      6925.4875      6561.2346      364.25293      2391.4125      3599.6349     -1822.0934      24.041433     -407.3125      -3421.4299      40977.808      34.47595       34.47595       34.47595       1.5204058      10325.41       10287.394      11075.788    
     64000   32000          610.10564      10229.519      13028.908      6859.6573      6581.546       278.11125      2479.6843      3649.629      -1864.7671      20.951071     -390.86747     -3616.5185      41352.457      34.580699      34.580699      34.580699      1.5066311      8921.1742      11043.245      10724.139    
     65000   32500          599.81064      14982.014      15862.805      6887.2693      6470.4882      416.78113      2383.8491      3726.9872     -1823.1558      21.504391     -319.06701     -3573.3367      41078.471      34.504157      34.504157      34.504157      1.5166801      15560.052      16913.624      12472.367    
     66000   33000          602.79744      9398.4129      12201.416      6582.7967      6502.7085      80.088232      2413.5508      3617.2226     -1796.4512      22.720886     -429.60625     -3747.3486      40992.006      34.479931      34.479931      34.479931      1.5198792      8996.2621      9156.7684      10042.208    
     67000   33500          619.26353      11204.238      13600.436      6922.127       6680.3372      241.78979      2419.9047      3607.7079     -1852.0503      22.913532     -386.52871     -3570.1574      40870.34       34.445785      34.445785      34.445785      1.5244037      10334.404      10223.405      13054.906    
     68000   34000          614.61116      11443.372      13761.532      6907.1038      6630.1496      276.95418      2472.9538      3561.8083     -1837.774       22.210731     -365.91261     -3576.3321      41071.571      34.502225      34.502225      34.502225      1.5169349      13315.93       9965.9472      11048.238    
     69000   34500          614.71606      12205.033      14072.765      6805.9585      6631.2812      174.67726      2357.7414      3613.1352     -1807.2116      23.269677     -393.49292     -3618.7644      40825.241      34.43311       34.43311       34.43311       1.5260877      10642.497      11895.821      14076.782    
     70000   35000          604.08901      11068.011      13298.723      6726.8385      6516.6414      210.19718      2425.1202      3448.2832     -1828.6898      22.742671     -380.77611     -3476.4829      40714.063      34.401825      34.401825      34.401825      1.530255       13394.051      9622.6648      10187.316    
     71000   35500          594.20255      11700.403      13505.527      6579.7616      6409.9907      169.77095      2346.6366      3622.5281     -1859.4587      25.024158     -357.83483     -3607.1244      40587.385      34.366108      34.366108      34.366108      1.5350311      13535.526      10898.919      10666.763    
     72000   36000          609.17212      14625.3        15377.955      6747.0784      6571.4756      175.60277      2333.2224      3589.7048     -1853.1606      21.902389     -357.93362     -3558.1326      40464.504      34.331392      34.331392      34.331392      1.5396926      14164.251      13813.321      15898.328    
     73000   36500          600.2676       14380.984      15203.384      6695.9357      6475.4176      220.51805      2383.7623      3627.209      -1837.0451      22.928678     -348.88597     -3627.4508      40563.444      34.35935       34.35935       34.35935       1.5359371      15003.792      15121.085      13018.076    
     74000   37000          610.09374      13506.47       14892.136      6922.8021      6581.4177      341.38434      2507.174       3631.2523     -1818.0491      23.070616     -304.27438     -3697.789       40457.986      34.329548      34.329548      34.329548      1.5399407      14169.323      11151.99       15198.097    
     75000   37500          615.34176      13892.978      14909.81       6756.5948      6638.031       118.56376      2304.5798      3625.4725     -1871.8693      23.565421     -350.67176     -3612.513       40239.972      34.267774      34.267774      34.267774      1.5482838      13467.598      12884.586      15326.751    
     76000   38000          605.53921      11501.205      13551.208      6755.1907      6532.2854      222.90533      2402.4517      3574.6359     -1836.3813      23.356514     -339.96468     -3601.1928      40516.808      34.346177      34.346177      34.346177      1.537705       10077.349      12780.826      11645.439    
     77000   38500          605.96669      12813.166      14267.66       6777.6733      6536.8969      240.77638      2379.5914      3603.8762     -1832.5624      21.893084     -361.03675     -3570.9852      40081.935      34.222854      34.222854      34.222854      1.5543885      13701.468      12039.151      12698.881    
     78000   39000          615.95841      11808.497      13769.478      6821.753       6644.6832      177.06989      2342.5888      3613.7371     -1817.2416      20.244397     -321.91211     -3660.3467      40343.364      34.297098      34.297098      34.297098      1.5443159      11734.148      12171.774      11519.568    
     79000   39500          621.23937      10911.463      13103.628      6722.8098      6701.6518      21.157989      2408.4794      3584.4537     -1800.8386      23.482918     -431.88905     -3762.5305      40097.521      34.227289      34.227289      34.227289      1.5537843      9225.0279      12700.604      10808.757    
     80000   40000          606.56675      12212.06       13887.412      6738.8845      6543.3701      195.51443      2436.6873      3536.9782     -1820.903       24.254652     -387.09624     -3594.4065      40137.631      34.238698      34.238698      34.238698      1.5522316      13471.912      10598.435      12565.834    
     81000   40500          610.25772      13753.267      14869.971      6858.6595      6583.1866      275.47292      2352.4098      3695.4331     -1846.9334      24.589687     -340.47902     -3609.5473      39941.269      34.182773      34.182773      34.182773      1.5598627      16570.717      12790.112      11898.973    
     82000   41000          614.26979      15547.61       15914.203      6854.1377      6626.4671      227.67065      2297.2124      3515.3008     -1856.5683      22.072644     -294.16445     -3456.1825      39956.902      34.187232      34.187232      34.187232      1.5592525      15838.062      16961.6        13843.167    
     83000   41500          601.48643      12665.343      14200.508      6787.4381      6488.5659      298.87217      2376.7758      3599.8883     -1849.8624      22.404531     -319.87301     -3530.4611      40133.336      34.237477      34.237477      34.237477      1.5523977      16240.628      12253.385      9502.0167    
     84000   42000          607.08044      16338.854      16321.357      6839.3044      6548.9116      290.39286      2387.4577      3591.0744     -1861.8535      21.361667     -283.43974     -3564.2076      39792.833      34.140375      34.140375      34.140375      1.5656814      17682.376      14890.668      16443.518    
     85000   42500          614.37322      11968.653      13650.565      6655.0339      6627.5828      27.45112       2383.646       3504.4007     -1824.7118      21.479704     -313.48169     -3743.8818      40077.398      34.221563      34.221563      34.221563      1.5545645      11401.921      13811.931      10692.106    
     86000   43000          597.14085      13945.28       14609.26       6540.2452      6441.6877      98.557523      2349.0745      3564.4131     -1834.3714      23.399018     -301.55385     -3702.4039      39675.04       34.106655      34.106655      34.106655      1.5703298      13561.371      12283.331      15991.138    
     87000   43500          611.28864      15178.504      15709.88       6948.1576      6594.3077      353.84992      2401.9447      3698.6317     -1827.7634      22.970652     -264.3868      -3677.547       39580.803      34.07963       34.07963       34.07963       1.5740686      17590.827      14318.324      13626.361    
     88000   44000          621.92723      11951.839      13973.832      6992.2489      6709.0721      283.17679      2464.5081      3576.4314     -1841.0763      23.664078     -405.78881     -3534.5617      40053.759      34.214833      34.214833      34.214833      1.5554819      11364.584      12702.528      11788.406    
     89000   44500          604.92801      15340.214      15668.242      6833.9494      6525.6921      308.25722      2280.8309      3652.5329     -1771.9104      24.673956     -295.28736     -3582.5828      39487.938      34.052956      34.052956      34.052956      1.5777703      16356.017      13485.757      16178.868    
     90000   45000          611.5536       14158.097      14916.531      6712.5522      6597.166       115.38619      2372.2818      3609.0615     -1830.9031      22.027039     -299.34493     -3757.736       39732.306      34.123056      34.123056      34.123056      1.5680665      14859.006      14434.085      13181.2      
     91000   45500          630.84732      17539.499      17201.101      7164.268       6805.298       358.96998      2320.2317      3626.6272     -1812.6154      22.205492     -305.107       -3492.3719      39237.706      33.980873      33.980873      33.980873      1.5878323      19128.067      17667.388      15823.042    
     92000   46000          621.14939      14883.316      15441.573      6867.8797      6700.6811      167.19859      2332.1726      3643.0206     -1812.7044      22.457361     -253.81432     -3763.9333      39499.57       34.056299      34.056299      34.056299      1.5773057      18269.856      13746.548      12633.543    
     93000   46500          618.49608      14326.298      15324.032      7052.1802      6672.0583      380.12187      2421.5532      3547.2152     -1775.2488      21.336741     -297.85907     -3536.8753      39590.673      34.082462      34.082462      34.082462      1.5736762      12996.502      13502.326      16480.064    
     94000   47000          599.96767      15929.795      15648.57       6565.539       6472.1822      93.356854      2230.3419      3491.3241     -1860.5448      22.41133      -204.71663     -3585.459       39097.115      33.94024       33.94024       33.94024       1.5935421      15862.64       16570.863      15355.883    
     95000   47500          617.09022      15750.363      16104.267      7089.3374      6656.8925      432.44483      2344.3366      3636.0542     -1827.85        22.956062     -215.82007     -3527.232       39246.043      33.98328       33.98328       33.98328       1.587495       15925.867      14945.786      16379.436    
     96000   48000          618.37629      18081.667      17340.777      6970.7022      6670.7661      299.93613      2410.4317      3510.3766     -1820.4352      21.990715     -282.17397     -3540.2537      39324.89       34.006022      34.006022      34.006022      1.5843121      17008.699      17361.285      19875.018    
     97000   48500          596.4128       16341.207      15838.356      6513.9369      6433.8338      80.103084      2282.0096      3500.173      -1802.9125      20.475783     -241.10755     -3678.5353      39125.667      33.9485        33.9485        33.9485        1.5923792      17771.636      15826.127      15425.858    
     98000   49000          620.14657      17761.491      17033.544      6876.6852      6689.8631      186.82207      2222.7025      3643.733      -1871.6805      22.414665     -261.05516     -3569.2925      39210.655      33.973063      33.973063      33.973063      1.5889278      18132.099      18372.153      16780.22     
     99000   49500          606.18849      18401.687      17363.212      6882.9255      6539.2896      343.63588      2346.8428      3626.4872     -1836.9333      21.604288     -142.34811     -3672.017       39051.673      33.927085      33.927085      33.927085      1.5953964      17956.285      18480.509      18768.268    
    100000   50000          617.47887      16588.658      16547.205      7122.4154      6661.0851      461.33026      2370.0107      3654.6112     -1861.7122      21.08719      -125.59285     -3597.0738      38956.91       33.89962       33.89962       33.89962       1.5992772      14993.411      18653.056      16119.507    
    101000   50500          617.08238      19096.7        17759.744      6857.1898      6656.8079      200.38187      2316.3183      3652.4757     -1878.943       22.93864      -245.57952     -3666.8283      39146.599      33.954553      33.954553      33.954553      1.5915277      19224.061      21044.333      17021.707    
    102000   51000          612.28416      16988.287      16416.797      6766.1767      6605.047       161.12976      2303.6143      3569.2287     -1877.6912      22.868418     -250.12452     -3606.766       38952          33.898196      33.898196      33.898196      1.5994788      16263.431      16377.938      18323.492    
    103000   51500          618.19086      18132.36       17242.069      6949.6085      6668.7658      280.84277      2339.3201      3619.3739     -1848.218       23.065673     -226.96344     -3625.7354      38921.448      33.889331      33.889331      33.889331      1.6007343      19587.028      16838.004      17972.049    
    104000   52000          609.19702      16940.867      16562.545      7005.4026      6571.7443      433.65835      2410.2096      3615.6698     -1819.7841      23.285998     -125.53705     -3670.186       38682.678      33.819889      33.819889      33.819889      1.6106149      17419.595      18295.474      15107.53     
    105000   52500          593.4477       16421.212      16219.014      6894.9655      6401.8477      493.11783      2453.0225      3698.9539     -1844.1161      22.194847     -241.88496     -3595.0524      38933.496      33.892828      33.892828      33.892828      1.600239       19258.908      17777.199      12227.53     
    106000   53000          593.28235      18582.662      17451.065      6956.891       6400.0639      556.82712      2347.9204      3651.1207     -1809.3448      21.783126     -220.9816      -3433.6707      38722.594      33.831518      33.831518      33.831518      1.6089547      19467.043      16173.931      20107.012    
    107000   53500          611.18366      17804.282      16890.138      6848.7345      6593.1753      255.55925      2306.5197      3622.4911     -1836.1124      23.374579     -241.094       -3619.6197      38671.769      33.81671       33.81671       33.81671       1.6110692      16267.048      20934.45       16211.349    
    108000   54000          616.74407      16894.742      16451.076      6862.5964      6653.1585      209.4379       2279.7413      3656.8919     -1855.353       22.511644     -292.40064     -3601.9532      38915.469      33.887596      33.887596      33.887596      1.6009802      15886.488      15636.87       19160.868    
    109000   54500          601.38182      17917.066      17100.949      7046.5369      6487.4374      559.09952      2450.8109      3672.5704     -1832.7814      23.309579     -153.16635     -3601.6436      38478.126      33.760171      33.760171      33.760171      1.619177       16537.412      17071.135      20142.649    
    110000   55000          603.11972      17501.624      16643.388      6868.7905      6506.185       362.60545      2345.2154      3598.947      -1809.7827      21.272232     -134.71089     -3658.3356      38295.225      33.706594      33.706594      33.706594      1.6269104      16736.696      17942.244      17825.932    
    111000   55500          614.48244      18538.768      17445.372      7015.4307      6628.761       386.66969      2371.943       3607.627      -1830.6376      21.114606     -139.04475     -3644.3326      38576.702      33.788976      33.788976      33.788976      1.6150395      19019.923      18319.881      18276.499    
    112000   56000          610.88238      19491.112      17669.056      6783.4016      6589.9251      193.47645      2371.2151      3607.0657     -1881.1429      21.884152     -142.52077     -3783.0249      38294.996      33.706527      33.706527      33.706527      1.6269201      20536.264      18084.858      19852.214    
    113000   56500          609.53197      18864.609      17504.527      6893.5001      6575.3575      318.14259      2352.9389      3732.1026     -1867.0457      22.937002     -204.32276     -3718.4675      38568.586      33.786606      33.786606      33.786606      1.6153794      19746.077      20839.008      16008.743    
    114000   57000          623.90769      20748.042      18601.336      7041.7258      6730.4364      311.28934      2476.4494      3645.4207     -1856.6333      21.519593     -192.61506     -3782.852       38202.358      33.679326      33.679326      33.679326      1.6308652      22889.935      18543.341      20810.85     
    115000   57500          616.32082      19837.6        17856.579      6804.5433      6648.5926      155.95074      2459.63        3621.0468     -1859.9643      22.227797     -239.80233     -3847.1872      38201.221      33.678992      33.678992      33.678992      1.6309138      19840.617      18245.979      21426.204    
    116000   58000          609.911        22233.929      19343.344      6929.5489      6579.4463      350.10255      2459.769       3631.061      -1833.856       21.560167     -173.10364     -3755.328       38283.572      33.703175      33.703175      33.703175      1.6274055      24825.759      21549.519      20326.511    
    117000   58500          618.20631      19817.125      18019.386      7052.0608      6668.9324      383.12833      2301.6159      3646.0599     -1785.7452      20.985833     -169.66152     -3630.1267      37947.59       33.604291      33.604291      33.604291      1.6418143      19257.702      19647.093      20546.58     
    118000   59000          602.82359      20723.529      18367.26       6874.7836      6502.9906      371.793        2296.9904      3650.7165     -1853.6003      21.405513     -150.58747     -3593.1317      38025.419      33.627249      33.627249      33.627249      1.6384539      21607.836      18814.643      21748.107    
    119000   59500          607.88814      18896.475      17262.593      6711.5894      6557.6247      153.96471      2286.085       3523.8626     -1824.0672      20.031517     -193.63187     -3658.3154      38285.743      33.703812      33.703812      33.703812      1.6273133      20446.992      16540.25       19702.182    
    120000   60000          607.27198      19247.324      17483.668      6822.007       6550.9778      271.02917      2296.6185      3607.1093     -1792.0973      20.664062     -132.19407     -3729.0713      37982.07       33.614465      33.614465      33.614465      1.6403239      19399.793      20921.907      17420.271    
    121000   60500          615.32726      20541.389      18349.287      6966.0975      6637.8745      328.22297      2392.6042      3631.1311     -1826.1571      23.035392     -160.56343     -3731.8271      37997.786      33.619101      33.619101      33.619101      1.6396455      20064.857      21445.608      20113.7      
    122000   61000          615.84759      21016.031      18709.393      7062.2493      6643.4877      418.76157      2295.849       3704.7784     -1784.7915      22.533138     -132.56872     -3687.0388      38000.809      33.619993      33.619993      33.619993      1.6395151      20814.093      22971.488      19262.512    
    123000   61500          615.51247      21939.868      19282.68       7133.8622      6639.8725      493.98963      2354.4551      3658.9792     -1799.219       21.776622     -54.397019     -3687.6053      37968.559      33.610479      33.610479      33.610479      1.6409076      22011.462      22677.908      21130.235    
    124000   62000          608.09938      22910.643      19608.472      6988.1285      6559.9034      428.22505      2331.9492      3656.5223     -1795.1308      20.909147     -65.322666     -3720.7021      37770.959      33.552071      33.552071      33.552071      1.6494921      24744.712      20691.154      23296.062    
    125000   62500          615.01484      17489.345      16508.273      6810.0078      6634.5043      175.50348      2373.1818      3603.2589     -1847.7849      21.990365     -146.46407     -3828.6786      38022.847      33.626491      33.626491      33.626491      1.6385648      16434.542      16451.192      19582.301    
    126000   63000          602.31578      19218.453      17356.052      6720.5687      6497.5126      223.05617      2292.1451      3675.7214     -1823.061       22.267467     -145.71888     -3798.2979      37945.731      33.603742      33.603742      33.603742      1.6418948      18118.824      20147.592      19388.943    
    127000   63500          603.86124      22537.667      19261.452      6851.0586      6514.1843      336.87434      2341.3557      3635.2399     -1812.2935      22.510363     -29.054608     -3820.8835      37757.28       33.548021      33.548021      33.548021      1.6500897      20993.462      23444.025      23175.515    
    128000   64000          615.74766      20189.957      18202.805      7056.4328      6642.4096      414.02322      2340.1386      3619.5877     -1884.5455      22.608346     -77.130817     -3606.6351      37854.914      33.576912      33.576912      33.576912      1.6458338      17915.292      21207.639      21446.939    
    129000   64500          617.43494      20514.128      18344.119      7091.1746      6660.6112      430.56339      2309.1376      3596.5924     -1861.6546      23.472502     -79.099216     -3557.8853      37612.933      33.505214      33.505214      33.505214      1.6564222      20574.988      20744.394      20223.003    
    130000   65000          602.4133       22266.798      19042.501      6805.7714      6498.5645      307.20693      2289.2851      3606.4696     -1828.6714      21.0163       -53.174638     -3727.7181      37681.804      33.525652      33.525652      33.525652      1.6533948      18418.399      25193.519      23188.478    
    131000   65500          608.60837      21543.184      18746.674      6895.7738      6565.3942      330.37962      2332.3546      3667.0447     -1830.0223      23.313127     -39.889004     -3822.4215      37719.467      33.536818      33.536818      33.536818      1.6517438      21533.876      21588.956      21506.719    
    132000   66000          602.60418      22173.98       19048.009      6960.3524      6500.6237      459.72868      2369.8925      3714.7654     -1852.9528      23.626367     -74.944743     -3720.6581      37378.56       33.435477      33.435477      33.435477      1.6668084      20039.893      21886.207      24595.839    
    133000   66500          607.00335      19731.97       17762.561      6894.9616      6548.08        346.88159      2395.5282      3637.5363     -1820.133       22.877021     -139.54427     -3749.3826      37764.808      33.55025       33.55025       33.55025       1.6497607      20781.797      20196.332      18217.781    
    134000   67000          626.40924      22999.383      19704.849      7112.1606      6757.422       354.73864      2373.7475      3570.9538     -1822.4524      20.327704     -59.93018      -3727.9078      37542.776      33.48437       33.48437       33.48437       1.6595176      23513.871      22271.994      23212.285    
    135000   67500          614.18226      22673.761      19496.643      7191.9028      6625.5228      566.38005      2235.1846      3675.4052     -1844.4423      23.716433      91.547445     -3615.0314      37211.142      33.385483      33.385483      33.385483      1.6743076      20567.833      24095.241      23358.21     
    136000   68000          622.12258      22767.943      19583.729      7096.5499      6711.1794      385.37055      2361.9739      3635.1315     -1855.8691      22.949464     -20.642797     -3758.1725      37606.651      33.503349      33.503349      33.503349      1.6566989      23039.213      21806.637      23457.979    
    137000   68500          609.56107      22386.778      19158.367      6928.4101      6575.6715      352.73866      2372.3251      3570.4358     -1824.976       20.395686     -44.996747     -3740.4453      37459.108      33.459477      33.459477      33.459477      1.6632243      22264.602      21970.19       22925.541    
    138000   69000          599.79937      23133.46       19609.805      6961.0442      6470.3666      490.67756      2271.0309      3619.3579     -1806.431       21.176636     -24.496783     -3589.96        37491.386      33.469084      33.469084      33.469084      1.6617923      21974.121      22396.603      25029.656    
    139000   69500          609.23203      22499.265      19263.524      7013.7474      6572.1219      441.62552      2296.0538      3625.0374     -1810.6508      21.170994     -39.718294     -3650.2675      37332.231      33.421657      33.421657      33.421657      1.6688769      21424.269      21365.263      24708.262    
    140000   70000          608.71494      21318.918      18772.223      7115.6549      6566.5438      549.1111       2364.9394      3772.465      -1824.4044      23.861768     -63.952105     -3723.7985      37491.226      33.469037      33.469037      33.469037      1.6617994      21111.522      20889.868      21955.364    
    141000   70500          605.36769      21152.228      18718.081      7161.5375      6530.4352      631.10234      2404.9954      3578.6379     -1810.8354      21.971336      33.145671     -3596.8125      37462.429      33.460465      33.460465      33.460465      1.6630769      21493.597      22192.109      19770.979    
    142000   71000          610.05171      23182.002      19713.645      7120.3706      6580.9643      539.40629      2329.6693      3642.9561     -1864.6616      22.006228      12.466899     -3603.0306      37248.761      33.39673       33.39673       33.39673       1.6726167      23534.807      22056.898      23954.301    
    143000   71500          626.48301      21208.719      18675.069      7130.3709      6758.2178      372.15319      2321.486       3443.9427     -1831.1342      19.862329     -8.105643      -3573.898       37324.349      33.419305      33.419305      33.419305      1.6692293      21450.448      22427.265      19748.443    
    144000   72000          620.94473      25307.787      20853.11       7141.8925      6698.4733      443.41929      2360.426       3560.0494     -1809.1645      21.125293      5.48931       -3694.5062      37148.902      33.366859      33.366859      33.366859      1.6771128      27209.907      24856.909      23856.544    
    145000   72500          613.46507      25683.521      21081.809      7190.367       6617.7861      572.5809       2275.2272      3677.244      -1841.8656      21.684615      74.046585     -3633.7559      37086.587      33.348192      33.348192      33.348192      1.6799308      25968.784      28317.124      22764.656    
    146000   73000          618.04057      20708.484      18516.489      7198.6244      6667.1446      531.47979      2397.6504      3657.7822     -1820.405       19.949334     -78.96195      -3644.5352      37474.882      33.464173      33.464173      33.464173      1.6625242      20568.231      20534.315      21022.907    
    147000   73500          616.35992      25418.469      20940.104      7216.252       6649.0145      567.23753      2354.7316      3631.0651     -1803.8095      22.676214      50.703839     -3688.1297      37021.223      33.328588      33.328588      33.328588      1.6828968      26397.286      27429.428      22428.692    
    148000   74000          606.04589      25684.474      21018.656      7119.9634      6537.7513      582.21213      2345.1862      3645.2844     -1814.4848      22.314314      72.396736     -3688.4847      37104.567      33.35358       33.35358       33.35358       1.6791167      26303.824      22486.227      28263.373    
    149000   74500          617.42843      24349.775      20238.899      7126.0181      6660.541       465.47702      2283.4283      3550.8893     -1799.6929      20.665551      75.251902     -3665.0651      36925.575      33.299861      33.299861      33.299861      1.687256       24642.926      24169.635      24236.765    
    150000   75000          611.98402      24715.957      20062.108      6747.0609      6601.8092      145.25173      2221.7694      3621.6217     -1847.0958      21.692407      42.738377     -3915.4743      36939.363      33.304005      33.304005      33.304005      1.6866262      26359.927      25360.529      22427.415    
    151000   75500          592.6931       23667.983      19404.15       6545.6321      6393.7074      151.92473      2253.0321      3546.9732     -1838.7886      22.348966     -35.373583     -3796.2674      37252.359      33.397805      33.397805      33.397805      1.6724551      24934.317      23544.556      22525.076    
    152000   76000          611.88927      26804.238      21533.759      7048.9317      6600.787       448.14465      2291.7379      3591.808      -1847.7356      21.137725      60.676309     -3669.4796      37053.902      33.338392      33.338392      33.338392      1.6814126      25244.004      29533.599      25635.112    
    153000   76500          607.27482      24360.409      20169.795      7082.8491      6551.0085      531.84062      2351.6972      3632.0434     -1843.2204      21.913093      99.619954     -3730.2126      36836.455      33.27305       33.27305       33.27305       1.6913381      24167.87       24630.003      24283.355    
    154000   77000          613.68575      27674.655      21988.081      7133.6256      6620.1666      513.45896      2320.0522      3663.6732     -1856.9922      22.703783      141.23087     -3777.2089      36804.307      33.263367      33.263367      33.263367      1.6928154      26243.302      26374.608      30406.055    
    155000   77500          606.71333      25657.019      20823.591      7094.1112      6544.9514      549.15982      2363.4669      3665.5248     -1865.2647      23.001453      142.95377     -3780.5223      36692.052      33.229515      33.229515      33.229515      1.6979944      27421.233      21050.484      28499.339    
    156000   78000          615.62927      23660.93       19947.312      7195.6886      6641.1325      554.55613      2351.3244      3656.4778     -1814.8727      21.833103      115.32067     -3775.5271      36953.687      33.30831       33.30831       33.30831       1.6859724      24442.203      22243.71       24296.878    
    157000   78500          613.75154      25133.363      20761.194      7220.7156      6620.8764      599.83919      2407.6015      3659.9899     -1841.6373      21.91956       126.20502     -3774.2395      36940.905      33.304469      33.304469      33.304469      1.6865558      23508.02       26525.663      25366.405    
    158000   79000          614.64028      27736.448      21894.548      7085.5309      6630.4637      455.06723      2286.2135      3515.4591     -1816.4672      21.514719      173.69802     -3725.3509      36609.98       33.204721      33.204721      33.204721      1.7018009      30819.358      26862.584      25527.403    
    159000   79500          611.86577      24097.512      20017.491      7063.612       6600.5336      463.07844      2365.8863      3643.0992     -1867.1786      21.680078      124.27559     -3824.6841      36859.695      33.280045      33.280045      33.280045      1.6902717      24676.118      24453.271      23163.147    
    160000   80000          603.25481      27248.545      21538.307      6895.9207      6507.6424      388.27834      2332.3116      3643.5669     -1817.9987      21.271633      141.88931     -3932.7624      36846.197      33.275983      33.275983      33.275983      1.6908909      28677.836      28048.729      25019.07     
    161000   80500          611.37657      26186.077      20819.053      6807.3597      6595.2563      212.1034       2239.3651      3544.3919     -1822.4986      22.28939       91.908745     -3863.353       36689.712      33.228808      33.228808      33.228808      1.6981027      26041.908      25258.468      27257.855    
    162000   81000          613.47965      26339.475      21066.579      6973.713       6617.9433      355.76965      2338.2099      3573.4836     -1799.0178      21.490213      75.384793     -3853.7811      36687.348      33.228095      33.228095      33.228095      1.6982121      24217.124      27579.322      27221.978    
    163000   81500          612.54206      27418.744      21801.009      7176.5877      6607.8291      568.75863      2336.9116      3724.6785     -1823.1553      22.838881      139.95919     -3832.4743      36572.551      33.193401      33.193401      33.193401      1.7035426      26438.388      31148.858      24668.985    
    164000   82000          609.52055      29245.314      22603.301      7021.1739      6575.2344      445.93945      2354.7106      3693.6311     -1827.6762      21.352615      96.383015     -3892.4616      36533.776      33.181666      33.181666      33.181666      1.7053506      28556.526      30379.807      28799.61     
    165000   82500          608.90826      28891.694      22433.502      7089.1544      6568.6293      520.52509      2280.7845      3645.2007     -1834.7509      20.458263      229.82929     -3820.9968      36416.612      33.146157      33.146157      33.146157      1.7108373      31881.661      26462.636      28330.786    
    166000   83000          604.05999      28930.61       22411.497      7055.5008      6516.3283      539.17248      2300.0994      3589.1478     -1800.9148      20.834145      245.25682     -3815.2509      36395.235      33.13967       33.13967       33.13967       1.7118422      27978.364      27502.464      31311.001    
    167000   83500          621.58802      28707.078      22464.369      7171.7777      6705.4128      466.36489      2290.5537      3606.9997     -1788.322       22.031466      121.56757     -3786.4656      36527.186      33.179671      33.179671      33.179671      1.7056583      28970.235      29654.653      27496.345    
    168000   84000          626.29526      27078.866      21452.72       7094.2058      6756.1924      338.01337      2329.4565      3479.694      -1801.2444      18.968615      208.09079     -3896.9521      36358.263      33.128444      33.128444      33.128444      1.7135829      26581.282      27790.753      26864.564    
    169000   84500          619.1007       28260.811      22292.824      7282.6472      6678.5807      604.06654      2335.6304      3656.2048     -1796.2778      22.076619      193.26774     -3806.8353      36418.772      33.146812      33.146812      33.146812      1.7107358      26986.594      28376.598      29419.24     
    170000   85000          622.43263      29809.789      22963.766      7195.3197      6714.5241      480.79556      2325.7863      3631.0663     -1827.3368      23.486419      185.77566     -3857.9822      36270.547      33.101782      33.101782      33.101782      1.717727       31010.681      29011.501      29407.185    
    171000   85500          614.59917      26200.979      20984.525      7098.5664      6630.0203      468.54618      2267.3761      3645.3905     -1780.4194      20.91012       173.64531     -3858.3565      36339.794      33.122834      33.122834      33.122834      1.7144538      27363.409      26592.55       24646.979    
    172000   86000          596.88615      25272.925      20310.055      6871.184       6438.9401      432.24391      2380.0621      3525.1472     -1812.3435      20.858645      182.96887     -3864.4495      36461.236      33.15969       33.15969       33.15969       1.7087434      25362.917      26238.178      24217.681    
    173000   86500          597.68676      28517.091      21983.797      6844.6234      6447.5768      397.04661      2254.6594      3611.7024     -1805.5566      21.165436      131.01092     -3815.9349      36401.65       33.141617      33.141617      33.141617      1.7115405      28243.737      28306.045      29001.489    
    174000   87000          600.09856      27529.619      21563.163      6998.2851      6473.5942      524.69085      2298.9599      3574.8621     -1801.1138      21.296255      212.00132     -3781.3151      36276.95       33.103729      33.103729      33.103729      1.7174238      23705.088      29825.784      29057.986    
    175000   87500          605.46864      30456.849      23143.776      7089.0312      6531.5242      557.507        2303.8999      3665.3036     -1809.5397      20.94302       279.27774     -3902.3775      36144.527      33.0634        33.0634        33.0634        1.723716       30890.089      28175.819      32304.638    
    176000   88000          626.91863      29752.636      22986.468      7289.2968      6762.917       526.37975      2351.3022      3611.9732     -1852.5014      22.043399      213.37408     -3819.8118      36175.96       33.072982      33.072982      33.072982      1.7222182      27466.535      29874.585      31916.788    
    177000   88500          618.93414      30842.848      23471.044      7253.2503      6676.784       576.46627      2240.5605      3693.8205     -1860.0011      23.179274      264.85477     -3785.9477      36054.66       33.035975      33.035975      33.035975      1.7280124      30807.198      30338.237      31383.11     
    178000   89000          608.5476       30003.36       22820.182      6973.2474      6564.7386      408.50878      2277.4066      3628.0315     -1849.0872      23.133876      196.72503     -3867.7011      36215.917      33.085154      33.085154      33.085154      1.7203181      29160.52       31205.725      29643.837    
    179000   89500          601.79329      27377.848      21697.548      7142.3965      6491.8761      650.52043      2329.116       3676.2956     -1828.4293      22.887781      144.13487     -3693.4846      36453.694      33.157403      33.157403      33.157403      1.709097       28642.881      27007.931      26482.731    
    180000   90000          587.22274      30578.193      23063.013      6892.4523      6334.6955      557.75679      2251.639       3621.2119     -1813.228       21.382628      278.24008     -3801.4889      36260.8        33.098816      33.098816      33.098816      1.7181887      34036.688      28758.043      28939.848    
    181000   90500          604.91863      30697.718      22929.067      6829.8201      6525.5909      304.22913      2340.6331      3579.3192     -1803.1233      21.059722      224.28846     -4057.9481      35960.323      33.007137      33.007137      33.007137      1.7325455      29343.403      28775.272      33974.478    
    182000   91000          617.3037       29191.526      22432.214      7062.4789      6659.1955      403.28337      2253.6476      3628.1165     -1840.3048      22.040362      279.58344     -3939.7997      36102.201      33.050489      33.050489      33.050489      1.7257368      27905.502      31386.994      28282.083    
    183000   91500          610.89312      31549.576      23794.755      7185.8872      6590.041       595.84624      2243.264       3735.6676     -1856.3118      23.432475      336.94374     -3887.1498      36096.959      33.048889      33.048889      33.048889      1.7259875      30639.76       32548.583      31460.387    
    184000   92000          609.10992      31820.344      23711.152      7048.7277      6570.8047      477.92298      2293.894       3631.8904     -1829.7109      21.910912      321.64309     -3961.7046      35905.207      32.990266      32.990266      32.990266      1.7352051      31361.989      33887.205      30211.836    
    185000   92500          602.93997      29968.528      22834.834      7104.287       6504.246       600.04102      2322.9011      3674.4706     -1834.0849      20.87616       274.29717     -3858.4191      35991.713      33.016739      33.016739      33.016739      1.7310345      25920.299      31906.124      32079.16     
    186000   93000          624.44184      32192.367      24157.486      7310.9663      6736.1985      574.76775      2302.7616      3580.5919     -1819.2033      19.131697      391.1207      -3899.6348      35882.394      32.983277      32.983277      32.983277      1.7363083      31456.077      32470.905      32650.118    
    187000   93500          622.73448      30833.629      23549.138      7397.603       6717.7803      679.82275      2335.2778      3621.7353     -1827.7186      23.328289      295.66168     -3768.4618      35918.094      32.994212      32.994212      32.994212      1.7345825      30764.642      29187.4        32548.844    
    188000   94000          615.87004      29251.031      22647.781      7262.4958      6643.7298      618.76593      2277.6913      3670.9528     -1806.4571      21.54375       301.59867     -3846.5636      36065.212      33.039198      33.039198      33.039198      1.7275067      29877.287      30311.967      27563.839    
    189000   94500          599.97048      30778.785      23156.299      7021.6604      6472.2125      549.44789      2271.7305      3676.112      -1853.6598      21.37778       281.91178     -3848.0244      35944.453      33.002281      33.002281      33.002281      1.7333105      33367.534      31844.193      27124.627    
[...]
    249000   124500         620.27976      40294.971      27974.487      7637.1835      6691.2999      945.88359      2228.6046      3544.4178     -1788.407       20.778526      736.62724     -3796.1375      34607.213      32.587838      32.587838      32.587838      1.8002865      38783.367      39493.167      42608.377    
    250000   125000         593.37187      41851.991      28412.599      7347.8581      6401.0297      946.82845      2296.8227      3466.185      -1823.7606      20.964098      816.02618     -3829.409       34511.522      32.557774      32.557774      32.557774      1.8052782      43741.823      40867.296      40946.854    
    251000   125500         618.15288      42718.786      29072.67       7540.0002      6668.3561      871.64413      2267.0116      3448.9841     -1815.828       20.20717       766.55717     -3815.2879      34562.336      32.573745      32.573745      32.573745      1.8026241      45984.023      42286.633      39885.702    
    252000   126000         614.5796       42739.157      29155.388      7685.4236      6629.8091      1055.6145      2273.4482      3601.9933     -1804.392       20.457338      843.71994     -3879.6123      34445.262      32.536924      32.536924      32.536924      1.8087509      41626.967      45320.499      41270.003    
    253000   126500         601.91367      39862.371      27516.388      7439.3467      6493.1747      946.17196      2255.9638      3645.4213     -1791.8514      21.350905      774.70837     -3959.4211      34535.098      32.565186      32.565186      32.565186      1.8040458      40708.641      40759.91       38118.563    
    254000   127000         603.29618      40108.636      27618.973      7486.74        6508.0887      978.65126      2129.5587      3673.9197     -1825.7548      21.395562      767.41848     -3787.8864      34417.408      32.528152      32.528152      32.528152      1.8102147      39151.159      38539.914      42634.836    
    255000   127500         611.20705      41321.401      28345.569      7568.4746      6593.4276      975.04699      2240.69        3558.7985     -1837.8989      19.458337      855.01909     -3861.0201      34477.351      32.547025      32.547025      32.547025      1.8070674      42027.864      42353.373      39582.965    
    256000   128000         621.73507      42859.554      29207.05       7664.8724      6706.9991      957.87328      2171.0089      3587.4017     -1790.1076      20.368516      840.60006     -3871.3984      34464.031      32.542833      32.542833      32.542833      1.8077658      42777.977      43925.882      41874.803    
    257000   128500         614.83399      44376.618      30086.515      7847.9657      6632.5533      1215.4123      2262.9643      3658.2888     -1816.1755      20.702548      877.79246     -3788.1602      34361.837      32.510635      32.510635      32.510635      1.8131422      44720.277      46532.635      41876.942    
    258000   129000         613.1585       43027.605      29405.235      7877.0721      6614.4789      1262.5931      2292.1362      3660.0773     -1842.4701      21.308724      939.11221     -3807.5712      34307.092      32.493361      32.493361      32.493361      1.8160355      42994.047      45722.211      40366.557    
    259000   129500         604.78638      39778.49       27605.141      7672.3956      6524.1643      1148.2313      2258.1179      3729.0447     -1849.1119      22.072392      837.34243     -3849.2343      34359.192      32.509801      32.509801      32.509801      1.8132818      40047.702      37724.714      41563.055    
    260000   130000         607.9067       42345.952      28908.481      7686.8048      6557.8249      1128.9799      2277.5853      3582.8513     -1833.7833      22.412752      877.0724      -3797.1585      34363.065      32.511023      32.511023      32.511023      1.8130774      43127.885      41089.16       42820.812    
    261000   130500         610.75843      43319.086      29500.899      7724.9991      6588.588       1136.4111      2265.966       3655.919      -1829.6953      21.492577      825.35945     -3802.6306      34468.385      32.544203      32.544203      32.544203      1.8075375      42907.513      41212.42       45837.326    
    262000   131000         607.7549       43066.25       29131.54       7472.6938      6556.1873      916.50653      2225.4033      3576.6268     -1819.4575      20.812664      792.01633     -3878.8951      34484.376      32.549235      32.549235      32.549235      1.8066993      43766.974      40458.013      44973.762    
    263000   131500         599.36561      41264.112      28008.049      7372.5472      6465.6874      906.85974      2259.782       3536.4668     -1823.9749      20.970878      794.63241     -3881.0174      34289.933      32.487943      32.487943      32.487943      1.8169443      39367.045      43672.564      40752.726    
    264000   132000         614.48268      43200.67       29148.307      7515.1787      6628.7637      886.41505      2286.2017      3544.6089     -1829.2158      19.316348      832.56321     -3967.0592      34336.258      32.502567      32.502567      32.502567      1.8144929      42386.734      45016.898      42198.376    
    265000   132500         617.33812      43594.037      29447.567      7667.1498      6659.5668      1007.583       2269.2782      3586.0919     -1853.5686      21.044661      878.20217     -3893.4654      34258.096      32.477885      32.477885      32.477885      1.8186328      42805.761      43893.665      44082.684    
    266000   133000         623.09875      42812.127      29025.002      7630.4692      6721.7099      908.75931      2197.9622      3624.7364     -1830.4         19.918959      787.08407     -3890.5423      34265.74       32.480301      32.480301      32.480301      1.8182271      44641.26       40360.602      43434.52     
    267000   133500         612.82786      45232.668      30288.445      7770.5581      6610.9122      1159.6459      2198.966       3655.7173     -1828.1151      20.365443      923.51296     -3810.8007      34134.971      32.438929      32.438929      32.438929      1.8251926      45422.319      42703.801      47571.885    
    268000   134000         628.50919      44780.772      30117.516      7771.9805      6780.0753      991.90514      2276.4463      3580.341      -1827.6072      20.202402      893.74018     -3951.2175      34215.532      32.464429      32.464429      32.464429      1.8208952      43840.835      46884.485      43616.995    
    269000   134500         625.26195      45262.375      30375.234      7811.3566      6745.0455      1066.311       2326.0132      3553.9351     -1811.7666      19.800587      950.09097     -3971.7622      34182.239      32.453896      32.453896      32.453896      1.8226687      47195.581      43829.827      44761.716    
    270000   135000         608.49897      45400.964      30433.303      7879.8527      6564.214       1315.6387      2287.164       3676.8532     -1824.9298      22.296995      990.82842     -3836.5741      34062.148      32.415845      32.415845      32.415845      1.8290948      47248.993      44192.771      44761.127    
    271000   135500         604.19829      46765.745      30883.354      7670.9045      6517.8203      1153.0842      2270.5901      3656.4268     -1828.0313      21.835619      974.20807     -3941.9451      34034.332      32.407019      32.407019      32.407019      1.8305897      46647.102      45342.885      48307.248    
    272000   136000         611.88708      43942.625      29685.06       7849.9228      6600.7634      1249.1594      2261.2928      3629.1595     -1818.9639      20.428533      985.70776     -3828.4653      34071.719      32.418881      32.418881      32.418881      1.828581       45694.079      46282.519      39851.276    
    273000   136500         620.63257      47055.551      31201.403      7838.3932      6695.1059      1143.2874      2254.9779      3647.2889     -1831.015       21.396116      1016.0069     -3965.3675      34044.114      32.410123      32.410123      32.410123      1.8300637      47883.113      45254.778      48028.763    
    274000   137000         604.90275      46936.73       31001.762      7736.4228      6525.4197      1211.0031      2300.4173      3639.3815     -1828.5355      21.567756      1045.3113     -3967.1393      33987.612      32.392183      32.392183      32.392183      1.833106       47068.715      47966.294      45775.181    
    275000   137500         610.00801      47809.443      31396.029      7727.9385      6580.4928      1147.4457      2131.7365      3722.4445     -1836.9306      21.886517      978.79667     -3870.4879      33944.832      32.378587      32.378587      32.378587      1.8354163      46502.845      48779.105      48146.378    
    276000   138000         609.46472      48454.11       31906.695      7868.909       6574.6321      1294.2769      2264.8186      3625.9203     -1846.7991      20.265973      1034.2703     -3804.1992      34016.369      32.401316      32.401316      32.401316      1.8315564      48279.699      49763.015      47319.617    
    277000   138500         612.84067      46549.205      30863.87       7747.203       6611.0503      1136.1527      2244.0998      3569.2656     -1831.4186      20.335144      984.75815     -3850.8874      34051.563      32.412487      32.412487      32.412487      1.8296634      45963.129      46912.791      46771.694    
    278000   139000         629.05436      47097.931      31283.658      7930.3749      6785.9564      1144.4186      2184.568       3581.9459     -1801.0517      21.673921      953.32569     -3796.0433      33999.32       32.395902      32.395902      32.395902      1.8324748      46223.253      47426.374      47644.165    
    279000   139500         620.732        44593.243      30319.285      8134.0101      6696.1784      1437.8317      2274.2375      3682.2194     -1850.1726      20.191521      1007.7508     -3696.3949      34112.997      32.431967      32.431967      32.431967      1.8263684      47939.212      44005.898      41834.619    
    280000   140000         602.69333      46434.99       30640.896      7628.7167      6501.5854      1127.1313      2280.0457      3626.3984     -1818.2014      21.482546      995.21203     -3977.806       33981.028      32.390091      32.390091      32.390091      1.8334612      46117.279      46998.043      46189.647    
    281000   140500         596.62462      46878.961      30768.215      7548.1534      6436.1189      1112.0345      2283.772       3684.9513     -1860.1087      20.90857       980.98401     -3998.4728      33963.27       32.384448      32.384448      32.384448      1.8344199      47438.875      46855.969      46342.039    
    282000   141000         611.913        46377.72       30769.073      7783.9718      6601.043       1182.9288      2247.865       3730.9024     -1841.8218      22.229404      935.57501     -3911.8212      33982.955      32.390703      32.390703      32.390703      1.8333573      46208.205      46419.802      46505.153    
    283000   141500         602.93536      47348.758      31297.296      7790.71        6504.1963      1286.5137      2210.9648      3682.4539     -1842.5045      22.124014      981.30003     -3767.8245      34041.216      32.409203      32.409203      32.409203      1.8302195      47256.35       45425.339      49364.586    
    284000   142000         617.69678      48975.259      31948.982      7634.5059      6663.4358      971.07007      2100.4526      3595.9637     -1813.709       20.793193      959.35846     -3891.7889      34041.782      32.409383      32.409383      32.409383      1.8301891      51962.066      49283.132      45680.578    
    285000   142500         606.79107      44851.336      29939.748      7739.5392      6545.79        1193.7492      2234.3674      3552.9648     -1815.874       21.107576      990.85161     -3789.6682      33939.527      32.3769        32.3769        32.3769        1.8357032      46599.436      43232.014      44722.557    
    286000   143000         623.27884      46149.42       30474.701      7619.8946      6723.6526      896.24198      2074.2459      3602.3953     -1793.2132      20.902485      933.10934     -3941.198       33957.477      32.382607      32.382607      32.382607      1.8347328      48204.838      45327.379      44916.042    
    287000   143500         611.62862      47975.125      31711.356      7951.962       6597.9753      1353.9866      2224.9027      3735.3082     -1807.1827      19.625138      987.36674     -3806.0335      33958.097      32.382804      32.382804      32.382804      1.8346993      49545.062      49406.06       44974.255    
    288000   144000         607.06754      49111.65       32073.586      7873.7269      6548.7724      1324.9544      2193.4374      3627.2415     -1807.1083      19.039617      1159.3697     -3867.0255      33787.217      32.328395      32.328395      32.328395      1.8439784      51539.043      47024.765      48771.141    
    289000   144500         593.4555       46795.335      30706.047      7688.007       6401.9318      1286.0752      2210.0337      3607.3946     -1802.0073      17.290861      1127.4648     -3874.1015      33727.946      32.30948       32.30948       32.30948       1.8472189      45571.371      46545.23       48269.403    
    290000   145000         610.52012      50138.448      32599.668      7891.8016      6586.0173      1305.7843      2249.5071      3650.4574     -1806.4444      20.500123      1139.8813     -3948.1172      33790.022      32.329289      32.329289      32.329289      1.8438253      47834.018      51909.14       50672.187    
    291000   145500         632.13342      50665.668      32808.068      7887.5717      6819.1719      1068.3998      2202.0208      3520.7391     -1818.5598      21.346735      1111.2755     -3968.4225      33726.17       32.308913      32.308913      32.308913      1.8473161      51549.233      49694.841      50752.93     
    292000   146000         624.55707      49019.489      32211.657      8143.0826      6737.4416      1405.641       2215.829       3591.8665     -1807.1986      19.876473      1158.1539     -3772.8862      33667.099      32.290039      32.290039      32.290039      1.8505574      49303.489      48210.45       49544.527    
    293000   146500         607.70536      50756.441      32941.456      8040.6801      6555.6529      1485.0272      2322.0323      3602.0867     -1795.1456      20.323681      1082.3074     -3746.5772      33639.214      32.281121      32.281121      32.281121      1.8520914      51412.727      49297.326      51559.27     
    294000   147000         608.19726      47204.403      31105.284      7849.7179      6560.9593      1288.7586      2375.8878      3575.8235     -1795.4564      20.722442      1071.8123     -3960.0311      33780.691      32.326313      32.326313      32.326313      1.8443346      48172.992      46354.056      47086.161    
    295000   147500         608.08246      51154.133      33246.042      8153.8395      6559.7209      1594.1185      2277.8083      3606.9461     -1794.8175      20.248353      1240.7538     -3756.8205      33634.283      32.279544      32.279544      32.279544      1.8523629      52070.072      48887.184      52505.142    
    296000   148000         593.2211       52350.444      33376.018      7691.4555      6399.4032      1292.0522      2198.6002      3719.0971     -1826.1098      19.834249      1132.0213     -3951.3908      33641.544      32.281867      32.281867      32.281867      1.8519631      54605.981      55062.324      47383.027    
    297000   148500         614.1921       46766.757      30872.914      7793.4059      6625.629       1167.7769      2328.3958      3624.1063     -1837.3534      20.924228      987.2209      -3955.5168      33838.68       32.3448        32.3448        32.3448        1.841174       47634.76       44552.18       48113.331    
    298000   149000         620.09037      51832.482      33378.996      7813.9588      6689.2569      1124.7019      2307.2961      3589.9783     -1816.9271      19.650597      1041.0892     -4016.3852      33819.606      32.338722      32.338722      32.338722      1.8422124      50342.911      51505.888      53648.646    
    299000   149500         593.31463      48848.071      31775.564      7761.0093      6400.4122      1360.5971      2164.2268      3543.0077     -1795.2304      19.203971      1150.7505     -3721.3614      33709.416      32.303562      32.303562      32.303562      1.8482343      48432.287      50398.551      47713.374    
    300000   150000         604.70037      50103.624      32475.137      7890.8889      6523.2364      1367.6525      2205.5443      3582.9972     -1816.4549      21.185948      1160.5364     -3786.1564      33644.332      32.282758      32.282758      32.282758      1.8518097      49023.706      50558.762      50728.402    
Loop time of 211.409 on 1 procs for 300000 steps with 3620 atoms

Performance: 61.303 ns/day, 0.391 hours/ns, 1419.050 timesteps/s, 5.137 Matom-step/s
97.9% CPU use with 1 MPI tasks x 1 OpenMP threads

MPI task timing breakdown:
Section |  min time  |  avg time  |  max time  |%varavg| %total
---------------------------------------------------------------
Pair    | 38.174     | 38.174     | 38.174     |   0.0 | 18.06
Bond    | 61.773     | 61.773     | 61.773     |   0.0 | 29.22
Neigh   | 37.48      | 37.48      | 37.48      |   0.0 | 17.73
Comm    | 8.623      | 8.623      | 8.623      |   0.0 |  4.08
Output  | 0.89489    | 0.89489    | 0.89489    |   0.0 |  0.42
Modify  | 55.052     | 55.052     | 55.052     |   0.0 | 26.04
Other   |            | 9.412      |            |       |  4.45

Nlocal:           3620 ave        3620 max        3620 min
Histogram: 1 0 0 0 0 0 0 0 0 0
Nghost:          14613 ave       14613 max       14613 min
Histogram: 1 0 0 0 0 0 0 0 0 0
Neighs:              0 ave           0 max           0 min
Histogram: 1 0 0 0 0 0 0 0 0 0
FullNghs:  2.45686e+06 ave 2.45686e+06 max 2.45686e+06 min
Histogram: 1 0 0 0 0 0 0 0 0 0

Total # of neighbors = 2456856
Ave neighs/atom = 678.6895
Ave special neighs/atom = 5.9723757
Neighbor list builds = 6511
Dangerous builds = 0

unfix npt_comp

undump dump_comp

write_dump all custom npt_compress_last.dump id type mol x y z xu yu zu vx vy vz modify sort id
write_data /home/alexzhao/PolyJarvis/data/PVC3/lammps/equil/npt_compress/npt_compress_out.data
System init for write_data ...
Generated 6 of 6 mixed pair_coeff terms from sixthpower/sixthpower mixing rule

print "STAGE COMPLETE: NPT compression P=1.0->50000.0atm density target reached"
STAGE COMPLETE: NPT compression P=1.0->50000.0atm density target reached
quit
48      | 37.48      | 37.48      |   0.0 | 17.73
Comm    | 8.623      | 8.623      | 8.623      |   0.0 |  4.08
Output  | 0.89489    | 0.89489    | 0.89489    |   0.0 |  0.42
Modify  | 55.052     | 55.052     | 55.052     |   0.0 | 26.04
Other   |            | 9.412      |            |       |  4.45

Nlocal:           3620 ave        3620 max        3620 min
Histogram: 1 0 0 0 0 0 0 0 0 0
Nghost:          14613 ave       14613 max       14613 min
Histogram: 1 0 0 0 0 0 0 0 0 0
Neighs:              0 ave           0 max           0 min
Histogram: 1 0 0 0 0 0 0 0 0 0
FullNghs:  2.45686e+06 ave 2.45686e+06 max 2.45686e+06 min
Histogram: 1 0 0 0 0 0 0 0 0 0

Total # of neighbors = 2456856
Ave neighs/atom = 678.6895
Ave special neighs/atom = 5.9723757
Neighbor list builds = 6511
Dangerous builds = 0
System init for write_data ...
Generated 6 of 6 mixed pair_coeff terms from sixthpower/sixthpower mixing rule
STAGE COMPLETE: NPT compression P=1.0->50000.0atm density target reached
