LAMMPS data file via write_data, version 22 Jul 2025, timestep = 2000000, units = real

10816 atoms
8 atom types
11608 bonds
10 bond types
19600 angles
16 angle types
29184 dihedrals
19 dihedral types
8000 impropers
11 improper types

6.023479327372453 55.86916246261107 xlo xhi
6.023479327372453 55.86916246261107 ylo yhi
6.023479327372453 55.86916246261107 zlo zhi

Masses

1 12.01115
2 12.01115
3 1.00797
4 1.00797
5 15.9994
6 15.9994
7 15.9994
8 32.064

Pair Coeffs # lj/class2/coul/long/kk

1 0.054 4.01
2 0.064 4.01
3 0.02 2.995
4 0.013 1.098
5 0.06 3.535
6 0.24 3.535
7 0.24 3.535
8 0.25 4.027

Bond Coeffs # class2/kk

1 1.53 299.67 -501.77 679.81
2 1.501 321.902 -521.821 572.163
3 1.101 345 -691.89 844.6
4 1.417 470.836 -627.618 1327.63
5 1.0982 372.825 -803.453 894.317
6 1.3768 428.88 -738.235 1114.97
7 1.3768 428.88 -738.235 1114.97
8 1.72 239.802 0 0
9 0.965 532.506 -1282.9 2004.77
10 1.4308 743.76 0 0

Angle Coeffs # class2/kk

1 112.67 39.516 -7.443 -9.5583
2 108.4 43.9594 -8.3924 -9.3379
3 110.77 41.453 -10.604 5.129
4 120.05 44.7148 -22.7352 0
5 111 44.3234 -9.4454 0
6 118.9 61.0226 -34.9931 0
7 117.94 35.1558 -12.4682 0
8 123.42 73.6781 -21.6787 0
9 123.42 73.6781 -21.6787 0
10 120 60 0 0
11 109.5 60 0 0
12 108.19 53.125 -8.5016 0
13 102 58 0 0
14 113.1 42.3 0 0
15 107.66 39.641 -12.921 -2.4318
16 119.329 135 0 0

BondBond Coeffs

1 0 1.53 1.53
2 0 1.53 1.501
3 3.3872 1.53 1.101
4 12.0676 1.501 1.417
5 0 1.501 1.501
6 68.2856 1.417 1.417
7 1.0795 1.417 1.0982
8 48.4754 1.417 1.3768
9 48.4754 1.417 1.3768
10 0 1.417 1.72
11 0 1.3768 1.3768
12 20.6577 1.3768 0.965
13 0 1.72 1.72
14 0 1.72 1.4308
15 5.3316 1.101 1.101
16 40 1.4308 1.4308

BondAngle Coeffs

1 8.016 8.016 1.53 1.53
2 0 0 1.53 1.501
3 20.754 11.421 1.53 1.101
4 47.0579 31.0771 1.501 1.417
5 0 0 1.501 1.501
6 28.8708 28.8708 1.417 1.417
7 20.0033 24.2183 1.417 1.0982
8 58.479 107.681 1.417 1.3768
9 58.479 107.681 1.417 1.3768
10 0 0 1.417 1.72
11 0 0 1.3768 1.3768
12 53.8614 23.9224 1.3768 0.965
13 0 0 1.72 1.72
14 0 0 1.72 1.4308
15 18.103 18.103 1.101 1.101
16 0 0 1.4308 1.4308

Dihedral Coeffs # class2/kk

1 0 0 0.0316 0 -0.1681 0
2 -0.2802 0 -0.0678 0 -0.0122 0
3 0 0 4.4072 0 0 0
4 0 0 1.559 0 0 0
5 -0.0228 0 0.028 0 -0.1863 0
6 -0.2802 0 -0.0678 0 -0.0122 0
7 8.3667 0 1.1932 0 0 0
8 0 0 3.9661 0 0 0
9 0 0 4.8498 0 0 0
10 0 0 4.8498 0 0 0
11 0 0 3 0 0 0
12 0 0 1.8 0 0 0
13 -0.69 0 0.5097 0 0.0095 0
14 0 0 1.5 0 0 0
15 0 0 1.5 0 0 0
16 0 0 1.8769 0 0 0
17 0 0 1.7234 0 0 0
18 0 0 1.7234 0 0 0
19 0 0 3 0 0 0

AngleAngleTorsion Coeffs

1 -16.164 112.67 110.77
2 0 108.4 120.05
3 -14.4097 120.05 118.9
4 4.4444 120.05 117.94
5 0 108.4 110.77
6 0 111 120.05
7 0 118.9 118.9
8 -4.8141 118.9 117.94
9 -21.0247 118.9 123.42
10 -21.0247 118.9 123.42
11 0 118.9 120
12 0 123.42 109.5
13 -4.6072 123.42 108.19
14 0 120 102
15 0 120 113.1
16 0.3598 117.94 117.94
17 4.2296 117.94 123.42
18 4.2296 117.94 123.42
19 0 117.94 120

EndBondTorsion Coeffs

1 0.2486 0.2422 -0.0925 0.0814 0.0591 0.2219 1.53 1.101
2 0 0 0 0 0 0 1.53 1.417
3 0 0.2421 0 0 -0.6918 0 1.501 1.417
4 0 -1.797 0 0 -0.4879 0 1.501 1.0982
5 0 0 0 0 0 0 1.501 1.101
6 0 0 0 0 0 0 1.501 1.417
7 -0.1185 6.3204 0 -0.1185 6.3204 0 1.417 1.417
8 0 -6.8958 0 0 -0.4669 0 1.417 1.0982
9 0 0.2655 0 0 4.8905 0 1.417 1.3768
10 0 0.2655 0 0 4.8905 0 1.417 1.3768
11 0 0 0 0 0 0 1.417 1.72
12 0 0 0 0 0 0 1.417 1.3768
13 0.9 -1.3456 1.19 3.4132 0.5873 -0.1323 1.417 0.965
14 0 0 0 0 0 0 1.417 1.72
15 0 0 0 0 0 0 1.417 1.4308
16 0 -0.689 0 0 -0.689 0 1.0982 1.0982
17 0 -1.5867 0 0 4.2641 0 1.0982 1.3768
18 0 -1.5867 0 0 4.2641 0 1.0982 1.3768
19 0 0 0 0 0 0 1.0982 1.72

MiddleBondTorsion Coeffs

1 -14.879 -3.6581 -0.3138 1.53
2 0 0 0 1.501
3 0 9.1792 0 1.417
4 0 3.9421 0 1.417
5 0 0 0 1.53
6 0 0 0 1.501
7 27.5989 -2.312 0 1.417
8 0 -1.1521 0 1.417
9 0 4.8255 0 1.417
10 0 4.8255 0 1.417
11 0 0 0 1.417
12 0 0 0 1.3768
13 1.158 3.2697 3.5132 1.3768
14 0 0 0 1.72
15 0 0 0 1.72
16 0 4.8228 0 1.417
17 0 5.5432 0 1.417
18 0 5.5432 0 1.417
19 0 0 0 1.417

BondBond13 Coeffs

1 0 1.53 1.101
2 0 1.53 1.417
3 2.5085 1.501 1.417
4 0.8743 1.501 1.0982
5 0 1.501 1.101
6 0 1.501 1.417
7 53 1.417 1.417
8 -6.2741 1.417 1.0982
9 -2.2436 1.417 1.3768
10 -2.2436 1.417 1.3768
11 0 1.417 1.72
12 0 1.417 1.3768
13 1.159 1.417 0.965
14 0 1.417 1.72
15 0 1.417 1.4308
16 -1.7077 1.0982 1.0982
17 2.0517 1.0982 1.3768
18 2.0517 1.0982 1.3768
19 0 1.0982 1.72

AngleTorsion Coeffs

1 -0.2454 0 -0.1136 0.3113 0.4516 -0.1988 112.67 110.77
2 0 0 0 0 0 0 108.4 120.05
3 0 -4.4683 0 0 3.8987 0 120.05 118.9
4 0 -0.1242 0 0 3.4601 0 120.05 117.94
5 0 0 0 0 0 0 108.4 110.77
6 0 0 0 0 0 0 111 120.05
7 1.9767 1.0239 0 1.9767 1.0239 0 118.9 118.9
8 0 2.5014 0 0 2.7147 0 118.9 117.94
9 0 10.0155 0 0 1.7404 0 118.9 123.42
10 0 10.0155 0 0 1.7404 0 118.9 123.42
11 0 0 0 0 0 0 118.9 120
12 0 0 0 0 0 0 123.42 109.5
13 -5.136 -1.0122 0 4.6852 0.023 -0.598 123.42 108.19
14 0 0 0 0 0 0 120 102
15 0 0 0 0 0 0 120 113.1
16 0 2.4501 0 0 2.4501 0 117.94 117.94
17 0 1.8729 0 0 2.5706 0 117.94 123.42
18 0 1.8729 0 0 2.5706 0 117.94 123.42
19 0 0 0 0 0 0 117.94 120

Improper Coeffs # class2/kk

1 0 0
2 0 0
3 0 0
4 0 0
5 7.8153 0
6 4.8912 0
7 13.0421 0
8 13.0421 0
9 0 0
10 0 0
11 0 0

AngleAngle Coeffs

1 0 0 0 112.67 108.4 108.4
2 0 0 0 108.4 108.4 111
3 0.2738 -0.4825 0.2738 110.77 110.77 107.66
4 -0.3157 -0.3157 -0.3157 107.66 107.66 107.66
5 0 0 0 120.05 120.05 118.9
6 0 0 0 118.9 117.94 117.94
7 0 0 0 118.9 123.42 123.42
8 0 0 0 118.9 123.42 123.42
9 0 0 0 118.9 120 120
10 0 0 0 102 113.1 113.1
11 0 0 0 113.1 113.1 119.329

Atoms # full/kk

7004 6 3 0.1268 55.691593958507795 7.595677953239481 9.250031104877033 0 1 1
296 1 3 0.1268 9.11416310472056 7.670393165001864 6.503855393270408 0 0 1
7087 6 2 -0.1268 9.624895098543606 6.11360370058373 10.572860175083537 1 1 1
7088 6 3 0.1268 10.187962320687259 6.168384282425196 9.582749453647924 1 1 1
7086 6 2 0.0265 10.095450034392737 6.902587160464119 11.618399071641399 1 1 1
7016 6 3 0.1268 9.133426164036742 10.096746697307683 7.697360332264959 1 1 1
7017 6 2 -0.1268 7.142917848756696 10.156071727605692 8.553454736072148 1 1 1
7015 6 2 -0.1268 8.042266102009865 10.293513642753346 7.533483759879888 1 1 1
7018 6 3 0.1268 7.390499767749944 10.017723449856174 9.637061415267125 1 1 1
7085 6 6 -0.053 11.222692371003088 7.707187941632773 11.409695863043288 1 1 1
10074 8 3 0.053 12.212122358726003 7.780983622867691 7.177053404278623 0 1 0
10073 8 3 0.053 12.455246548727754 8.087359341941664 8.932631785919018 0 1 0
7068 6 2 0.0265 11.456902589465827 8.702609102266791 12.315701232548617 1 1 1
7070 6 3 0.1268 9.485354519566886 9.578259009427384 12.218192744649672 1 1 1
10063 8 2 -0.1268 15.919538394536218 9.795543395468751 6.27863896404475 0 1 0
10069 8 3 0.053 12.391851657577934 10.043996537610447 6.287026363322332 0 1 0
10072 8 3 0.053 13.464811534091256 6.999916058436212 8.142959666924472 0 1 0
10070 8 3 0.053 12.073656309808545 10.378359967681071 8.014330674030349 0 1 0
10083 8 2 -0.1268 17.430381348315628 12.303686502501204 12.297557344818692 0 1 0
10084 8 3 0.1268 17.417189853550305 12.06593264452292 11.233993092980564 0 1 0
10065 8 2 0 15.00785617142476 8.825233007357665 6.686831814494447 0 1 0
10064 8 3 0.1268 15.859408194612005 10.812805369359744 6.686623936536989 0 1 0
10106 8 3 0.1268 14.461656736933252 11.67441403825011 11.75811140629324 0 1 0
10068 8 3 0.053 13.32643562487199 11.314004111622307 7.123486096788701 0 1 0
10067 8 1 -0.159 12.88607410476158 10.324952759979702 7.273618499151732 0 1 0
10071 8 1 -0.159 12.912885350564878 7.887125315764241 7.992435954028349 0 1 0
10108 8 3 0.1268 13.160770433023728 11.12388584847887 9.672376996922797 0 1 0
10066 8 1 0 13.872807232150711 9.12826950340773 7.723576378794997 0 1 0
10076 8 2 -0.1268 15.407169174504922 8.646622141829042 9.62670447281438 0 1 0
10075 8 2 0 14.429738714852704 9.451456184306922 9.108101141168904 0 1 0
10107 8 2 -0.1268 13.971150200016794 10.486232963117335 9.967385148307894 0 1 0
10077 8 3 0.1268 15.665454047527303 7.727959916313778 9.032179625816898 0 1 0
10080 8 2 0.0265 15.69827415470518 10.002696468301785 11.579919628032265 0 1 0
10105 8 2 -0.1268 14.62889007857154 10.801304571569275 11.157575116962843 0 1 0
10078 8 2 -0.1268 16.0076744103336 8.783207482781176 10.866733668451465 0 1 0
10079 8 3 0.1268 16.80738258586272 8.165999953754467 11.201377120372767 0 1 0
7067 6 3 0.1268 13.689017716865838 8.26583663619615 12.645589631240767 1 1 1
6164 5 3 0.1268 17.39020523502576 7.101298934722848 7.739235706812925 1 0 0
10081 8 6 -0.053 16.373421988051938 10.129561119508239 12.828725121792118 0 1 0
6163 5 2 -0.1268 18.333059985215847 7.04249161680066 8.378745127869337 1 0 0
7066 6 2 -0.1268 12.76468909300969 8.802103295815623 12.894973050115404 1 1 1
3572 3 3 0.1268 19.59942225068712 12.214335457888716 6.636939538039041 1 -1 0
5260 4 3 0.053 22.34860038910517 54.8690625195605 9.20808060566049 0 0 1
6121 5 3 0.053 19.659356233897594 10.012574352115077 11.852549316745456 1 0 0
6116 5 3 0.1268 21.57317029338291 7.044323040509767 10.411712299342373 1 0 0
6122 5 3 0.053 18.606932521764183 10.555929987606211 10.470470780127092 1 0 0
6162 5 3 0.1268 18.330908366876486 9.15921692328397 8.590789582315415 1 0 0
6161 5 2 -0.1268 18.873272497351604 8.292617581134195 8.825136386937443 1 0 0
6115 5 2 -0.1268 20.617451055654417 7.087657896582529 9.897449793561504 1 0 0
6119 5 1 -0.159 19.676492624940508 10.4914680558777 10.850705994234229 1 0 0
6117 5 2 0 20.075767837895924 8.314732959107594 9.537273821135159 1 0 0
6118 5 1 0 20.67613110142591 9.681520104426609 9.909197556180628 1 0 0
6124 5 3 0.053 21.545991123612396 11.3580057391469 8.78051814372271 1 0 0
6120 5 3 0.053 20.096877918890797 11.528143919849608 11.034240324039303 1 0 0
6123 5 1 -0.159 20.799629324412933 10.569366360412925 8.562963614534878 1 0 0
6127 5 2 0 22.126565963363735 9.4190866833528 10.51660876958664 1 0 0
6159 5 2 -0.1268 22.3064253721048 9.107229779400498 11.828226092867144 1 0 0
6126 5 3 0.053 19.824414884863657 11.017906601161824 8.372293821565293 1 0 0
6125 5 3 0.053 21.038634407270276 9.932154919237648 7.736814109159572 1 0 0
6128 5 2 -0.1268 23.250404075648653 9.323182096531186 9.683598390021984 1 0 0
6129 5 3 0.1268 23.13188264700548 9.480457270563836 8.527730924548495 1 0 0
6160 5 3 0.1268 21.451757720779998 9.036309024232622 12.56905993790239 1 0 0
6132 5 2 0.0265 24.68451529786203 9.029735569170153 11.563228203533859 1 0 0
5258 4 3 0.053 23.93733413185109 54.660502251608065 10.084047088146452 0 0 1
5259 4 3 0.053 23.902617694553648 55.70320237917143 8.63863944114635 0 0 1
2637 2 2 -0.1268 28.78680957711681 7.943104596767769 6.302982794257049 1 0 2
2638 2 3 0.1268 28.209471012606357 7.110081500001359 6.660246599331931 1 0 2
6130 5 2 -0.1268 24.509728680352747 9.233534576587196 10.216993510672431 1 0 0
6135 5 2 -0.1268 26.238153284138093 6.695100218840909 11.28075647635866 1 0 0
6136 5 3 0.1268 25.465917331935163 6.705296355470585 10.439679158241276 1 0 0
2621 2 2 -0.1268 30.18844093988404 9.909762038989859 6.576877751500471 1 0 2
6131 5 3 0.1268 25.439049098525032 9.328333306217758 9.623637860603722 1 0 0
2625 2 5 -0.1143 28.423011646313586 7.583095979078024 8.96352958845509 1 0 2
2623 2 2 0.0732 29.534812525966093 8.825775908736468 7.144750169654327 1 0 2
2626 2 5 -0.1143 29.365093727271955 9.725018800687554 9.642426640136964 1 0 2
2624 2 8 0.0822 29.450941803608504 8.521933267984112 8.825371323714016 1 0 2
2622 2 3 0.1268 30.786855370132887 10.629360956469949 7.190143033764715 1 0 2
9983 8 2 0.0732 33.596396480854466 12.531136423756408 55.552303739148165 0 1 -1
9695 8 3 0.053 31.920774209201188 7.16476421914753 12.07456815857454 0 1 0
2649 2 6 -0.053 34.64192575615053 55.86100823785323 9.17101170860069 1 -1 2
2635 2 2 -0.1268 30.97713014750122 6.422578370348705 9.1066149437123 1 0 2
2627 2 2 0.0732 30.920409684833036 7.851919293941455 9.105887436658746 1 0 2
9682 8 2 0.0265 35.03683354687699 11.231499269850564 11.477562304142376 0 1 0
2652 2 3 0.1268 36.24480774743458 7.000719562981282 7.2178712128372 1 0 2
9985 8 3 0.1268 34.70947023075898 11.908290987134464 7.56715454444688 0 1 0
9731 8 2 -0.1268 32.854963290798665 10.26541329508298 11.85059376024704 0 1 0
9732 8 3 0.1268 31.80310777882826 10.181178943864197 11.497060912772659 0 1 0
2702 2 3 0.1268 35.7977082687123 6.9890515198885 11.611554781422738 1 0 2
2651 2 2 -0.1268 36.57779166397477 7.205026594318972 8.217641858501345 1 0 2
9734 8 3 0.1268 33.32200744939684 11.459588749392156 10.120156893348833 0 1 0
9986 8 2 -0.1268 34.80068588291563 10.45079596727669 6.160408733235011 0 1 0
2632 2 2 0.0265 33.43833916041855 6.584992998687942 9.155079789164619 1 0 2
9984 8 2 -0.1268 34.333433055801294 11.661838858958493 6.577452170249408 0 1 0
9987 8 3 0.1268 35.40624044152993 9.891629918846265 6.949154703671737 0 1 0
2629 2 3 0.1268 32.07360659663569 9.694726978141743 8.977592623759085 1 0 2
9733 8 2 -0.1268 33.74081074365356 10.980465598627509 11.033224909516335 0 1 0
2628 2 2 -0.1268 32.077801963429565 8.608078608882176 9.13665990923287 1 0 2
2630 2 2 -0.1268 33.30659422249553 7.997061825340424 9.095486897068714 1 0 2
2631 2 3 0.1268 34.2814925660494 8.534661177260704 9.018547087541604 1 0 2
2650 2 2 0.0265 35.794777688840405 6.833142593473245 9.37637669825847 1 0 2
2701 2 2 -0.1268 36.30301729248183 7.175500274869499 10.632522915124031 1 0 2
2659 2 3 0.053 40.02537702013133 9.111234834727306 11.71095056709817 1 0 2
2700 2 3 0.1268 37.84439822300956 8.101601472346097 11.70753053331958 1 0 2
2699 2 2 -0.1268 37.503017575758506 7.884573719333078 10.72666769278299 1 0 2
2698 2 3 0.1268 38.34287846493315 11.595090404530733 9.220586096177332 1 0 2
2653 2 2 -0.1268 37.74026785396546 7.8704829442983275 8.392807082228694 1 0 2
2670 2 2 0.0265 39.788174546697405 11.84864227954177 6.174757385090489 1 0 2
2658 2 3 0.053 40.49441563785729 10.635778463905654 10.85985122082646 1 0 2
2654 2 3 0.1268 38.334161338929974 8.07888502939776 7.585753862384414 1 0 2
2668 2 2 -0.1268 40.41686239988903 10.609310821142223 6.137077930033741 1 0 2
2655 2 2 0 38.29493574129093 8.232370178085876 9.662631669508674 1 0 2
2660 2 3 0.053 38.811410660502816 10.326101606888447 11.224364227366832 1 0 2
2665 2 2 0 39.55792748718724 10.071840991345002 8.345893784043646 1 0 2
2656 2 1 0 39.578516665886255 9.06745649054739 9.600450074216408 1 0 2
2664 2 3 0.053 40.44886605769402 7.274521786865732 8.726010750640317 1 0 2
2661 2 1 -0.159 40.73502458487046 8.08740578401991 9.406953294896752 1 0 2
2667 2 3 0.1268 40.7931940872911 8.817586884070415 6.98050540913003 1 0 2
2657 2 1 -0.159 39.7543578136507 9.83240879781053 10.952467746507503 1 0 2
2663 2 3 0.053 40.99819697024718 7.643528809246349 10.37921595670138 1 0 2
2662 2 3 0.053 41.576192130952705 8.597917593304919 8.97160620629233 1 0 2
2697 2 2 -0.1268 38.88300554116633 11.253716303816203 8.292182205239707 1 0 2
2666 2 2 -0.1268 40.299871543344395 9.735595917879325 7.203104065838716 1 0 2
5572 5 2 0.0265 48.282887304049154 12.492402828412818 10.368325659414152 0 0 0
3337 3 2 -0.1268 48.69645651291623 8.239409549250897 12.04754383903565 0 0 0
5556 5 3 0.1268 46.01582955648996 11.391227913414083 10.177757451877978 0 0 0
3343 3 2 -0.1268 44.924325199436836 7.669788147420963 7.291992002375241 0 0 0
3319 3 3 0.1268 46.50683213389631 10.601013654004547 7.765859614841904 0 0 0
3322 3 2 0.0265 45.85937058082686 8.416192295452346 6.55264436149093 0 0 0
3323 3 2 -0.1268 47.185420078462926 8.12181948086253 6.6037425134709204 0 0 0
3316 3 2 -0.1268 45.14814690051975 12.375974966901824 7.677644855392976 0 0 0
5554 5 2 0.0265 46.702115458650525 11.904606569783017 12.09441390433581 0 0 0
3344 3 3 0.1268 43.82427492690694 7.796017295202022 7.103049014873372 0 0 0
5555 5 2 -0.1268 45.76563179426408 11.384396775608451 11.235009512243055 0 0 0
3332 3 2 -0.1268 46.412229165976996 6.7218101310820275 11.658134109245864 0 0 0
5575 5 2 -0.1268 48.90083518910872 11.28634044007216 8.34401072955979 0 0 0
5576 5 3 0.1268 48.91611630557793 10.38148605713009 7.77060996357637 0 0 0
3326 3 3 0.1268 48.71611503968343 7.018993830623932 7.579685542117982 0 0 0
3331 3 2 0.0732 47.47469548891105 6.5708967725159955 10.776392980857459 0 0 0
3333 3 3 0.1268 45.54427329756514 6.1145804708106875 11.454984090374234 0 0 0
3342 3 3 0.1268 44.69528424124225 55.78854273240587 8.653458567509531 0 -1 0
3327 3 2 0.0732 46.77915142075743 6.4320895604666815 8.351614077466841 0 0 0
3341 3 2 -0.1268 45.42418787766671 6.680083575842796 8.207363599216944 0 0 0
5574 5 3 0.1268 48.1382977941461 10.316593326841339 10.096040318278115 0 0 0
3318 3 2 -0.1268 45.64956023723501 11.133091596325702 7.26929202772537 0 0 0
3339 3 2 -0.1268 48.62851534185859 7.309217831117622 11.029216493801917 0 0 0
5573 5 2 -0.1268 48.44171167302427 11.260420870337846 9.643541440575726 0 0 0
3325 3 2 -0.1268 47.6676507707308 7.207801567725269 7.522310731698106 0 0 0
5558 5 3 0.1268 43.87424769719199 10.256648757884385 11.12115227310294 0 0 0
5557 5 2 -0.1268 44.61458443596172 10.745388806246591 11.78015620097553 0 0 0
5577 5 2 0 49.3427415289391 12.48872382306074 7.780931112320145 0 0 0
7005 6 2 0.0732 53.80370195535552 8.591041839680187 8.814909495359242 0 1 1
7019 6 2 -0.1268 52.552252919619576 8.343604079164695 8.176680934000592 0 1 1
5635 5 3 0.053 51.33822514897524 12.514619269682182 11.150928447617316 0 0 0
7020 6 3 0.1268 51.87541120161866 9.183944135986012 8.119164463642651 0 1 1
7008 6 5 -0.1143 53.360233406503056 11.162922433042903 9.451902461718825 0 1 1
7003 6 2 -0.1268 54.681949491484914 7.433584842695096 8.852541023832892 0 1 1
7021 6 2 -0.1268 52.143574348478126 7.046231217457893 7.889965177381903 0 1 1
5634 5 3 0.053 51.45550844152268 10.794139795440568 11.296388531768526 0 0 0
7006 6 8 0.0822 54.3199907122486 10.12933349021967 9.474213577648127 0 1 1
7010 6 2 -0.1268 55.25485001535827 10.766840777183283 6.951484707398516 0 1 1
7022 6 3 0.1268 51.097020241536555 6.774209725959203 7.854153906457804 0 1 1
7007 6 5 -0.1143 54.99044893958829 9.829498407687119 10.701018046296022 0 1 1
5633 5 1 -0.159 51.17844995660785 11.647862286783033 11.883818895239472 0 0 0
7009 6 2 0.0732 55.5574965389054 10.376994374932814 8.288456920418872 0 1 1
5636 5 3 0.053 50.05680981615042 11.471582072115748 11.91426236027648 0 0 0
7001 6 2 -0.1268 54.40397360699144 6.240442819930794 8.238754584400562 0 1 1
7011 6 3 0.1268 54.2574671104221 11.059782247781698 6.607754162052047 0 1 1
5585 5 3 0.053 51.494632518395775 11.170596029958187 6.458410898577199 0 0 0
3338 3 3 0.1268 49.64763220273778 8.729854521487415 12.21884771693504 0 0 0
5643 5 3 0.1268 53.069757844817545 9.54947560615289 12.45429964759044 0 0 0
5578 5 1 0 49.89321863724258 12.589695276788113 6.3937813541115425 0 0 0
3340 3 3 0.1268 49.47256409354053 7.069923297040781 10.29626784238883 0 0 0
5598 5 3 0.1268 6.08399431482637 17.051315572926264 9.41825890821703 1 0 0
5597 5 2 -0.1268 6.288599359522274 16.93886509674698 8.350400031405869 1 0 0
5606 5 2 -0.1268 8.794541210260801 14.163254559034135 11.21390976718845 1 0 0
5604 5 2 -0.1268 9.268795649048965 15.17698737865683 10.340870044372965 1 0 0
5603 5 2 0.0732 8.595587926832506 16.427224538036697 10.305178137104711 1 0 0
5605 5 3 0.1268 10.016491583133437 14.85887447355922 9.557858818767093 1 0 0
5599 5 2 0.0732 7.615649747867146 17.05958608932781 7.91870168230253 1 0 0
5600 5 8 0.0822 8.915743601246104 17.54907243816597 8.995002899196649 1 0 0
5611 5 2 -0.1268 7.704923482330936 16.68802098629149 11.336001450601138 1 0 0
7036 6 3 0.1268 9.987075290978721 14.712939617366724 7.380866396475029 1 1 1
5602 5 5 -0.1143 10.169234453606558 17.229633621986018 8.345531275994125 1 0 0
5607 5 3 0.1268 9.05232845385598 13.050089269680164 11.000893901561545 1 0 0
5612 5 3 0.1268 7.200920614724531 17.65480726868749 11.385369014285201 1 0 0
5608 5 2 0.0265 7.894811954823336 14.48018054551086 12.201485642747457 1 0 0
7034 6 3 0.1268 8.343438025402492 13.027003450562065 7.1144052194241985 1 1 1
5613 5 2 -0.1268 7.878435769023232 16.858404977089698 6.57063302472831 1 0 0
5614 5 3 0.1268 8.847985643236765 17.032798788882133 6.177442249674853 1 0 0
5615 5 2 -0.1268 6.890953873843623 16.529933560156998 55.47141787556555 1 0 -1
7053 6 6 -0.053 13.798726519520137 15.96199083578935 11.69875333096781 1 1 1
7051 6 3 0.1268 13.04341312444322 13.46231324667869 10.499385927701933 1 1 1
7049 6 3 0.1268 12.275196586568544 13.353917694262694 8.300802824902789 1 1 1
7078 6 3 0.1268 13.892983707276851 17.76728882988877 9.817482260247653 1 1 1
7077 6 2 -0.1268 13.548321372034074 16.78211389693653 9.485123879970175 1 1 1
7080 6 3 0.1268 13.373866562556321 17.351969918737925 7.510439168923532 1 1 1
7079 6 2 -0.1268 13.172877113391547 16.55642964982917 8.16668956292455 1 1 1
7052 6 2 0.0265 13.412173394906455 15.769532517788015 10.413927514178564 1 1 1
7048 6 2 -0.1268 12.69119835028292 14.262889491432059 8.584225599892294 1 1 1
7047 6 2 0 12.666356296676934 15.337270105691355 7.72076534144145 1 1 1
7050 6 2 -0.1268 13.021209030678582 14.427444008832932 9.91802622612729 1 1 1
3551 3 3 0.1268 16.4215809505028 14.788818339063623 9.696088876088263 1 -1 0
3550 3 2 -0.1268 17.084723810217103 15.574648768768345 9.291066060391405 1 -1 0
3548 3 2 -0.1268 17.01054445828555 16.816544915657484 9.886480324906977 1 -1 0
3549 3 3 0.1268 16.368368661878577 16.96449412965183 10.688255933668641 1 -1 0
3552 3 2 0.0265 18.081702120104772 15.28160237886432 8.298015159558826 1 -1 0
3547 3 2 0.0732 17.89034795347102 17.85781599075661 9.500522298289356 1 -1 0
7076 6 3 0.1268 15.428644098897236 14.135876023777149 12.775215506952398 1 1 1
3569 3 6 -0.053 18.178687647894158 13.988449692655763 7.749807330049803 1 -1 0
3570 3 2 0.0265 18.421044097892338 13.914478060454094 6.32975600807266 1 -1 0
3571 3 2 -0.1268 19.278433603881886 12.957680074314188 55.70525301060971 1 -1 -1
3622 3 3 0.1268 17.061581647386987 15.578402285068957 55.549679480609825 1 -1 -1
10086 8 3 0.1268 18.36299677458483 14.21730692721199 12.045826989867374 0 1 0
3555 3 2 -0.1268 18.862138652134817 17.511949394307067 8.526452389501529 1 -1 0
3553 3 2 -0.1268 18.926139238310917 16.283757033350902 7.910548322414683 1 -1 0
3554 3 3 0.1268 19.6793331048168 16.193248467097252 7.137938590282267 1 -1 0
420 1 3 0.1268 21.381840930032233 17.061003710561707 11.431273904756338 0 0 1
407 1 2 0.0732 22.60670234114231 13.601419642038632 11.061306733196634 0 0 1
410 1 5 -0.1143 21.48000994694226 13.878712486433262 8.64587984881421 0 0 1
409 1 5 -0.1143 20.300886679074885 14.732044083135147 10.628747936190287 0 0 1
408 1 8 0.0822 21.50637642613969 14.412802340348366 10.003212445063598 0 0 1
411 1 2 0.0732 22.31871197635263 15.946407811659611 9.730599076347326 0 0 1
419 1 2 -0.1268 21.984104234843876 17.106031371232206 10.492016815892685 0 0 1
412 1 2 -0.1268 23.24334350615611 16.15032258328268 8.739852950689237 0 0 1
414 1 2 -0.1268 23.814545074485594 17.350326897723356 8.436933511882941 0 0 1
405 1 2 -0.1268 23.98646857555205 13.185738697802275 10.686790439537845 0 0 1
417 1 2 -0.1268 22.557732927935806 18.291622934067384 10.195494257389294 0 0 1
413 1 3 0.1268 23.541998128902286 15.309979778000036 8.159015518959267 0 0 1
3556 3 3 0.1268 19.59023969178528 18.25562306311346 8.190179826107686 1 -1 0
9966 8 3 0.053 22.42266525662943 12.846485016509394 6.842345979679661 0 1 0
416 1 2 0.0265 23.49381430527773 18.4558553799967 9.241064406724382 0 0 1
9969 8 3 0.1268 25.73344705926394 15.750569697676665 6.765050493012897 0 1 0
486 1 3 0.1268 25.011537573419606 18.32768987409478 11.18377079268218 0 0 1
415 1 3 0.1268 24.577189165565958 17.470892145037382 7.672464534392228 0 0 1
406 1 3 0.1268 24.37159449446124 13.467525170867347 9.72441423029411 0 0 1
9995 8 2 -0.1268 29.61296707078703 13.383581997062532 7.354438233865041 0 1 0
9968 8 2 -0.1268 25.964272188441655 14.738069282648928 7.258854981594409 0 1 0
4825 4 1 -0.159 29.727911652601627 17.294755033243028 7.483853198210936 0 0 1
4828 4 3 0.053 28.92822013116433 16.531179832127187 7.530024653524966 0 0 1
9970 8 2 -0.1268 26.98545589405927 14.655921781759826 8.147019889357967 0 1 0
480 1 3 0.1268 29.881134160838677 15.513500944294842 11.504870562959415 0 0 1
9973 8 6 -0.053 28.469178009611962 13.24561674115378 9.494509303224191 0 1 0
4820 4 1 0 29.801242447250807 17.965154566596397 6.036441757400676 0 0 1
9975 8 2 -0.1268 30.866677564150542 13.671073344210726 9.39377817777877 0 1 0
9976 8 3 0.1268 31.026197096853938 13.636128473958578 10.44698247995967 0 1 0
9971 8 3 0.1268 27.564632468424918 15.50942523433328 8.437217059988718 0 1 0
4826 4 3 0.053 29.558584169363883 18.0061330475934 8.32211543382647 0 0 1
9972 8 2 0.0265 27.323180509171717 13.454428003052678 8.774054915778216 0 1 0
482 1 3 0.1268 29.77186724383445 17.85904616602209 10.603009758257416 0 0 1
9974 8 2 0.0265 29.642467996812638 13.446460136923871 8.75591941893214 0 1 0
404 1 3 0.1268 25.82989172147371 12.4092793497575 11.424671951713654 0 0 1
481 1 2 -0.1268 29.855048769571248 17.700654316819183 11.633837674151023 0 0 1
4827 4 3 0.053 30.679926978524637 16.695567297679283 7.70648824046363 0 0 1
403 1 2 -0.1268 24.799993464382556 12.734076272636573 11.676675820817044 0 0 1
9979 8 2 0.0732 32.02499166042043 13.954496881873439 7.223764120742307 0 1 0
9665 8 2 -0.1268 34.335234942466386 13.930158522253139 11.900181248667742 0 1 0
9666 8 3 0.1268 33.78065876202994 13.199341931672674 12.523953773070943 0 1 0
4864 4 3 0.1268 32.493064739886634 17.71646142129333 6.224721203277164 0 0 1
9681 8 6 -0.053 35.84920247555199 12.148191557227705 10.908925357050643 0 1 0
9661 8 3 0.1268 36.2048006077011 16.388156865949572 9.623835997129522 0 1 0
9659 8 2 0.0732 34.70451814347105 16.271324234863265 11.237652537865761 0 1 0
9662 8 2 -0.1268 36.08434967125248 14.462465174911982 10.315554578276712 0 1 0
9660 8 2 -0.1268 35.728509683304054 15.768813655814192 10.40000738081775 0 1 0
9978 8 3 0.1268 32.93954364541532 14.000941990031546 9.270926465003429 0 1 0
9664 8 2 0.0265 35.39429694495463 13.430994291226511 11.009970842309135 0 1 0
9980 8 8 0.0822 33.34927537184471 14.190311153655243 6.162329168217023 0 1 0
9663 8 3 0.1268 36.94556880829635 14.16681484185248 9.670192035816072 0 1 0
9977 8 2 -0.1268 32.01892867364553 13.935009341568989 8.634339926515686 0 1 0
9667 8 2 -0.1268 33.97132981861376 15.243203316962202 11.924361044420888 0 1 0
9981 8 5 -0.1143 34.48311890516311 14.66471559416558 6.846924345463539 0 1 0
9656 8 8 0.0822 34.28043713899112 17.937000387084872 11.357084368671766 0 1 0
3350 3 3 0.1268 42.402761513793564 12.406625947054001 9.045450899178306 0 0 0
3351 3 2 -0.1268 42.5581731453379 13.146598756909487 10.997951849418683 0 0 0
910 1 3 0.1268 39.66091709054571 15.994674235580804 11.145541404690029 0 1 1
3349 3 2 -0.1268 42.734723284213246 13.244027021640722 9.644408990165035 0 0 0
3309 3 3 0.053 42.22858291108716 15.972917805973886 7.511127832182829 0 0 0
3352 3 3 0.1268 42.08247434589062 12.28340827796087 11.511878355099197 0 0 0
3308 3 3 0.053 41.36080235903495 14.457576254726776 7.06690768048464 0 0 0
3307 3 1 -0.159 42.33290023157946 14.994242321956827 6.934158128156089 0 0 0
3300 3 2 0.0265 43.12243423448339 14.160903345735697 11.782151355575682 0 0 0
1472 2 3 0.053 38.29977063191329 18.63137118191829 9.896516789685895 0 0 0
1514 2 3 0.1268 42.68018425579791 18.3315842690275 8.136431529811867 0 0 0
908 1 3 0.1268 41.36443572635301 17.76682692601706 11.942573932111202 0 1 1
2696 2 3 0.1268 38.36329194662828 13.017122401070385 7.370920508990299 1 0 2
2695 2 2 -0.1268 38.919916483801 12.11723831711932 7.2690187148997465 1 0 2
3284 3 3 0.1268 45.60857509732877 14.329844587826111 12.58920495096337 0 0 0
3305 3 2 0 43.38779282670633 14.35595564325473 8.989586801191203 0 0 0
5571 5 6 -0.053 47.84811456747521 12.53310952461953 11.666397278592054 0 0 0
3317 3 3 0.1268 45.56456364871812 12.824533951059962 8.666837288190111 0 0 0
3301 3 2 -0.1268 43.56871963769275 15.363771501760727 11.129916842893413 0 0 0
3302 3 3 0.1268 43.74323352331962 16.304353163554296 11.7221224871399 0 0 0
3306 3 1 0 43.64732984868054 14.404989508221473 7.515497076476194 0 0 0
1724 2 3 0.1268 46.22142541714945 17.896080549384635 11.685504118865614 0 0 0
3303 3 2 -0.1268 43.75787206910809 15.392576540588633 9.801342739739628 0 0 0
3304 3 3 0.1268 44.29675453120457 16.250202243126665 9.455802953410764 0 0 0
5623 5 2 -0.1268 48.568870886352045 13.698809785473781 9.769398482167116 0 0 0
5624 5 3 0.1268 48.541795394113876 14.717579722880812 10.324857953903901 0 0 0
3313 3 3 0.053 45.78642553744017 15.234653379561438 7.619164657380522 0 0 0
5621 5 2 -0.1268 49.1467413081259 13.664194425123412 8.529366190454295 0 0 0
1699 2 6 -0.053 48.470606533932084 17.470405996989427 10.139425365224202 0 0 0
3315 3 2 0 44.138966142326254 13.035613146026645 7.018191621355503 0 0 0
3314 3 3 0.053 44.31148226149406 16.41818323133353 7.335182483732594 0 0 0
3311 3 1 -0.159 44.774689820879516 15.436293283533779 7.129421877878672 0 0 0
1723 2 2 -0.1268 46.461713159755604 18.586006957593646 10.896415311189855 0 0 0
1700 2 2 0.0265 49.56724805968574 17.53189290628842 10.999638644214427 0 0 0
5622 5 3 0.1268 49.29491138395046 14.616070053100037 8.010603309520395 0 0 0
1703 2 2 -0.1268 51.754336489565134 16.754761496347324 11.726393214739891 0 0 0
1704 2 3 0.1268 52.613949238692214 16.05167148479334 11.574063279120407 0 0 0
1702 2 3 0.1268 50.51379888712587 15.619659173146868 10.283221585747018 0 0 0
5629 5 2 -0.1268 53.73917910416884 13.157236574387507 12.148261570619072 0 0 0
5620 5 3 0.1268 52.35029630459543 12.509055971382042 7.625838344225913 0 0 0
5630 5 3 0.1268 53.125574711195554 13.416020482415114 11.292139910451045 0 0 0
5627 5 2 -0.1268 55.12658675168218 13.380178134432533 12.032511310735494 0 0 0
1701 2 2 -0.1268 50.67033823336956 16.566641410999907 10.958699763877606 0 0 0
5619 5 2 -0.1268 52.277373760463576 13.30664926562298 6.832323155686826 0 0 0
5628 5 3 0.1268 55.487604757835555 13.805970608429288 11.03935095699908 0 0 0