LAMMPS data file via write_data, version 22 Jul 2025, timestep = 2000000, units = real

7020 atoms
5 atom types
7010 bonds
5 bond types
13000 angles
8 angle types
14970 dihedrals
9 dihedral types
8000 impropers
7 improper types

4.141266330406868 45.17986658959762 xlo xhi
4.141266330406868 45.17986658959762 ylo yhi
4.141266330406868 45.17986658959762 zlo zhi

Masses

1 12.01115
2 1.00797
3 1.00797
4 15.9994
5 15.9994

Pair Coeffs # lj/class2/coul/long/kk

1 0.054 4.01
2 0.02 2.995
3 0.013 1.098
4 0.24 3.535
5 0.24 3.535

Bond Coeffs # class2/kk

1 1.53 299.67 -501.77 679.81
2 1.101 345 -691.89 844.6
3 1.42 400.395 -835.195 1313.01
4 1.42 400.395 -835.195 1313.01
5 0.965 532.506 -1282.9 2004.77

Angle Coeffs # class2/kk

1 110.77 41.453 -10.604 5.129
2 111.27 54.5381 -8.3642 -13.0838
3 111.27 54.5381 -8.3642 -13.0838
4 104.5 35.7454 -10.0067 -6.2729
5 105.8 52.7061 -12.109 -9.8681
6 107.66 39.641 -12.921 -2.4318
7 108.728 58.5446 -10.8088 -12.4006
8 108.728 58.5446 -10.8088 -12.4006

BondBond Coeffs

1 3.3872 1.53 1.101
2 11.4318 1.53 1.42
3 11.4318 1.53 1.42
4 -7.1131 1.42 1.42
5 -9.6879 1.42 0.965
6 5.3316 1.101 1.101
7 23.1979 1.101 1.42
8 23.1979 1.101 1.42

BondAngle Coeffs

1 20.754 11.421 1.53 1.101
2 2.6868 20.4033 1.53 1.42
3 2.6868 20.4033 1.53 1.42
4 -2.8112 -2.8112 1.42 1.42
5 28.58 18.9277 1.42 0.965
6 18.103 18.103 1.101 1.101
7 4.6189 55.327 1.101 1.42
8 4.6189 55.327 1.101 1.42

Dihedral Coeffs # class2/kk

1 -0.5203 0 -0.3028 0 -0.345 0
2 -0.6732 0 -0.4778 0 -0.167 0
3 0.5302 0 0 0 -0.3966 0
4 -0.1432 0 0.0617 0 -0.1083 0
5 -0.1435 0 0.253 0 -0.0905 0
6 -0.1435 0 0.253 0 -0.0905 0
7 0.1863 0 -0.4338 0 -0.2121 0
8 -0.182 0 -0.1084 0 -0.7047 0
9 -0.182 0 -0.1084 0 -0.7047 0

AngleAngleTorsion Coeffs

1 -19.0059 111.27 104.5
2 -12.1038 111.27 105.8
3 -16.4438 104.5 108.728
4 -12.564 110.77 110.77
5 -20.2006 110.77 111.27
6 -20.2006 110.77 111.27
7 -10.5093 108.728 105.8
8 -14.0484 111.27 111.27
9 -14.0484 111.27 111.27

EndBondTorsion Coeffs

1 -0.2456 1.0517 -0.7795 0.4741 1.2635 0.5576 1.53 1.42
2 -0.58 0.9004 0 0 0.5343 0.9025 1.53 0.965
3 -0.162 0.1564 -1.1408 -0.6054 1.3339 0.9648 1.42 1.101
4 0.213 0.312 0.0777 0.213 0.312 0.0777 1.101 1.101
5 0.9681 0.9551 0.0436 0.5903 0.6669 0.8584 1.101 1.42
6 0.9681 0.9551 0.0436 0.5903 0.6669 0.8584 1.101 1.42
7 -1.7554 1.3145 0.2263 0.2493 0.6803 0 1.101 0.965
8 1.0165 0.7553 -0.4609 1.0165 0.7553 -0.4609 1.42 1.42
9 1.0165 0.7553 -0.4609 1.0165 0.7553 -0.4609 1.42 1.42

MiddleBondTorsion Coeffs

1 -5.9288 -2.7007 -0.3175 1.42
2 1.2472 0 0.7485 1.42
3 -6.8007 -4.6546 -1.4101 1.42
4 -14.261 -0.5322 -0.4864 1.53
5 -16.7975 -1.2296 -0.275 1.53
6 -16.7975 -1.2296 -0.275 1.53
7 0 0.9241 -0.5889 1.42
8 -17.2585 -3.6157 -0.8364 1.53
9 -17.2585 -3.6157 -0.8364 1.53

BondBond13 Coeffs

1 0 1.53 1.42
2 0 1.53 0.965
3 0 1.42 1.101
4 0 1.101 1.101
5 0 1.101 1.42
6 0 1.101 1.42
7 0 1.101 0.965
8 0 1.42 1.42
9 0 1.42 1.42

AngleTorsion Coeffs

1 -2.7466 1.4877 -0.8955 0.5676 0.945 0.0703 111.27 104.5
2 -3.5903 2.5225 0.4888 0.8726 -0.3577 0.3888 111.27 105.8
3 -0.7777 0.434 -0.6653 -1.8234 1.6393 0.5144 104.5 108.728
4 -0.8085 0.5569 -0.2466 -0.8085 0.5569 -0.2466 110.77 110.77
5 2.3668 2.492 -1.0122 -0.1892 0.4918 0.7273 110.77 111.27
6 2.3668 2.492 -1.0122 -0.1892 0.4918 0.7273 110.77 111.27
7 -3.406 1.6396 0.0737 0 -0.281 -0.5944 108.728 105.8
8 0.5511 0.9737 -0.6673 0.5511 0.9737 -0.6673 111.27 111.27
9 0.5511 0.9737 -0.6673 0.5511 0.9737 -0.6673 111.27 111.27

Improper Coeffs # class2/kk

1 0 0
2 0 0
3 0 0
4 0 0
5 0 0
6 0 0
7 0 0

AngleAngle Coeffs

1 0.2738 -0.4825 0.2738 110.77 110.77 107.66
2 3.9177 2.5926 0.1689 110.77 111.27 108.728
3 0.1689 2.5926 3.9177 111.27 110.77 108.728
4 0.1689 2.5926 3.9177 111.27 110.77 108.728
5 -0.3157 -0.3157 -0.3157 107.66 107.66 107.66
6 2.4259 2.4259 2.1283 107.66 108.728 108.728
7 2.4259 2.4259 2.1283 107.66 108.728 108.728

Atoms # full/kk

1216 2 2 0.053 10.376283985712735 44.0817348304583 5.690212509770786 2 -1 1
6610 10 2 0.053 8.019627633717489 7.313129301999657 5.370072661597203 0 1 0
6607 10 2 0.053 8.128253840889471 9.553826615888486 5.9960257714651215 0 1 0
6605 10 4 -0.266 6.361707972171001 9.67827191933463 5.271130162141198 0 1 0
6608 10 2 0.053 6.872814837500078 9.465442501913149 7.248649379528833 0 1 0
180 1 2 0.053 5.542439219224563 5.9273843305374285 8.002755083649932 1 0 1
6606 10 1 0.027 7.218177302083613 9.12172352656291 6.308101148180304 0 1 0
6619 10 4 -0.266 10.037288986958682 4.152498804478099 8.439183046770417 0 1 0
6609 10 1 0.027 7.38376430078185 7.580782694277483 6.300488344217604 0 1 0
6613 10 1 0.027 8.988958986878789 6.013687904448902 7.312669649052946 0 1 0
6612 10 4 -0.266 7.914480479250663 7.06914324716441 7.487813793933238 0 1 0
6615 10 2 0.053 8.582149552116835 5.224256550229498 6.618280071475893 0 1 0
6616 10 1 0.027 9.205175702703235 5.290998733599187 8.657268275597959 0 1 0
6611 10 2 0.053 6.432378411696925 7.06888040149204 6.076365249315865 0 1 0
6614 10 2 0.053 9.783740395931204 6.54732124853566 6.795739777386734 0 1 0
6618 10 2 0.053 8.249327904392487 4.984947158031059 9.05164078798664 0 1 0
179 1 1 0.027 4.800941787963077 5.966723408603944 8.807962910718098 1 0 1
6617 10 2 0.053 9.664389538377689 5.918477013778379 9.430930841829221 0 1 0
5396 8 2 0.053 6.903500725587621 9.169199417004794 9.882076348999805 0 1 0
4736 7 2 0.053 10.042364816945593 7.490822472188321 4.736599935191266 0 0 0
4734 7 1 0.027 10.882079055881754 8.11414486545813 4.369455867538148 0 0 0
4737 7 4 -0.266 10.536354843077948 9.450218807855585 4.5392883860423945 0 0 0
4732 7 2 0.053 12.887445525525553 8.42686005640929 4.833394272000591 0 0 0
4778 7 2 0.053 13.962709338419035 5.245452363564871 9.217964088575377 0 0 0
4733 7 2 0.053 11.904934016219052 8.209082179676368 6.283181233745053 0 0 0
4731 7 1 0.027 12.06783340980138 7.846435310489091 5.290200363328244 0 0 0
4777 7 2 0.053 12.42420153199605 5.033041762226716 9.898827271878487 0 0 0
4768 7 2 0.053 12.881810501615785 9.366160212006408 7.566249161311626 0 0 0
4766 7 1 0.027 12.279068078463808 9.565664146970741 8.437391789498648 0 0 0
4772 7 4 -0.266 12.988067345792025 7.550424491301724 9.541984050140014 0 0 0
4767 7 2 0.053 11.305258174155867 9.09069791642617 8.331190540682638 0 0 0
4728 7 2 0.053 14.213790080966227 6.519288842760522 6.162297080908658 0 0 0
4730 7 4 -0.266 12.45952701820351 6.470563927764568 5.105390015698635 0 0 0
4729 7 2 0.053 12.71789468087483 5.964361137279921 7.057992527500027 0 0 0
4727 7 1 0.027 13.2747205060223 5.9323102919076565 6.100508143442777 0 0 0
728 2 2 0.053 16.293006818902953 7.0239681056079135 7.7439065931372015 1 0 0
2915 5 2 0.053 16.929413491789777 9.749668279705043 4.2023091206697885 0 0 0
733 2 2 0.053 16.496722340278396 5.369130474516752 9.462391884449907 1 0 0
731 2 1 0.027 17.570250256656287 5.693178227910377 9.522896537881227 1 0 0
732 2 2 0.053 18.12586203278391 5.1829513956917 8.693601864198135 1 0 0
3051 5 2 0.053 19.28860498010299 9.65062940282527 5.347113706458653 0 0 0
3050 5 1 0.027 20.427909802715117 9.648792655567256 5.266937286651921 0 0 0
726 2 2 0.053 17.45308082262062 8.770385410553143 6.399700229703684 1 0 0
729 2 2 0.053 18.048346614402355 6.788961863226363 7.295140868881157 1 0 0
725 2 2 0.053 18.354186434696675 9.226678701707915 7.886016273305518 1 0 0
2926 5 2 0.053 19.180850903516557 5.510869731802689 5.310921350506181 0 0 0
724 2 1 0.027 17.41143522699769 8.796700041352551 7.4945713068473285 1 0 0
723 2 4 -0.266 16.330838586631543 9.57855265132536 7.925047422054889 1 0 0
727 2 1 0.027 17.3091580929049 7.355600241087848 7.951307893323951 1 0 0
730 2 4 -0.266 17.67967942102384 7.113044239755917 9.28533859292472 1 0 0
3045 5 2 0.053 20.607866979938844 6.601256664845401 8.265892217080285 0 0 0
3043 5 1 0.027 21.08528021393179 7.565604946875295 8.263319595419647 0 0 0
3041 5 2 0.053 19.9086761417435 8.300670724191956 9.820580405664126 0 0 0
3040 5 1 0.027 20.911247204238407 8.12498152008681 9.70211796262075 0 0 0
3046 5 4 -0.266 20.371572798197267 8.408747033649888 7.3948154364863194 0 0 0
3047 5 1 0.027 21.006132592470056 8.425938824777901 6.075254758529093 0 0 0
3049 5 2 0.053 20.67727716468008 7.541420133410618 5.5274513630169 0 0 0
3039 5 4 -0.266 21.490103195944528 7.257631605433922 10.728795522899652 0 0 0
6550 10 1 0.027 24.327888514449647 4.765709406875047 10.610738320551889 -1 1 0
5675 9 2 0.053 24.881012326950948 10.431004826933204 8.616292605391935 0 0 1
5674 9 2 0.053 23.473117019561595 9.585108424814564 7.806073952433808 0 0 1
6552 10 2 0.053 24.33341027973174 5.672371956667566 9.934376809823208 -1 1 0
6533 10 2 0.053 23.469762760979734 5.858043488540341 4.5482321630436395 -1 1 0
3044 5 2 0.053 22.19458865296822 7.554420799840018 8.043713288538603 0 0 0
5677 9 2 0.053 24.68882732371704 8.363109638054654 9.745392913327224 0 0 1
3042 5 2 0.053 21.2590129702472 9.160224359894436 9.751156477794698 0 0 0
3048 5 2 0.053 22.11913148993588 8.361082921480229 6.086468407652673 0 0 0
6547 10 2 0.053 22.02256754552235 4.579798967320455 9.219528607400603 -1 1 0
5672 9 4 -0.266 25.113401885018142 9.62750552158469 6.60578099773274 0 0 1
5685 9 2 0.053 25.202704030881627 6.967101854408176 5.534256035473813 0 0 1
5684 9 2 0.053 26.70004267250216 7.472720907200388 6.264554728983765 0 0 1
5673 9 1 0.027 24.588647156321294 9.581118892194821 7.93248713680954 0 0 1
5676 9 1 0.027 25.146125784260626 8.367758366275272 8.645152058737443 0 0 1
5678 9 2 0.053 26.256881927363224 8.416795654066217 8.837530661177889 0 0 1
5680 9 1 0.027 25.640094880770025 6.209954112514255 7.5760691430586915 0 0 1
5679 9 4 -0.266 24.770947392558774 7.137687541115542 8.150655422414243 0 0 1
5683 9 1 0.027 26.052926271600185 6.616108856279598 6.087357535610173 0 0 1
5681 9 2 0.053 26.497415121413127 6.178157959716078 8.223614238279268 0 0 1
5682 9 2 0.053 25.148262618970605 5.180876034722779 7.729947131447551 0 0 1
5686 9 4 -0.266 26.77917956329994 5.577236152468982 5.462609911221713 0 0 1
6456 10 2 0.053 32.79290387857964 9.85941061990428 5.5154889872999515 -1 1 0
5691 9 2 0.053 29.312052258212518 5.771523364993316 44.453106211007444 0 0 0
5698 9 2 0.053 30.534432084430843 8.994836973695769 4.457968604849294 0 0 1
4235 7 2 0.053 31.663588022121367 4.213962197680138 6.119864289337512 0 0 0
4236 7 2 0.053 31.662518721213857 4.220219196281148 7.953667080667613 0 0 0
4234 7 1 0.027 30.994570924827208 45.17734512527731 7.075386098143714 0 -1 0
5692 9 2 0.053 28.856593058402623 6.680476149066639 4.84060429431486 0 0 1
4238 7 2 0.053 29.48428414921429 5.1356643514792815 8.201681636851212 0 0 0
4246 7 2 0.053 31.03965546033387 9.098366395939784 6.38892763069387 0 0 0
4245 7 2 0.053 31.100755675174156 8.855699789982236 8.169075010070403 0 0 0
4239 7 2 0.053 29.11293837568944 5.0766044919809925 6.3695798389318385 0 0 0
4244 7 1 0.027 30.43360409563815 8.929171361851136 7.319766532509339 0 0 0
4241 7 1 0.027 29.66948022093728 7.587444090744296 7.249919765694196 0 0 0
4243 7 2 0.053 28.921387441576332 7.731391529778531 6.353018489365631 0 0 0
4242 7 2 0.053 29.0920552704992 7.48317695048967 8.0976533540184 0 0 0
4240 7 4 -0.266 30.554671544184973 6.497924677843502 6.995287414012472 0 0 0
4237 7 1 0.027 29.911439852993222 5.222363133826006 7.166538263092272 0 0 0
6460 10 2 0.053 33.4024226890732 7.183092258481175 6.111558533868054 -1 1 0
6464 10 2 0.053 33.048002663074044 6.943961721228392 8.430166980774896 -1 1 0
6463 10 2 0.053 34.12765795256483 5.749054002687091 7.67684942756743 -1 1 0
6457 10 2 0.053 34.588044867410446 9.693736242605432 5.162730759559417 -1 1 0
123 1 1 0.027 36.30736799173327 5.171460348385271 4.46539434276715 0 0 1
125 1 2 0.053 36.44568828436044 6.053699086942764 5.075073449274363 0 0 1
120 1 1 0.027 34.88359624821267 5.1331741257442065 44.902964626189764 0 0 0
6331 10 2 0.053 38.34835623724574 6.68188553293237 9.647874291022138 -1 1 0
6458 10 4 -0.266 33.83908921495862 8.945050462469803 7.081832575671253 -1 1 0
6459 10 1 0.027 34.18785429139626 7.569161260296852 6.773456262616673 -1 1 0
6461 10 2 0.053 35.162093122341716 7.459202690041401 6.256123243805729 -1 1 0
6462 10 1 0.027 34.06171113276058 6.734080405375353 8.015848372030147 -1 1 0
6330 10 2 0.053 38.06561952303096 5.13314420692099 8.739302405832019 -1 1 0
6335 10 2 0.053 37.50387020537727 8.03377372158049 7.920631533095096 -1 1 0
121 1 2 0.053 34.12269303602433 4.578443985761253 4.527311548424854 0 0 1
6339 10 4 -0.266 37.46431714170417 9.01330703400799 5.309683013067251 -1 1 0
6329 10 1 0.027 38.710298428787354 5.972204602623748 8.875333662384248 -1 1 0
6336 10 1 0.027 38.2941705905466 8.018480790252436 5.803401288603609 -1 1 0
6333 10 1 0.027 37.7541735749479 7.338228526230536 7.104982819194978 -1 1 0
6465 10 4 -0.266 35.055828678712146 6.981760305844007 9.019572984700012 -1 1 0
6338 10 2 0.053 38.50458887017818 7.191757354259725 5.107777023444561 -1 1 0
6334 10 2 0.053 36.84376324235005 6.783818287806806 7.033564850906523 -1 1 0
6597 10 2 0.053 43.76871203297274 8.680777150185861 8.618285562992625 -1 1 0
6603 10 2 0.053 4.473747221306157 9.930068897597376 4.595498575618589 0 1 0
6598 10 4 -0.266 44.02841676163615 9.117071392885656 6.534993288468584 -1 1 0
6325 10 4 -0.266 41.097169488940494 6.165581775473559 9.619347332438151 -1 1 0
6594 10 2 0.053 41.37783287190699 8.039944322808315 8.150350891732602 -1 1 0
4041 6 2 0.053 43.41212764792107 7.018775939811473 4.264785466904643 -1 2 1
6332 10 4 -0.266 38.83786966193708 6.542433169911284 7.571387629920483 -1 1 0
183 1 1 0.027 44.40632322236887 5.133617900241739 7.088388702660893 0 0 1
6337 10 2 0.053 39.184697027588626 8.480125520678921 6.179316223373313 -1 1 0
6601 10 2 0.053 4.922078250378544 8.723718932674704 7.413980383182932 0 1 0
182 1 4 -0.266 44.483213273751716 5.877086980729047 8.293999444311352 0 0 1
184 1 2 0.053 44.75099303641862 5.771605937885101 6.267194885559291 0 0 1
6602 10 1 0.027 4.974907475518421 9.292572901177294 5.353403538710568 0 1 0
181 1 2 0.053 4.969623609043173 6.9180567916222735 9.32888989997529 1 0 1
6604 10 2 0.053 4.912224632959358 8.25689444950897 4.9497388857988085 0 1 0
188 1 2 0.053 42.4099984136509 5.412081982500691 6.710312446174792 0 0 1
6326 10 1 0.027 40.004466291711964 5.314359562504467 9.368703985096355 -1 1 0
186 1 1 0.027 43.0187250381243 4.515673909399326 6.743010466596468 0 0 1
6328 10 2 0.053 40.34382890200634 4.6918781978225415 8.548004972869249 -1 1 0
5379 8 2 0.053 5.183601044279792 15.992141288061001 5.162171832462122 0 1 0
4742 7 2 0.053 9.230884236305211 11.668520279754997 4.828714175472043 0 0 0
5382 8 2 0.053 5.074280890726813 13.50437185585805 5.197526376192002 0 1 0
5377 8 1 0.027 4.363969346531104 15.530976722999066 5.74722441631042 0 1 0
5380 8 1 0.027 4.735627059018711 14.066741596671859 6.082507010810328 0 1 0
5389 8 2 0.053 8.113412055871969 12.940381876902645 8.38266321123495 0 1 0
5385 8 2 0.053 5.234321802085036 12.189597663655247 7.890693156550965 0 1 0
4751 7 4 -0.266 8.272110481497368 14.43556376843304 4.860482905904796 0 0 0
5388 8 2 0.053 6.714345961165607 13.590930107917371 9.33439899687528 0 1 0
5390 8 4 -0.266 6.9171685964081675 11.534379255637974 9.429846467306707 0 1 0
5383 8 4 -0.266 5.803374732445692 14.036956224059312 7.027050441786339 0 1 0
5386 8 2 0.053 6.493365822495309 11.984905711924071 6.758252388717978 0 1 0
5384 8 1 0.027 6.146964259886246 12.691528760730252 7.503534995647613 0 1 0
5387 8 1 0.027 7.069965802756741 12.764617440160318 8.712434837517392 0 1 0
4752 7 1 0.027 9.475895638919582 15.185656021808319 5.0788894153392015 0 0 0
4756 7 2 0.053 9.389606935861122 15.185926071994155 7.308404410164816 0 0 0
5391 8 1 0.027 8.10514763165111 11.001237374270026 10.014108320011545 0 1 0
5392 8 2 0.053 8.822438881696772 10.726956186700136 9.158310149607082 0 1 0
4754 7 2 0.053 10.247947432960256 14.80006939824323 4.374635743710708 0 0 0
4743 7 2 0.053 10.440966140544063 11.796771797456117 44.59034996644444 0 0 -1
2904 5 2 0.053 12.63343305457946 14.264470042020077 4.382025349330164 0 0 0
5316 8 2 0.053 13.699836200751776 13.41676469040696 9.772008843505816 0 1 0
5314 8 1 0.027 14.793739558649527 13.786472552145677 9.786896991529641 0 1 0
5315 8 2 0.053 14.827574557684459 14.676742953619677 10.40675594081109 0 1 0
5313 8 4 -0.266 15.685598488210475 12.759525463242685 10.288191791724703 0 1 0
4755 7 1 0.027 10.085512637358725 14.83866696046173 6.453894708569361 0 0 0
4761 7 2 0.053 10.75937865333048 13.246255994641734 8.477572726689585 0 0 0
4763 7 2 0.053 10.512968252232533 11.101193692533668 7.2268727994666575 0 0 0
4758 7 4 -0.266 10.353476208272461 13.473986557816353 6.544254599207676 0 0 0
4760 7 2 0.053 12.245809303331038 13.552629799208127 7.506869883340067 0 0 0
4757 7 2 0.053 11.080697870881743 15.461438477365746 6.572072678892837 0 0 0
5320 8 4 -0.266 14.566135621255844 15.410355056456796 8.266258208727304 0 1 0
4759 7 1 0.027 11.22956682570398 13.021226361684429 7.5330903301614835 0 0 0
4762 7 1 0.027 11.491196589740593 11.538718089489738 7.415332321810352 0 0 0
4764 7 2 0.053 12.119665273560583 11.322167425616314 6.546325027443708 0 0 0
4765 7 4 -0.266 12.027240524634887 10.997970559424243 8.588927435117645 0 0 0
5317 8 1 0.027 15.270818844441402 14.182528397936016 8.322644070686083 0 1 0
5319 8 2 0.053 15.028186080222902 13.543623602738801 7.4524924064350335 0 1 0
721 2 2 0.053 15.241488672462902 11.319612203731467 7.467624905794984 1 0 0
722 2 2 0.053 15.97532568912992 10.498608968490679 6.106457813266821 1 0 0
720 2 1 0.027 16.164761389731698 10.783248377586819 7.177583747965645 1 0 0
712 2 2 0.053 16.78018053033015 14.535676266184963 4.300896917755918 1 0 0
5200 8 2 0.053 17.55498367589631 16.550141053929046 9.4854507010309 0 1 0
1076 2 2 0.053 19.193008017377657 12.8407767079443 9.585802220830603 1 0 0
1075 2 2 0.053 19.765820636818333 11.153983220900255 9.433466956472602 1 0 0
5318 8 2 0.053 16.348256692815163 14.38765456052001 8.291941744106287 0 1 0
1074 2 1 0.027 20.10718461206436 12.200130260763121 9.63240964273028 1 0 0
1072 2 2 0.053 21.741421164265542 14.13926113029849 9.273794922944369 1 0 0
711 2 2 0.053 18.388469534181155 15.060830189461594 45.12108440512716 1 0 -1
4604 7 4 -0.266 20.767203318961148 15.4691068822068 4.9268356692824655 0 -1 0
710 2 1 0.027 17.790912069225186 14.139633460164639 4.318830993984147 1 0 0
714 2 2 0.053 19.083860287165788 12.935807974515962 5.553189351329386 1 0 0
715 2 2 0.053 18.314472502174453 14.277840852055801 6.387641581900692 1 0 0
713 2 1 0.027 18.148611119169715 13.457016258477948 5.657393176336583 1 0 0
716 2 4 -0.266 17.050691292570953 12.742831116903776 6.1066795607517905 1 0 0
718 2 2 0.053 17.262756429117694 12.421714322781053 8.131588969448623 1 0 0
717 2 1 0.027 17.286836157979806 11.84203358747297 7.191642239406675 1 0 0
719 2 2 0.053 18.32131474308224 11.526251108540041 7.122945584103935 1 0 0
1071 2 2 0.053 20.873006932174743 14.220359211178177 7.650727359855408 1 0 0
1073 2 4 -0.266 20.920812215871212 12.378618847982585 8.459854962054898 1 0 0
1070 2 1 0.027 21.4991373141372 13.655908911608813 8.342783126018901 1 0 0
3052 5 2 0.053 20.778568410362723 10.656877573406499 5.5842708861229795 0 0 0
5308 8 2 0.053 16.53356606243878 10.393645520424943 10.52579612445624 0 1 0
5665 9 4 -0.266 26.62749835237657 12.135607029463985 4.4977699474656365 0 0 1
4607 7 2 0.053 22.722060639736714 14.829376456486129 4.464774549723005 0 -1 0
5666 9 1 0.027 26.59502358977637 10.997818137362504 5.28803301630159 0 0 1
1065 2 2 0.053 25.151422235738746 14.00486157608607 6.281834123666008 1 0 0
1069 2 2 0.053 22.60540075930452 12.944197555583296 6.5751398781231725 1 0 0
1068 2 2 0.053 23.421778233035656 12.736213718286612 8.069111546299784 1 0 0
1064 2 2 0.053 25.378595968250405 14.301852773373726 7.994555593993172 1 0 0
1067 2 1 0.027 22.7894560591956 13.48067453751462 7.5454480623835565 1 0 0
1066 2 4 -0.266 23.45363592072346 14.693034642706692 7.330046255000203 1 0 0
1063 2 1 0.027 24.842596336806235 14.657114368013831 7.110216704994508 1 0 0
5670 9 2 0.053 25.33187040131405 11.693044533623569 6.7542693302971495 0 0 1
5669 9 1 0.027 25.201589215459315 10.9004406196642 6.010425744410057 0 0 1
4256 7 2 0.053 26.540809738796785 11.825582100182366 8.877739059746785 0 0 0
5671 9 2 0.053 24.420971450960135 10.971671988268415 5.317228728895542 0 0 1
1058 2 2 0.053 27.25909285595336 15.283601172680557 8.088018584404756 1 0 0
5667 9 2 0.053 26.605515448025642 10.093848139213737 4.631786448924477 0 0 1
5668 9 2 0.053 27.433613572088877 10.881088101310318 6.023651100048544 0 0 1
4255 7 1 0.027 27.369606141464548 11.516646191836346 9.607214199448011 0 0 0
4257 7 2 0.053 27.59654871703359 10.442428663016559 9.418068297224972 0 0 0
6454 10 2 0.053 33.47794511144183 11.440954038954798 7.4056831315157226 -1 1 0
6575 10 2 0.053 32.78138501146782 11.97853760598646 9.7739248232124 -1 1 0
6446 10 2 0.053 32.30040293016831 14.461401712277096 4.438017691262474 -1 1 0
4254 7 4 -0.266 28.483307910819455 12.290921928782177 9.320133399789567 0 0 0
1047 2 2 0.053 31.83252678151181 15.519418503938994 9.592518537742238 1 0 0
1051 2 2 0.053 31.608950124737436 15.551968735032824 6.932949062645018 1 0 0
4252 7 2 0.053 28.117081687110353 12.226636179183092 7.324962646810529 0 0 0
4253 7 2 0.053 29.336337727132033 13.292944839628587 7.720946032285882 0 0 0
4251 7 1 0.027 28.945298912825 12.319065255368454 8.029257345349118 0 0 0
4249 7 2 0.053 30.745681290682676 11.301055484016384 8.681446418295355 0 0 0
4250 7 2 0.053 30.61909706655544 11.645433645710131 6.953349984068784 0 0 0
4248 7 1 0.027 30.05151692384269 11.265919010547996 7.818997957961573 0 0 0
6450 10 2 0.053 33.24819000950542 13.799667272714176 6.767921119466618 -1 1 0
4247 7 4 -0.266 29.47969760823216 10.01322786568484 7.506067036590979 0 0 0
6455 10 1 0.027 33.83427298851416 9.822059669708015 5.927039611045373 -1 1 0
6445 10 1 0.027 33.437523437669704 14.564590823916083 4.654155632175802 -1 1 0
6588 10 1 0.027 39.92417021431703 10.376354175859582 8.509453699098934 -1 1 0
1038 2 4 -0.266 36.9198830206297 16.683710842205823 9.127759445949268 1 0 0
1611 3 1 0.027 37.59239683524841 15.315646187249907 5.739797191790409 -1 -1 1
1613 3 2 0.053 36.51752242348982 15.627486880420365 5.916460771549526 -1 -1 1
6582 10 2 0.053 37.28238953916771 11.201831759298663 8.44643254516482 -1 1 0
6577 10 4 -0.266 34.81762201057231 11.63710912051398 9.636930414808267 -1 1 0
1612 3 2 0.053 37.395111486052656 14.434999501970205 5.13997299524287 -1 -1 1
1040 2 2 0.053 35.65420227547517 16.42448657986445 7.534822634879077 1 0 0
1608 3 1 0.027 38.35170342916882 14.841698475768826 7.045889565323602 -1 -1 1
1609 3 2 0.053 37.57143658576038 14.446036252755139 7.805372768445624 -1 -1 1
6449 10 2 0.053 34.89944494832818 13.882512174137615 6.108605052443362 -1 1 0
6345 10 2 0.053 36.413640772034825 11.452435688857605 4.758814632712325 -1 1 0
6589 10 2 0.053 39.5150824543705 10.876839918427098 7.604921343193343 -1 1 0
6340 10 1 0.027 38.05534501533069 9.942931654087062 4.443308661350847 -1 1 0
6451 10 4 -0.266 33.6795031376563 12.218364380680873 5.502750276242678 -1 1 0
6448 10 1 0.027 33.90607298363422 13.569676361628025 5.825435767332741 -1 1 0
6452 10 1 0.027 34.10077603521335 11.292670600813985 6.486653079894906 -1 1 0
6453 10 2 0.053 35.13320875566443 11.361986070591788 6.697619886319724 -1 1 0
1607 3 4 -0.266 39.32120094158789 13.824665082443056 6.876817275444151 -1 -1 1
1610 3 2 0.053 38.73689300274076 15.639214761361327 7.576188653476412 -1 -1 1
6341 10 2 0.053 38.85623233130693 10.525811232969083 4.889615387647169 -1 1 0
1604 3 1 0.027 40.58007430281276 14.384511202339914 6.460448717770952 -1 -1 1
6595 10 1 0.027 43.312833218409665 9.200225262813515 7.814761210351974 -1 1 0
1605 3 2 0.053 40.970858232031745 15.032743137815396 7.293201908787359 -1 -1 1
6600 10 2 0.053 4.315235672463318 10.43399560779595 7.131622802147153 0 1 0
1602 3 2 0.053 41.85341379967501 12.883071611775435 7.125964080991111 -1 -1 1
6592 10 1 0.027 41.79401380961569 9.02965347867556 7.690362309041063 -1 1 0
6593 10 2 0.053 41.31558595082102 9.056162401884603 6.642157663749236 -1 1 0
6596 10 2 0.053 43.44696643003776 10.150312218018485 8.260478369854884 -1 1 0
4395 7 1 0.027 43.27758072693631 15.182049191897176 9.375899308495764 0 0 0
1603 3 2 0.053 42.525833996459596 13.99365871186865 6.0117735102189265 -1 -1 1
1601 3 1 0.027 41.6056245944518 13.398504728192446 6.2224938811996875 -1 -1 1
5381 8 2 0.053 44.89316932564192 13.643474579856314 6.604762769738724 -1 1 0
6599 10 1 0.027 4.36562409005913 9.403128111160942 6.7220116325774795 0 1 0
4397 7 2 0.053 43.04392157866772 14.587297251299322 8.5312786506192 0 0 0
6591 10 4 -0.266 41.32416211468657 10.197997024265808 8.432370514789172 -1 1 0
1606 3 2 0.053 40.44454522072711 14.976589197149893 5.50975703575262 -1 -1 1
1598 3 2 0.053 42.81566994773374 11.220196070560048 5.807612995637683 -1 -1 1
5376 8 4 -0.266 44.301628205437936 15.476284019566599 4.885441869441707 -1 1 0
4394 7 4 -0.266 42.32312019174519 16.265757808953943 9.260265664595531 0 0 0
4396 7 2 0.053 44.29686419583916 15.435802703821373 9.37955430479583 0 0 0
1600 3 4 -0.266 41.234687236830254 12.468326948291885 5.191883541960825 -1 -1 1
5338 8 1 0.027 7.513813639786654 18.230712036214257 6.815561160444778 0 1 0
5341 8 4 -0.266 7.2482557109908505 19.167850543257195 5.782598737224152 0 1 0
5340 8 2 0.053 7.570328697782265 17.17230971910258 6.516447626563843 0 1 0
5378 8 2 0.053 4.169321595697511 16.126500923235117 6.603008470005685 0 1 0
4753 7 2 0.053 9.313260059952992 16.212216510560843 4.913444823672228 0 0 0
5335 8 1 0.027 8.704238364450696 18.70796101505892 7.63947020670765 0 1 0
5337 8 2 0.053 8.456014701375981 19.776710776198257 7.8919276807425005 0 1 0
5339 8 2 0.053 6.665635952565271 18.267387867321037 7.607559845705575 0 1 0
1637 3 2 0.053 4.774737809851713 22.201793264063774 9.123059034598775 0 -1 1
5336 8 2 0.053 8.743024824190158 18.047085446419352 8.513923162340596 0 1 0
1635 3 4 -0.266 4.485614086130034 21.714224454243208 7.049011050527455 0 -1 1
2887 5 2 0.053 9.262694394336702 20.2621239760596 5.001122659284376 0 0 0
1641 3 2 0.053 7.036778344887834 22.229935358876556 7.6864856169807245 0 -1 1
5334 8 4 -0.266 9.900862401345407 18.664062199834802 6.826478279163731 0 1 0
2886 5 1 0.027 9.4077496101446 21.223592547992872 4.392792809545324 0 0 0
5332 8 2 0.053 11.387929510304923 19.56017244720996 8.13514543957573 0 1 0
5331 8 1 0.027 11.114139563829124 18.640265480201748 7.6108187902429085 0 1 0
5344 8 2 0.053 5.308526458796411 18.514023354704513 5.377230274035124 0 1 0
2009 3 2 0.053 14.293153738754382 16.842735450410395 10.433373980762834 0 -1 1
5322 8 2 0.053 15.409642095884609 15.445491513887728 6.418893803647511 0 1 0
2005 3 2 0.053 12.376703604363787 15.84886661468994 9.843964212980879 0 -1 1
5321 8 1 0.027 14.538738501699383 15.84205646798672 6.938712997219068 0 1 0
5333 8 2 0.053 11.02439759754289 17.930458560559053 8.4076830945388 0 1 0
5330 8 2 0.053 11.982062576618535 17.276466031610315 6.187693086650981 0 1 0
5326 8 2 0.053 14.619948166373353 17.629664907965527 5.615942225873453 0 1 0
5323 8 2 0.053 13.636818608776426 15.353141489633432 6.551562254720392 0 1 0
5329 8 2 0.053 12.397431651726768 18.845196655616512 5.839792365349833 0 1 0
5328 8 1 0.027 12.248901772911635 18.16844820083436 6.712753172693272 0 1 0
5327 8 4 -0.266 13.51896825617023 18.138562281004457 7.342895651270645 0 1 0
5325 8 2 0.053 15.467655128427552 17.750742525095767 7.252523185843561 0 1 0
5324 8 1 0.027 14.560048256165535 17.39702589115238 6.719832857772139 0 1 0
6679 10 1 0.027 13.839512986267213 21.62307551774922 4.882496100831775 0 0 0
6681 10 2 0.053 13.449808448836851 20.55596317631736 4.908708756278557 0 0 0
6678 10 2 0.053 14.076700198402024 21.368859854302965 7.039294267374141 0 0 0
6676 10 1 0.027 14.611209144826105 21.771860987386844 6.21052598519313 0 0 0
2895 5 2 0.053 10.547131033143069 18.33184887836804 45.107456570573206 0 0 -1
6680 10 2 0.053 12.99162841849565 22.31180228863196 4.832403217631961 0 0 0
4589 7 2 0.053 20.249703339852637 21.203904602592026 9.829218429553457 0 -1 0
5197 8 2 0.053 20.086702391815123 17.264131063056375 9.68792495950058 0 1 0
4592 7 2 0.053 19.26040760617456 19.206006214549056 9.234322519258011 0 -1 0
4593 7 2 0.053 17.656942477708768 20.156087890339418 8.725359500730793 0 -1 0
4591 7 1 0.027 18.634242574438698 19.8000512342601 8.399541548438528 0 -1 0
4596 7 2 0.053 18.047126658539447 19.487305788874735 6.385754026482066 0 -1 0
4599 7 2 0.053 18.673299323173786 16.611824308292988 5.693187076731673 0 -1 0
4595 7 2 0.053 17.63100594865834 18.171261416849916 7.537452044514265 0 -1 0
4600 7 2 0.053 19.37271700421303 16.261132217700684 7.241253952188853 0 -1 0
4597 7 4 -0.266 19.558885950902038 18.179877428382653 6.865535472912291 0 -1 0
4587 7 1 0.027 19.728414876108324 21.71152728351358 9.063793425866322 0 -1 0
4598 7 1 0.027 19.552457920756176 16.86860007684003 6.390231976555394 0 -1 0
4594 7 1 0.027 18.3773457641241 18.857016442845723 7.239062530175801 0 -1 0
4590 7 4 -0.266 19.390297771872746 20.930020116703805 7.945092546600713 0 -1 0
4601 7 1 0.027 20.892665942384184 16.606007889170748 5.785244476851405 0 -1 0
4602 7 2 0.053 21.21658894042742 17.465428843635884 5.195035152295985 0 -1 0
1309 2 2 0.053 21.441531895914267 21.159070440007017 4.917589124703574 2 -1 1
6677 10 2 0.053 15.558054748384533 21.08799494814666 6.086383093551094 0 0 0
1310 2 2 0.053 19.717086725066864 20.683792915584746 4.596583320731386 2 -1 1
6411 10 2 0.053 21.363013271828034 18.7431357799483 9.020299071386821 -1 1 0
4603 7 2 0.053 21.595047469572492 16.360606109674492 6.551215077194672 0 -1 0
1308 2 1 0.027 20.51258520299969 21.51291102210538 4.3844354845487645 2 -1 1
6409 10 4 -0.266 23.318960500252782 18.54894281045924 9.872989739026355 -1 1 0
6401 10 2 0.053 26.900533621288144 21.345463811529793 9.693061834597746 -1 1 0
1060 2 1 0.027 25.308889067765193 16.10168855213776 6.710731634988721 1 0 0
1061 2 2 0.053 24.667503603326043 16.42119144355541 5.804055228896206 1 0 0