units real
atom_style full
boundary p p p

# --- Force Field Styles ---
pair_style lj/class2/coul/long 9.5 9.5
kspace_style pppm 1e-6
dielectric 1.000000
bond_style class2
angle_style class2
dihedral_style class2
improper_style class2
special_bonds lj/coul 0 0 1
pair_modify mix sixthpower tail yes
neighbor 2.0 bin
neigh_modify delay 0 every 1 check yes
neigh_modify one 4000
package gpu 1 neigh no

read_data /home/arz2/PolyJarvis/data/PVC1/lammps/equil/npt_compress/npt_compress_out.data
Reading data file ...
  orthogonal box = (8.0644875 8.0644875 8.0644875) to (40.321008 40.321008 40.321008)
  1 by 1 by 1 MPI processor grid
  reading atoms ...
  3620 atoms
  reading velocities ...
  3620 velocities
  scanning bonds ...
  4 = max bonds/atom
  scanning angles ...
  6 = max angles/atom
  scanning dihedrals ...
  12 = max dihedrals/atom
  scanning impropers ...
  4 = max impropers/atom
  orthogonal box = (8.0644875 8.0644875 8.0644875) to (40.321008 40.321008 40.321008)
  1 by 1 by 1 MPI processor grid
  reading bonds ...
  3610 bonds
  reading angles ...
  7200 angles
  reading dihedrals ...
  10710 dihedrals
  reading impropers ...
  4800 impropers
Finding 1-2 1-3 1-4 neighbors ...
  special bond factors lj:    0        0        1       
  special bond factors coul:  0        0        1       
     4 = max # of 1-2 neighbors
     6 = max # of 1-3 neighbors
    10 = max # of special neighbors
  special bonds CPU = 0.002 seconds
  read_data CPU = 0.409 seconds
include /home/arz2/PolyJarvis/data/PVC1/lammps/equil/emc_build.params
# LAMMPS parameters created by EMC v9.4.4, build Jul 31 2025 20:33:44

# Variables

variable	seed		index	-1
variable	ntotal		index	3620
variable	fshape		index	1
variable	output		index	emc_build
variable	field		index	pcff/pcff
variable	location1	index	/home/arz2/emc/field/
variable	nav		index	0.6022141179
variable	temperature	index	300
variable	radius		index	5
variable	nrelax		index	100
variable	weight_nonbond	index	0.0001
variable	weight_bond	index	0.0001
variable	weight_focus	index	1
variable	cutoff		index	9.5
variable	charge_cutoff	index	9.5
variable	kappa		index	4
variable	density1	index	0.55
variable	lprevious	index	0
variable	lphase		index	48.3854950346
variable	f_poly		index	10
variable	chem_repeat	index	*CC(Cl)*
variable	chem_cap	index	*[H]
variable	lg_repeat	index	6
variable	lg_cap		index	1
variable	norm_poly	index	100
variable	l_poly		index	362
variable	mg_repeat	index	50.48806
variable	mg_cap		index	1.00797
variable	m_poly		index	3031.29954
variable	n_poly		index	10
variable	mtotal		index	37519.6854
variable	nphase1		index	3620
variable	mphase1		index	37519.6854
variable	vphase1		index	113277.998291
variable	lbox		index	48.3854950346
variable	lphase1		index	48.3854950346
variable	lxx		index	48.3854950346
variable	lyy		index	48.3854950346
variable	lzz		index	48.3854950346
variable	lzy		index	0
variable	lzx		index	0
variable	lyx		index	0
variable	vtotal		index	113277.998291
variable	nl_poly		index	10

# Types

variable	type_c		index	1
variable	type_c1		index	2
variable	type_cl		index	3
variable	type_hc		index	4

variable	type_bond_c_c	index	1
variable	type_bond_c_c1	index	2
variable	type_bond_c_cl	index	3
variable	type_bond_c_hc	index	4
variable	type_bond_c1_cl	index	5
variable	type_bond_c1_hc	index	6

variable	type_angle_c_c_c1 index	1
variable	type_angle_c_c_cl index	2
variable	type_angle_c_c_hc index	3
variable	type_angle_c_c1_c index	4
variable	type_angle_c_c1_cl index	5
variable	type_angle_c_c1_hc index	6
variable	type_angle_c1_c_c1 index	7
variable	type_angle_c1_c_hc index	8
variable	type_angle_cl_c_hc index	9
variable	type_angle_cl_c1_hc index	10
variable	type_angle_hc_c_hc index	11

# Clusters

variable	n0_poly		index	1
variable	n1_poly		index	10
variable	nl_poly		index	10

# Flags

variable	flag_charged	index	1

# Masses

mass		1    12.01115  # c
mass		2    12.01115  # c1
mass		3    35.45300  # cl
mass		4     1.00797  # hc

# Potentials

pair_modify	mix sixthpower tail yes
special_bonds	lj/coul 0 0 1

# Pair Coeffs

pair_coeff	 1  1    0.05400    4.01000  # c,c
pair_coeff	 2  2    0.05400    4.01000  # c1,c1
pair_coeff	 3  3    0.22470    3.92000  # cl,cl
pair_coeff	 4  4    0.02000    2.99500  # hc,hc

# Bond Coeffs

bond_coeff	1    1.53000  299.67000 -501.77000  679.81000  # c,c
bond_coeff	2    1.53000  299.67000 -501.77000  679.81000  # c,c1
bond_coeff	3    1.79000  194.31900    0.00000    0.00000  # c,cl
bond_coeff	4    1.10100  345.00000 -691.89000  844.60000  # c,hc
bond_coeff	5    1.79000  194.31900    0.00000    0.00000  # c1,cl
bond_coeff	6    1.10100  345.00000 -691.89000  844.60000  # c1,hc

# Angle Coeffs

angle_coeff	 1  112.67000   39.51600   -7.44300   -9.55830  # c,c,c1
angle_coeff	 2  107.00000   61.17450    0.00000    0.00000  # c,c,cl
angle_coeff	 3  110.77000   41.45300  -10.60400    5.12900  # c,c,hc
angle_coeff	 4  112.67000   39.51600   -7.44300   -9.55830  # c,c1,c
angle_coeff	 5  107.00000   61.17450    0.00000    0.00000  # c,c1,cl
angle_coeff	 6  110.77000   41.45300  -10.60400    5.12900  # c,c1,hc
angle_coeff	 7  112.67000   39.51600   -7.44300   -9.55830  # c1,c,c1
angle_coeff	 8  110.77000   41.45300  -10.60400    5.12900  # c1,c,hc
angle_coeff	 9  107.99680   51.09870    0.00000    0.00000  # cl,c,hc
angle_coeff	10  107.99680   51.09870    0.00000    0.00000  # cl,c1,hc
angle_coeff	11  107.66000   39.64100  -12.92100   -2.43180  # hc,c,hc

# BondBond Coeffs

angle_coeff	 1 bb    0.00000    1.53000    1.53000  # c,c,c1
angle_coeff	 2 bb    0.00000    1.53000    1.79000  # c,c,cl
angle_coeff	 3 bb    3.38720    1.53000    1.10100  # c,c,hc
angle_coeff	 4 bb    0.00000    1.53000    1.53000  # c,c1,c
angle_coeff	 5 bb    0.00000    1.53000    1.79000  # c,c1,cl
angle_coeff	 6 bb    3.38720    1.53000    1.10100  # c,c1,hc
angle_coeff	 7 bb    0.00000    1.53000    1.53000  # c1,c,c1
angle_coeff	 8 bb    3.38720    1.53000    1.10100  # c1,c,hc
angle_coeff	 9 bb    0.00000    1.79000    1.10100  # cl,c,hc
angle_coeff	10 bb    0.00000    1.79000    1.10100  # cl,c1,hc
angle_coeff	11 bb    5.33160    1.10100    1.10100  # hc,c,hc

# BondAngle Coeffs

angle_coeff	 1 ba    8.01600    8.01600    1.53000    1.53000  # c,c,c1
angle_coeff	 2 ba    0.00000    0.00000    1.53000    1.79000  # c,c,cl
angle_coeff	 3 ba   20.75400   11.42100    1.53000    1.10100  # c,c,hc
angle_coeff	 4 ba    8.01600    8.01600    1.53000    1.53000  # c,c1,c
angle_coeff	 5 ba    0.00000    0.00000    1.53000    1.79000  # c,c1,cl
angle_coeff	 6 ba   20.75400   11.42100    1.53000    1.10100  # c,c1,hc
angle_coeff	 7 ba    8.01600    8.01600    1.53000    1.53000  # c1,c,c1
angle_coeff	 8 ba   20.75400   11.42100    1.53000    1.10100  # c1,c,hc
angle_coeff	 9 ba    0.00000    0.00000    1.79000    1.10100  # cl,c,hc
angle_coeff	10 ba    0.00000    0.00000    1.79000    1.10100  # cl,c1,hc
angle_coeff	11 ba   18.10300   18.10300    1.10100    1.10100  # hc,c,hc

# Dihedral Coeffs

dihedral_coeff	 1    0.00000    0.00000    0.05140    0.00000   -0.14300    0.00000  # c,c,c1,c
dihedral_coeff	 2    0.00000    0.00000    0.00000    0.00000    0.15000    0.00000  # c,c,c1,cl
dihedral_coeff	 3    0.00000    0.00000    0.03160    0.00000   -0.16810    0.00000  # c,c,c1,hc
dihedral_coeff	 4    0.00000    0.00000    0.05140    0.00000   -0.14300    0.00000  # c,c1,c,c1
dihedral_coeff	 5    0.00000    0.00000    0.03160    0.00000   -0.16810    0.00000  # c,c1,c,hc
dihedral_coeff	 6    0.00000    0.00000    0.00000    0.00000    0.15000    0.00000  # c1,c,c,cl
dihedral_coeff	 7    0.00000    0.00000    0.03160    0.00000   -0.16810    0.00000  # c1,c,c,hc
dihedral_coeff	 8    0.00000    0.00000    0.00000    0.00000    0.15000    0.00000  # c1,c,c1,cl
dihedral_coeff	 9    0.00000    0.00000    0.03160    0.00000   -0.16810    0.00000  # c1,c,c1,hc
dihedral_coeff	10    0.00000    0.00000    0.00000    0.00000   -0.10000    0.00000  # cl,c,c,hc
dihedral_coeff	11    0.00000    0.00000    0.00000    0.00000   -0.10000    0.00000  # cl,c1,c,hc
dihedral_coeff	12   -0.14320    0.00000    0.06170    0.00000   -0.10830    0.00000  # hc,c,c,hc
dihedral_coeff	13   -0.14320    0.00000    0.06170    0.00000   -0.10830    0.00000  # hc,c,c1,hc

# MiddleBondTorsion Coeffs

dihedral_coeff	 1 mbt  -17.78700   -7.18770    0.00000    1.53000  # c,c,c1,c
dihedral_coeff	 2 mbt    0.00000    0.00000    0.00000    1.53000  # c,c,c1,cl
dihedral_coeff	 3 mbt  -14.87900   -3.65810   -0.31380    1.53000  # c,c,c1,hc
dihedral_coeff	 4 mbt  -17.78700   -7.18770    0.00000    1.53000  # c,c1,c,c1
dihedral_coeff	 5 mbt  -14.87900   -3.65810   -0.31380    1.53000  # c,c1,c,hc
dihedral_coeff	 6 mbt    0.00000    0.00000    0.00000    1.53000  # c1,c,c,cl
dihedral_coeff	 7 mbt  -14.87900   -3.65810   -0.31380    1.53000  # c1,c,c,hc
dihedral_coeff	 8 mbt    0.00000    0.00000    0.00000    1.53000  # c1,c,c1,cl
dihedral_coeff	 9 mbt  -14.87900   -3.65810   -0.31380    1.53000  # c1,c,c1,hc
dihedral_coeff	10 mbt    0.00000    0.00000    0.00000    1.53000  # cl,c,c,hc
dihedral_coeff	11 mbt    0.00000    0.00000    0.00000    1.53000  # cl,c1,c,hc
dihedral_coeff	12 mbt  -14.26100   -0.53220   -0.48640    1.53000  # hc,c,c,hc
dihedral_coeff	13 mbt  -14.26100   -0.53220   -0.48640    1.53000  # hc,c,c1,hc

# EndBondTorsion Coeffs

dihedral_coeff	 1 ebt   -0.07320    0.00000    0.00000   -0.07320    0.00000    0.00000    1.53000    1.53000  # c,c,c1,c
dihedral_coeff	 2 ebt    0.00000    0.00000    0.00000    0.00000    0.00000    0.00000    1.53000    1.79000  # c,c,c1,cl
dihedral_coeff	 3 ebt    0.24860    0.24220   -0.09250    0.08140    0.05910    0.22190    1.53000    1.10100  # c,c,c1,hc
dihedral_coeff	 4 ebt   -0.07320    0.00000    0.00000   -0.07320    0.00000    0.00000    1.53000    1.53000  # c,c1,c,c1
dihedral_coeff	 5 ebt    0.24860    0.24220   -0.09250    0.08140    0.05910    0.22190    1.53000    1.10100  # c,c1,c,hc
dihedral_coeff	 6 ebt    0.00000    0.00000    0.00000    0.00000    0.00000    0.00000    1.53000    1.79000  # c1,c,c,cl
dihedral_coeff	 7 ebt    0.24860    0.24220   -0.09250    0.08140    0.05910    0.22190    1.53000    1.10100  # c1,c,c,hc
dihedral_coeff	 8 ebt    0.00000    0.00000    0.00000    0.00000    0.00000    0.00000    1.53000    1.79000  # c1,c,c1,cl
dihedral_coeff	 9 ebt    0.24860    0.24220   -0.09250    0.08140    0.05910    0.22190    1.53000    1.10100  # c1,c,c1,hc
dihedral_coeff	10 ebt    0.00000    0.00000    0.00000    0.00000    0.00000    0.00000    1.79000    1.10100  # cl,c,c,hc
dihedral_coeff	11 ebt    0.00000    0.00000    0.00000    0.00000    0.00000    0.00000    1.79000    1.10100  # cl,c1,c,hc
dihedral_coeff	12 ebt    0.21300    0.31200    0.07770    0.21300    0.31200    0.07770    1.10100    1.10100  # hc,c,c,hc
dihedral_coeff	13 ebt    0.21300    0.31200    0.07770    0.21300    0.31200    0.07770    1.10100    1.10100  # hc,c,c1,hc

# AngleTorsion Coeffs

dihedral_coeff	 1 at    0.38860   -0.31390    0.13890    0.38860   -0.31390    0.13890  112.67000  112.67000  # c,c,c1,c
dihedral_coeff	 2 at    0.00000    0.00000    0.00000    0.00000    0.00000    0.00000  112.67000  107.00000  # c,c,c1,cl
dihedral_coeff	 3 at   -0.24540    0.00000   -0.11360    0.31130    0.45160   -0.19880  112.67000  110.77000  # c,c,c1,hc
dihedral_coeff	 4 at    0.38860   -0.31390    0.13890    0.38860   -0.31390    0.13890  112.67000  112.67000  # c,c1,c,c1
dihedral_coeff	 5 at   -0.24540    0.00000   -0.11360    0.31130    0.45160   -0.19880  112.67000  110.77000  # c,c1,c,hc
dihedral_coeff	 6 at    0.00000    0.00000    0.00000    0.00000    0.00000    0.00000  112.67000  107.00000  # c1,c,c,cl
dihedral_coeff	 7 at   -0.24540    0.00000   -0.11360    0.31130    0.45160   -0.19880  112.67000  110.77000  # c1,c,c,hc
dihedral_coeff	 8 at    0.00000    0.00000    0.00000    0.00000    0.00000    0.00000  112.67000  107.00000  # c1,c,c1,cl
dihedral_coeff	 9 at   -0.24540    0.00000   -0.11360    0.31130    0.45160   -0.19880  112.67000  110.77000  # c1,c,c1,hc
dihedral_coeff	10 at    0.00000    0.00000    0.00000    0.00000    0.00000    0.00000  107.00000  110.77000  # cl,c,c,hc
dihedral_coeff	11 at    0.00000    0.00000    0.00000    0.00000    0.00000    0.00000  107.00000  110.77000  # cl,c1,c,hc
dihedral_coeff	12 at   -0.80850    0.55690   -0.24660   -0.80850    0.55690   -0.24660  110.77000  110.77000  # hc,c,c,hc
dihedral_coeff	13 at   -0.80850    0.55690   -0.24660   -0.80850    0.55690   -0.24660  110.77000  110.77000  # hc,c,c1,hc

# AngleAngleTorsion Coeffs

dihedral_coeff	 1 aat  -22.04500  112.67000  112.67000  # c,c,c1,c
dihedral_coeff	 2 aat    0.00000  112.67000  107.00000  # c,c,c1,cl
dihedral_coeff	 3 aat  -16.16400  112.67000  110.77000  # c,c,c1,hc
dihedral_coeff	 4 aat  -22.04500  112.67000  112.67000  # c,c1,c,c1
dihedral_coeff	 5 aat  -16.16400  112.67000  110.77000  # c,c1,c,hc
dihedral_coeff	 6 aat    0.00000  112.67000  107.00000  # c1,c,c,cl
dihedral_coeff	 7 aat  -16.16400  112.67000  110.77000  # c1,c,c,hc
dihedral_coeff	 8 aat    0.00000  112.67000  107.00000  # c1,c,c1,cl
dihedral_coeff	 9 aat  -16.16400  112.67000  110.77000  # c1,c,c1,hc
dihedral_coeff	10 aat    0.00000  107.00000  110.77000  # cl,c,c,hc
dihedral_coeff	11 aat    0.00000  107.00000  110.77000  # cl,c1,c,hc
dihedral_coeff	12 aat  -12.56400  110.77000  110.77000  # hc,c,c,hc
dihedral_coeff	13 aat  -12.56400  110.77000  110.77000  # hc,c,c1,hc

# BondBond13 Coeffs

dihedral_coeff	 1 bb13    0.00000    1.53000    1.53000  # c,c,c1,c
dihedral_coeff	 2 bb13    0.00000    1.53000    1.79000  # c,c,c1,cl
dihedral_coeff	 3 bb13    0.00000    1.53000    1.10100  # c,c,c1,hc
dihedral_coeff	 4 bb13    0.00000    1.53000    1.53000  # c,c1,c,c1
dihedral_coeff	 5 bb13    0.00000    1.53000    1.10100  # c,c1,c,hc
dihedral_coeff	 6 bb13    0.00000    1.53000    1.79000  # c1,c,c,cl
dihedral_coeff	 7 bb13    0.00000    1.53000    1.10100  # c1,c,c,hc
dihedral_coeff	 8 bb13    0.00000    1.53000    1.79000  # c1,c,c1,cl
dihedral_coeff	 9 bb13    0.00000    1.53000    1.10100  # c1,c,c1,hc
dihedral_coeff	10 bb13    0.00000    1.79000    1.10100  # cl,c,c,hc
dihedral_coeff	11 bb13    0.00000    1.79000    1.10100  # cl,c1,c,hc
dihedral_coeff	12 bb13    0.00000    1.10100    1.10100  # hc,c,c,hc
dihedral_coeff	13 bb13    0.00000    1.10100    1.10100  # hc,c,c1,hc

# Improper Coeffs

improper_coeff	 1    0.00000    0.00000  # c,c,cl,hc
improper_coeff	 2    0.00000    0.00000  # c,c,hc,c1
improper_coeff	 3    0.00000    0.00000  # c,c,hc,cl
improper_coeff	 4    0.00000    0.00000  # c,c,hc,hc
improper_coeff	 5    0.00000    0.00000  # c,c1,c1,hc
improper_coeff	 6    0.00000    0.00000  # c,c1,hc,hc
improper_coeff	 7    0.00000    0.00000  # c,cl,hc,hc
improper_coeff	 8    0.00000    0.00000  # c,hc,hc,hc
improper_coeff	 9    0.00000    0.00000  # c1,c,c,cl
improper_coeff	10    0.00000    0.00000  # c1,c,c,hc
improper_coeff	11    0.00000    0.00000  # c1,c,cl,hc

# AngleAngle Coeffs

improper_coeff	 1 aa    0.00000    0.00000    0.00000  107.00000  110.77000  107.99680  # c,c,cl,hc
improper_coeff	 2 aa    0.11840   -1.31990   -1.31990  110.77000  112.67000  110.77000  # c,c,hc,c1
improper_coeff	 3 aa    0.00000    0.00000    0.00000  110.77000  107.00000  107.99680  # c,c,hc,cl
improper_coeff	 4 aa    0.27380   -0.48250    0.27380  110.77000  110.77000  107.66000  # c,c,hc,hc
improper_coeff	 5 aa   -1.31990   -1.31990    0.11840  112.67000  110.77000  110.77000  # c,c1,c1,hc
improper_coeff	 6 aa    0.27380   -0.48250    0.27380  110.77000  110.77000  107.66000  # c,c1,hc,hc
improper_coeff	 7 aa    0.00000    0.00000    0.00000  107.99680  107.99680  107.66000  # c,cl,hc,hc
improper_coeff	 8 aa   -0.31570   -0.31570   -0.31570  107.66000  107.66000  107.66000  # c,hc,hc,hc
improper_coeff	 9 aa    0.00000    0.00000    0.00000  112.67000  107.00000  107.00000  # c1,c,c,cl
improper_coeff	10 aa   -1.31990   -1.31990    0.11840  112.67000  110.77000  110.77000  # c1,c,c,hc
improper_coeff	11 aa    0.00000    0.00000    0.00000  107.00000  110.77000  107.99680  # c1,c,cl,hc


# --- Thermo Output ---
thermo_style custom step time temp press enthalpy etotal ke pe ebond eangle edihed eimp evdwl ecoul elong etail vol lx ly lz density pxx pyy pzz
thermo_modify flush yes
thermo 1000

# --- Trajectory ---
dump dump_npt all custom 1000 npt_pppm.dump id type mol x y z ix iy iz vx vy vz

# --- Restart Checkpointing ---
restart 10000 npt_1.rst npt_2.rst

# --- Initial Velocities (optional) ---
# Velocities read from data file

# --- SHAKE Constraints ---
# SHAKE disabled

# --- NPT Thermostat + Barostat (Nose-Hoover) ---
# T_damp = 100.0 fs  (heat bath coupling)
# P_damp = 1000.0 fs  (pressure bath coupling, ~10x T_damp typical)
# Ramp: T=610.0->610.0K  P=50000.0->1.0atm
timestep 1.0
fix npt_fix all npt temp 610.0 610.0 100.0 iso 50000.0 1.0 1000.0

run 300000

CITE-CITE-CITE-CITE-CITE-CITE-CITE-CITE-CITE-CITE-CITE-CITE-CITE

Your simulation uses code contributions which should be cited:

- GPU package (short-range, long-range and three-body potentials): doi:10.1016/j.cpc.2010.12.021, doi:10.1016/j.cpc.2011.10.012, doi:10.1016/j.cpc.2013.08.002, doi:10.1016/j.commatsci.2014.10.068, doi:10.1016/j.cpc.2016.10.020, doi:10.3233/APC200086

@Article{Brown11,
 author = {W. M. Brown and P. Wang and S. J. Plimpton and A. N. Tharrington},
 title = {Implementing Molecular Dynamics on Hybrid High Performance Computers---Short Range Forces},
 journal = {Comput.\ Phys.\ Commun.},
 year =    2011,
 volume =  182,
 pages =   {898--911},
 doi =     {10.1016/j.cpc.2010.12.021}
}

@Article{Brown12,
 author = {W. M. Brown and A. Kohlmeyer and S. J. Plimpton and A. N. Tharrington},
 title = {Implementing Molecular Dynamics on Hybrid High Performance Computers - Particle-Particle Particle-Mesh},
 journal = {Comput.\ Phys.\ Commun.},
 year =    2012,
 volume =  183,
 doi =     {10.1016/j.cpc.2011.10.012},
 pages =   {449--459}
}

@Article{Brown13,
 author = {W. M. Brown and Y. Masako},
 title = {Implementing Molecular Dynamics on Hybrid High Performance Computers---Three-Body Potentials},
 journal = {Comput.\ Phys.\ Commun.},
 year =    2013,
 volume =  184,
 pages =   {2785--2793},
 doi =     {10.1016/j.cpc.2013.08.002},
}

@Article{Trung15,
 author = {T. D. Nguyen and S. J. Plimpton},
 title = {Accelerating Dissipative Particle Dynamics Simulations for Soft Matter Systems},
 journal = {Comput.\ Mater.\ Sci.},
 year =    2015,
 doi =     {10.1016/j.commatsci.2014.10.068},
 volume =  100,
 pages =   {173--180}
}

@Article{Trung17,
 author = {T. D. Nguyen},
 title = {{GPU}-Accelerated {T}ersoff Potentials for Massively Parallel
    Molecular Dynamics Simulations},
 journal = {Comput.\ Phys.\ Commun.},
 year =    2017,
 doi =     {10.1016/j.cpc.2016.10.020},
 volume =  212,
 pages =   {113--122}
}

@inproceedings{Nikolskiy19,
 author = {V. Nikolskiy and V. Stegailov},
 title = {{GPU} Acceleration of Four-Site Water Models in {LAMMPS}},
 booktitle = {Proceedings of the International Conference on Parallel
    Computing (ParCo 2019), Prague, Czech Republic},
 doi =     {10.3233/APC200086},
 year =    2019
}

CITE-CITE-CITE-CITE-CITE-CITE-CITE-CITE-CITE-CITE-CITE-CITE-CITE

PPPM initialization ...
  using 12-bit tables for long-range coulomb
  G vector (1/distance) = 0.30449187
  grid = 24 24 24
  stencil order = 5
  estimated absolute RMS force accuracy = 0.00027244218
  estimated relative force accuracy = 8.2045154e-07
  using double precision KISS FFT
  3d grid and FFT values/proc = 29791 13824
Generated 6 of 6 mixed pair_coeff terms from sixthpower/sixthpower mixing rule
Neighbor list info ...
  update: every = 1 steps, delay = 0 steps, check = yes
  max neighbors/atom: 4000, page size: 100000
  master list distance cutoff = 11.5
  ghost atom cutoff = 11.5
  binsize = 5.75, bins = 6 6 6
  1 neighbor lists, perpetual/occasional/extra = 1 0 0
  (1) pair lj/class2/coul/long/gpu, perpetual
      attributes: full, newton on
      pair build: full/bin
      stencil: full/bin/3d
      bin: standard
Per MPI rank memory allocation (min/avg/max) = 41.51 | 41.51 | 41.51 Mbytes
   Step          Time           Temp          Press         Enthalpy        TotEng         KinEng         PotEng         E_bond        E_angle        E_dihed        E_impro         E_vdwl         E_coul         E_long         E_tail         Volume           Lx             Ly             Lz          Density          Pxx            Pyy            Pzz      
         0   0              612.80043      51289.473      33126.367      8021.5733      6610.6163      1410.957       2250.1553      3662.2219     -1843.6869      20.735843      1150.5908     -1543.7245     -2285.3354     -377.05794      33562.363      32.25652       32.25652       32.25652       1.8563323      51549.406      51804.697      50514.314    
      1000   1000           613.47362      51354.926      33413.203      8284.947       6617.8783      1667.0688      2318.7268      3746.1764     -1816.6927      22.069004      1238.2266     -1552.3142     -2289.1231     -377.18662      33550.914      32.252852      32.252852      32.252852      1.8569657      50583.413      51277.217      52204.146    
      2000   2000           620.12437      51055.841      33306.605      8262.2499      6689.6236      1572.6263      2330.14        3695.3008     -1812.3934      21.026352      1176.5137     -1547.6253     -2290.3359     -376.24617      33634.776      32.279702      32.279702      32.279702      1.8523357      51146.857      51197.488      50823.176    
      3000   3000           615.52084      51722.173      33493.709      8088.5944      6639.9628      1448.6315      2306.158       3717.9393     -1853.0913      20.261667      1094.368      -1549.5076     -2287.4967     -375.74405      33679.724      32.294074      32.294074      32.294074      1.8498637      49294.83       54716.439      51155.249    
      4000   4000           611.99741      49720.299      32373.73       7931.5418      6601.9536      1329.5882      2270.9625      3641.0032     -1858.8708      20.395998      1094.264      -1550.1667     -2287.9999     -375.43104      33707.804      32.303047      32.303047      32.303047      1.8483227      51447.189      47496.862      50216.847    
      5000   5000           615.81429      50151.505      32855.745      8168.559       6643.1284      1525.4306      2354.5472      3729.7252     -1831.5231      22.08894       1090.6204     -1550.1645     -2289.8635     -374.92888      33752.95       32.317462      32.317462      32.317462      1.8458504      50087.627      49532.072      50834.816    
      6000   6000           612.96754      50383.952      32770.934      8077.5681      6612.419       1465.1491      2248.6109      3724.6395     -1813.2812      21.95171       1107.3528     -1537.6485     -2286.4761     -376.57238      33605.64       32.270378      32.270378      32.270378      1.8539417      50126.206      52084.198      48941.452    
      7000   7000           611.14398      49098.369      32257.293      8107.8576      6592.7472      1515.1104      2396.7634      3672.7894     -1805.5849      20.498701      1072.8085     -1554.9824     -2287.1824     -375.22918      33725.937      32.308838      32.308838      32.308838      1.8473289      45992.145      52867.497      48435.464    
      8000   8000           600.99984      48620.709      31647.375      7784.0938      6483.3168      1300.7771      2195.3565      3661.99       -1868.6964      20.524135      1111.2885     -1535.4315     -2284.2542     -376.03446      33653.713      32.285759      32.285759      32.285759      1.8512934      46911.057      48306.221      50644.847    
      9000   9000           615.66603      47766.355      31649.241      8048.8569      6641.5291      1407.3278      2310.5223      3749.664      -1853.0769      21.825159      1010.907      -1548.0895     -2284.4242     -373.5421       33878.258      32.357406      32.357406      32.357406      1.839023       47429.586      46894.666      48974.814    
     10000   10000          613.11723      47859.267      31605.433      7969.2916      6614.0337      1355.2579      2281.3358      3705.0349     -1839.6386      22.384091      1011.2992     -1538.8383     -2286.3193     -373.70249      33863.718      32.352776      32.352776      32.352776      1.8398127      46376.95       47497.116      49703.736    
     11000   11000          593.64084      47844.77       31264.076      7689.4621      6403.9312      1285.5309      2224.696       3662.4725     -1834.2381      19.359868      1057.6975     -1555.6458     -2288.811      -374.56431      33785.802      32.327943      32.327943      32.327943      1.8440556      46243.393      50294.777      46996.138    
     12000   12000          612.35783      48020.411      31707.922      8018.6709      6605.8416      1412.8293      2295.5669      3734.5791     -1861.6596      20.522512      1064.8268     -1550.3193     -2290.6871     -374.12012      33825.916      32.340733      32.340733      32.340733      1.8418687      47211.475      47606.307      49243.45     
     13000   13000          606.17313      49779.251      32569.504      8081.3653      6539.1239      1542.2414      2333.4449      3827.4354     -1842.7407      21.239263      1027.9145     -1541.2336     -2283.8185     -375.17086      33731.18       32.310512      32.310512      32.310512      1.8470418      47510.445      52832.684      48994.623    
     14000   14000          616.91036      47568.539      31453.554      7990.59        6654.9524      1335.6377      2331.1459      3715.5639     -1848.0827      21.794327      941.26116     -1538.0486     -2287.9963     -374.17388      33821.056      32.339184      32.339184      32.339184      1.8421334      47373.203      48998.39       46334.023    
     15000   15000          603.2154       45534.987      30365.647      7871.4496      6507.2172      1364.2323      2364.5111      3685.4109     -1851.8764      20.651489      981.3744      -1545.3874     -2290.4517     -373.60375      33872.668      32.355626      32.355626      32.355626      1.8393266      45661.686      48955.83       41987.445    
     16000   16000          599.61399      45032.559      30003.574      7738.0095      6468.3668      1269.6427      2374.4939      3579.8992     -1856.4243      21.631836      962.75116     -1530.0832     -2282.6259     -373.27547      33902.458      32.365108      32.365108      32.365108      1.8377104      47449.29       44546.166      43102.221    
     17000   17000          607.4936       46406.821      30908.913      7943.8251      6553.3685      1390.4566      2320.0568      3819.0136     -1874.4677      21.666974      932.94386     -1542.5544     -2286.2026     -372.94966      33932.075      32.37453       32.37453       32.37453       1.8361064      46213.798      48185.564      44821.101    
     18000   18000          612.33268      48454.128      31788.299      7915.2392      6605.5704      1309.6689      2231.601       3676.4697     -1841.7524      21.134044      1034.5178     -1532.1522     -2280.1491     -374.59263      33783.248      32.327129      32.327129      32.327129      1.844195       48101.913      47369.297      49891.174    
     19000   19000          611.83966      47589.574      31589.633      8052.4906      6600.2519      1452.2388      2320.4116      3782.8584     -1869.4571      22.769472      1022.999      -1539.1336     -2288.2089     -373.15959      33912.985      32.368458      32.368458      32.368458      1.8371399      43331.373      52356.549      47080.8      
     20000   20000          617.97469      48755.247      32218.26       8102.824       6666.4338      1436.3902      2314.6006      3758.3533     -1845.5277      23.064176      1018.0266     -1542.4636     -2289.6633     -373.13223      33915.472      32.369249      32.369249      32.369249      1.8370052      49722.966      46797.328      49745.446    
     21000   21000          599.40437      47847.351      31510.593      7834.9401      6466.1056      1368.8346      2290.0806      3709.3956     -1845.1266      21.14353       1030.6368     -1545.1112     -2292.1841     -372.98593      33928.775      32.37348       32.37348       32.37348       1.8362849      47941.642      52686.219      42914.193    
     22000   22000          604.49161      48190.179      31825.81       7974.6609      6520.9844      1453.6764      2363.6877      3731.1052     -1843.9302      21.012728      1028.3303     -1558.9752     -2287.554      -372.8943       33937.113      32.376132      32.376132      32.376132      1.8358338      46970.802      50776.993      46822.741    
     23000   23000          608.67208      44843.006      30160.932      7904.6081      6566.0815      1338.5266      2271.8654      3746.7929     -1856.855       22.163907      978.27721     -1540.1494     -2283.5684     -371.85858      34031.636      32.406163      32.406163      32.406163      1.8307347      44777.709      47498.393      42252.917    
     24000   24000          611.535        44822.843      30167.431      7908.3323      6596.9654      1311.3669      2324.7799      3668.9878     -1800.5517      20.823479      924.31653     -1536.3604     -2290.6286     -371.64505      34051.189      32.412368      32.412368      32.412368      1.8296835      46858.26       43212.787      44397.482    
     25000   25000          596.42752      44655.993      29880.518      7693.9273      6433.9927      1259.9346      2332.075       3588.4893     -1820.6333      19.836828      965.0045      -1539.7892     -2285.0487     -371.47168      34067.081      32.41741       32.41741       32.41741       1.8288299      45367.981      44897.836      43702.162    
     26000   26000          599.33693      48494.16       31956.49       7873.3433      6465.3781      1407.9652      2324.6144      3740.9731     -1803.3983      21.481693      985.74539     -1563.4954     -2297.9556     -371.63168      34052.414      32.412757      32.412757      32.412757      1.8296177      48687.959      49779.512      47015.01     
     27000   27000          615.454        45278.383      30523.109      8029.3702      6639.2417      1390.1285      2327.2374      3716.7119     -1816.2524      20.35768       977.23987     -1551.0864     -2284.0796     -371.50595      34063.938      32.416413      32.416413      32.416413      1.8289987      44138.63       45514.686      46181.834    
     28000   28000          602.03152      46029.941      30632.505      7741.426       6494.4461      1246.9799      2354.5474      3620.3045     -1856.3068      23.065244      947.5953      -1552.001      -2290.2248     -371.11684      34099.654      32.427738      32.427738      32.427738      1.827083       46231.669      48336.28       43521.873    
     29000   29000          609.32536      43595.143      29534.034      7861.4913      6573.1287      1288.3625      2339.0925      3643.6318     -1830.461       20.667791      925.92529     -1529.9303     -2280.5635     -371.24854      34087.557      32.423903      32.423903      32.423903      1.8277314      45701.683      43165.466      41918.28     
     30000   30000          600.42024      45915.996      30590.28       7705.9535      6477.0643      1228.8892      2281.3896      3636.4164     -1841.9158      19.187898      959.79035     -1542.4893     -2283.49       -370.3074       34174.191      32.451348      32.451348      32.451348      1.823098       47206.632      46328.393      44212.963    
     31000   31000          606.16359      43212.542      29261.904      7714.2293      6539.021       1175.2083      2309.1581      3602.4294     -1821.2858      19.649418      901.3619      -1548.1777     -2287.927      -370.12287      34191.228      32.45674       32.45674       32.45674       1.8221895      39820.76       44014.575      45802.292    
     32000   32000          609.20468      45558.497      30521.368      7795.8914      6571.8269      1224.0646      2270.0844      3776.0308     -1877.5873      22.95265       870.03006     -1543.5445     -2293.9015     -369.9925       34203.277      32.460552      32.460552      32.460552      1.8215476      46988.167      45611.483      44075.84     
     33000   33000          605.79721      45190.163      30195.95       7735.4397      6535.0686      1200.3711      2303.4757      3615.8487     -1851.4389      21.427588      948.45547     -1547.4018     -2289.9956     -371.33066      34080.018      32.421513      32.421513      32.421513      1.8281357      43941.365      45420.47       46208.653    
     34000   34000          609.20498      45759.422      30815.204      8033.3354      6571.8302      1461.5052      2354.3203      3837.7747     -1845.612       22.215711      917.85193     -1541.1404     -2283.905      -370.70437      34137.595      32.439761      32.439761      32.439761      1.8250524      47012.314      46932.326      43333.626    
     35000   35000          611.0121       44932.032      30250.24       7889.0477      6591.3245      1297.7231      2387.2112      3642.4268     -1836.5015      21.586476      906.27549     -1539.8233     -2283.4521     -370.84944      34124.241      32.43553       32.43553       32.43553       1.8257665      44229.168      43924.647      46642.28     
     36000   36000          625.06166      44643.073      30231.068      7913.2994      6742.8849      1170.4145      2323.3137      3703.1698     -1833.13        21.250607      777.81276     -1540.0537     -2281.9486     -369.18142      34278.42       32.484306      32.484306      32.484306      1.8175546      40736.372      49229.026      43963.82     
     37000   37000          607.41932      46534.458      30957.548      7828.6469      6552.5672      1276.0797      2329.0241      3624.5488     -1822.9564      20.617626      950.98627     -1542.1792     -2283.9614     -371.32671      34080.381      32.421628      32.421628      32.421628      1.8281162      50593.648      45937.181      43072.546    
     38000   38000          610.91238      42056.861      28878.206      7773.0976      6590.2488      1182.8488      2344.2805      3724.346      -1845.0461      22.061986      751.40491     -1534.8222     -2279.3763     -367.77803      34409.222      32.525572      32.525572      32.525572      1.8106454      43118.733      40136.232      42915.619    
     39000   39000          604.42677      42558.025      28873.117      7582.1134      6520.2849      1061.8285      2242.8577      3674.9104     -1834.2391      22.056063      780.05167     -1542.8778     -2280.9304     -368.9112       34303.528      32.492236      32.492236      32.492236      1.8162242      46644.983      41491.922      39537.169    
     40000   40000          602.45642      44630.56       29975.332      7681.2136      6499.0297      1182.1839      2230.816       3794.9036     -1848.0943      22.823272      797.10558     -1539.8757     -2275.4946     -369.46947      34251.695      32.475862      32.475862      32.475862      1.8189727      45575.409      43599.13       44717.141    
     41000   41000          605.64222      42425.31       28833.717      7631.072       6533.3967      1097.6753      2267.1803      3666.9724     -1821.6466      21.827618      797.24666     -1549.6677     -2284.2374     -369.29337      34268.028      32.481023      32.481023      32.481023      1.8181057      42013.924      45462.77       39799.237    
     42000   42000          598.31184      41695.535      28430.433      7584.1274      6454.3199      1129.8075      2367.1763      3610.3813     -1829.0848      21.298493      781.45683     -1541.1584     -2280.2623     -369.14499      34281.803      32.485375      32.485375      32.485375      1.8173752      44235.366      40758.161      40093.079    
     43000   43000          616.04034      43067.38       29329.378      7796.5873      6645.567       1151.0204      2290.8813      3669.8903     -1824.5669      21.773783      809.38305     -1534.0453     -2282.2959     -369.13451      34282.776      32.485682      32.485682      32.485682      1.8173236      44193.448      42499.671      42509.023    
     44000   44000          600.27654      42670.043      28963.116      7579.6486      6475.5141      1104.1345      2252.9841      3730.1855     -1849.211       21.311781      776.79199     -1544.8476     -2283.0804     -368.28283      34362.057      32.510705      32.510705      32.510705      1.8131306      41542.48       44902.827      41564.82     
     45000   45000          615.36086      42924.159      29374.034      7885.1558      6638.237       1246.9188      2308.705       3766.1301     -1823.7815      21.667836      798.00306     -1543.0986     -2280.7073     -368.65877      34327.017      32.49965       32.49965       32.49965       1.8149814      44086.285      42545.033      42141.16     
     46000   46000          622.81921      43878.797      29678.766      7733.9388      6718.6943      1015.2445      2325.0172      3604.1988     -1869.1947      22.194084      772.85279     -1552.2995     -2287.5241     -369.02778      34292.692      32.488814      32.488814      32.488814      1.8167981      44240.191      44908.814      42487.386    
     47000   47000          603.84503      41753.625      28593.837      7701.584       6514.0094      1187.5746      2375.97        3577.348      -1811.0956      20.031641      849.89102     -1541.7855     -2282.785      -368.8463       34309.564      32.494141      32.494141      32.494141      1.8159047      43049.173      42761.213      39450.489    
     48000   48000          618.50103      42752.823      29234.659      7786.7548      6672.1117      1114.6431      2368.7605      3627.3125     -1833.9863      20.717328      757.22257     -1542.7711     -2282.6125     -367.88871      34398.869      32.52231       32.52231       32.52231       1.8111903      45685.814      38709.771      43862.884    
     49000   49000          605.99148      40375.135      27928.344      7608.9545      6537.1643      1071.7902      2295.1911      3688.1112     -1819.3952      21.983241      690.34387     -1526.7197     -2277.7244     -366.72444      34508.079      32.556691      32.556691      32.556691      1.8054583      43284.193      38356.28       39484.932    
     50000   50000          616.06845      40155.321      27913.599      7775.9218      6645.8702      1130.0517      2371.2484      3616.6487     -1803.6359      22.597257      732.55656     -1524.9205     -2284.4428     -368.01901      34386.69       32.518472      32.518472      32.518472      1.8118318      40622.269      40722.64       39121.053    
     51000   51000          616.88029      43524.894      29620.594      7791.5475      6654.6279      1136.9197      2338.0602      3678.667      -1842.3245      23.065818      764.64367     -1544.2494     -2280.9431     -367.99293      34389.128      32.51924       32.51924       32.51924       1.8117034      41782.082      44017.681      44774.919    
     52000   52000          596.0562       43744.339      29424.174      7478.2098      6429.987       1048.2229      2212.7396      3721.032      -1835.0908      22.124357      744.75036     -1534.1658     -2283.1669     -367.87791      34399.879      32.522629      32.522629      32.522629      1.8111371      42903.83       43162.186      45167.001    
     53000   53000          608.16449      42901.363      29219.036      7641.4881      6560.6057      1080.8824      2278.0767      3700.4076     -1860.051       21.034338      778.09939     -1551.801      -2284.8836     -366.94885      34486.975      32.550053      32.550053      32.550053      1.8065632      43473.462      43844.302      41386.325    
     54000   54000          624.91627      40516.164      28143.909      7746.7636      6741.3165      1005.4471      2257.6322      3704.1877     -1842.376       23.351977      676.24118     -1533.2874     -2280.3026     -366.60253      34519.554      32.5603        32.5603        32.5603        1.8048581      42081.293      38532.779      40934.42     
     55000   55000          620.28517      38865.84       27457.957      7902.5624      6691.3583      1211.2041      2379.3547      3812.9183     -1824.9551      21.785274      641.65932     -1536.2699     -2283.2886     -366.80731      34500.282      32.554239      32.554239      32.554239      1.8058663      39415.225      37121.185      40061.109    
     56000   56000          610.36459      42688.972      29028.039      7498.4129      6584.3395      914.07348      2252.2917      3661.7026     -1840.0887      21.448726      647.52419     -1545.7392     -2283.0658     -365.94493      34581.585      32.579791      32.579791      32.579791      1.8016207      40516.307      44704.236      42846.372    
     57000   57000          601.33367      39221.773      27196.28       7392.9598      6486.918       906.04186      2315.0959      3651.3961     -1823.327       22.562863      572.90215     -1544.5029     -2288.0852     -365.53228      34620.625      32.592047      32.592047      32.592047      1.7995891      39958.456      42687.597      35019.266    
     58000   58000          609.95091      41581.293      28596.585      7655.8528      6579.8769      1075.9759      2311.309       3671.9424     -1834.4768      22.683681      738.92145     -1548.6773     -2285.7265     -366.47356      34531.702      32.564119      32.564119      32.564119      1.8042232      39691.626      42696.142      42356.112    
     59000   59000          612.69425      39251.396      27500.207      7707.0017      6609.4708      1097.5309      2262.1011      3710.8741     -1820.7996      23.10994       719.38835     -1519.541      -2277.6019     -365.99529      34576.826      32.578297      32.578297      32.578297      1.8018686      41911.366      34770.634      41072.189    
     60000   60000          615.73135      40366.509      28008.581      7529.9023      6642.2337      887.66861      2251.7783      3693.6881     -1814.5145      22.758989      559.06418     -1538.9642     -2286.1422     -363.7942       34786.029      32.643868      32.643868      32.643868      1.7910322      42429.477      40724.008      37946.042    
     61000   61000          598.8899       38811.812      27083.175      7471.2221      6460.5557      1010.6664      2288.6405      3698.8174     -1825.2781      22.126809      652.31939     -1545.1498     -2280.8097     -365.24106      34648.229      32.600707      32.600707      32.600707      1.7981553      38720.905      38536.992      39177.539    
     62000   62000          608.01785      40010.716      27914.206      7669.9013      6559.0239      1110.8774      2324.1845      3686.6394     -1818.4799      20.871568      719.08404     -1541.2711     -2280.1511     -364.76232      34693.703      32.614963      32.614963      32.614963      1.7957984      40584.671      39336.14       40111.337    
     63000   63000          616.05875      40068.031      27921.948      7604.3128      6645.7655      958.5473       2353.3052      3642.4115     -1835.0805      20.36047       614.13341     -1546.45       -2290.1327     -363.96645      34769.567      32.638718      32.638718      32.638718      1.7918802      40951.423      39368.332      39884.337    
     64000   64000          609.95122      40576.843      28051.367      7428.1558      6579.8802      848.27561      2238.2436      3676.087      -1846.0849      22.170118      579.25678     -1542.4541     -2278.9429     -363.12695      34849.949      32.663851      32.663851      32.663851      1.7877472      41780.402      39720.466      40229.661    
     65000   65000          617.45715      40452.241      28081.344      7590.931       6660.8508      930.08013      2278.4976      3654.8704     -1856.3322      21.631056      662.74502     -1546.9404     -2284.3912     -364.35807      34732.195      32.62702       32.62702       32.62702       1.7938082      41566.093      40070.587      39720.042    
     66000   66000          622.03234      38651.546      27374.509      7806.04        6710.206       1095.834       2406.4593      3668.8231     -1849.0567      22.776332      652.74671     -1528.3695     -2277.5453     -364.54114      34714.753      32.621558      32.621558      32.621558      1.7947095      36881.589      39834.379      39238.671    
     67000   67000          617.10011      37382.34       26601.376      7611.9506      6656.9992      954.9514       2328.5083      3649.8782     -1872.9212      21.437816      647.53847     -1537.1595     -2282.3307     -363.32157      34831.282      32.658018      32.658018      32.658018      1.7887053      39868.681      37094.796      35183.543    
     68000   68000          600.11076      39353.598      27395.001      7491.7141      6473.7258      1017.9883      2371.4975      3627.1482     -1845.6031      21.208641      666.2937      -1540.3161     -2282.2406     -364.91874      34678.832      32.610302      32.610302      32.610302      1.7965685      40346.085      38751.541      38963.167    
     69000   69000          615.85254      35309.519      25526.113      7499.5691      6643.541       856.02803      2334.0412      3672.2823     -1813.0735      20.64864       457.7465      -1536.4481     -2279.1691     -361.50629      35006.184      32.712589      32.712589      32.712589      1.7797683      35498.549      36685.301      33744.708    
     70000   70000          593.99891      36243.255      25755.657      7346.3604      6407.7939      938.56651      2370.72        3670.873      -1851.1815      22.762482      529.01663     -1523.7476     -2279.8765     -363.35113      34828.447      32.657132      32.657132      32.657132      1.7888509      36645.615      36434.894      35649.255    
     71000   71000          606.66122      37413.416      26514.832      7548.5819      6544.3892      1004.1927      2286.5799      3742.7579     -1836.3309      22.417396      617.49958     -1540.1878     -2288.5434     -364.06791      34759.877      32.635686      32.635686      32.635686      1.7923797      34925.602      38583.209      38731.438    
     72000   72000          625.22237      39144.825      27619.465      7718.6917      6744.6186      974.07311      2380.7006      3598.2634     -1833.6463      19.595719      630.69049     -1539.3774     -2282.1533     -363.02867      34859.384      32.666798      32.666798      32.666798      1.7872633      37727.441      39788.033      39919.001    
     73000   73000          609.74394      39199.793      27499.48       7659.629       6577.6442      1081.9847      2367.3443      3688.1846     -1854.1523      20.337462      678.16396     -1534.4007     -2283.4926     -364.65475      34703.937      32.618169      32.618169      32.618169      1.7952688      39761.067      38420.009      39418.303    
     74000   74000          619.90735      37900.785      26948.494      7581.5095      6687.2826      894.22698      2328.4614      3659.8996     -1861.0791      22.506827      544.7198      -1527.8587     -2272.4228     -361.17919      35037.887      32.722462      32.722462      32.722462      1.778158       39131.41       38012.465      36558.481    
     75000   75000          610.05492      36510.749      26031.253      7417.2457      6580.9989      836.24686      2248.3271      3707.309      -1873.622       21.488178      543.21439     -1529.3559     -2281.1138     -362.00734      34957.732      32.69749       32.69749       32.69749       1.7822351      35447.415      36330.937      37753.894    
     76000   76000          616.99527      36408.345      25839.147      7324.9024      6655.8683      669.03417      2257.98        3560.5361     -1838.8439      20.945482      488.53286     -1538.8739     -2281.2425     -362.93719      34868.171      32.669543      32.669543      32.669543      1.7868129      35293.082      35025.468      38906.486    
     77000   77000          605.15304      35848.971      25682.495      7437.5986      6528.1196      909.47901      2397.3136      3639.2137     -1831.1333      21.258702      493.60141     -1528.3014     -2282.4736     -362.63676      34897.058      32.678562      32.678562      32.678562      1.7853338      34628.447      38236.435      34682.032    
     78000   78000          594.5784       37267.619      26356.384      7293.8409      6414.0452      879.79571      2378.3434      3710.334      -1865.9489      22.851284      455.2162      -1538.4875     -2282.5127     -360.81729      35073.03       32.733398      32.733398      32.733398      1.7763763      37323.013      37598.326      36881.518    
     79000   79000          590.94197      38004.262      26572.518      7198.6306      6374.817       823.81359      2282.1262      3712.6135     -1872.3896      22.648699      484.7886      -1531.6716     -2274.3021     -362.03625      34954.941      32.69662       32.69662       32.69662       1.7823774      38038.151      38518.049      37456.587    
     80000   80000          598.77863      36735.333      26202.756      7488.7261      6459.3554      1029.3707      2275.2688      3794.3004     -1817.1421      21.235209      575.23253     -1539.7536     -2279.7705     -362.28737      34930.712      32.689063      32.689063      32.689063      1.7836138      36756.434      38860.033      34589.533    
     81000   81000          611.36452      35746.606      25886.798      7594.3228      6595.1263      999.19651      2459.2406      3660.6247     -1838.7156      20.045733      508.96374     -1532.2543     -2278.7084     -360.66073      35088.255      32.738134      32.738134      32.738134      1.7756055      36832.895      37488.653      32918.271    
     82000   82000          614.43292      37909.362      26749.214      7468.0851      6628.2268      839.85828      2369.2321      3548.4356     -1830.0265      20.186238      543.99222     -1533.9553     -2278.0062     -362.86956      34874.669      32.671572      32.671572      32.671572      1.78648        37684.153      36976.587      39067.346    
     83000   83000          623.57113      36638.075      26481.237      7720.6766      6726.8057      993.8709       2385.4604      3691.9643     -1820.0186      20.278866      537.11516     -1531.6342     -2289.295      -360.43202      35110.52       32.745057      32.745057      32.745057      1.7744795      38545.192      34369.061      36999.973    
     84000   84000          603.54941      35958.925      25702.794      7327.7689      6510.8204      816.94841      2304.392       3651.2841     -1825.4788      21.654702      483.48578     -1536.0809     -2282.3085     -361.173        35038.488      32.722649      32.722649      32.722649      1.7781275      33787.925      37435.876      36652.976    
     85000   85000          613.32274      32432.46       24067.927      7341.0306      6616.2507      724.77988      2432.4605      3572.3818     -1836.4831      19.034927      349.21611     -1529.1897     -2282.6406     -357.85002      35363.854      32.823624      32.823624      32.823624      1.7617678      33031.8        32526.865      31738.716    
     86000   86000          592.92517      34533.773      24886.998      7218.171       6396.2108      821.96014      2361.2774      3619.9188     -1839.365       20.863012      472.91905     -1533.7572     -2279.8959     -360.72216      35082.28       32.736276      32.736276      32.736276      1.7759079      34658.733      34885.901      34056.685    
     87000   87000          604.24427      34624.816      25159.039      7330.5973      6518.3162      812.28112      2339.9392      3667.1014     -1860.6281      22.156803      449.02921     -1528.2627     -2277.0547     -358.43516      35306.123      32.805753      32.805753      32.805753      1.7646485      31333.676      36560.014      35980.757    
     88000   88000          608.40908      34181.06       25087.493      7491.2681      6563.2443      928.02385      2366.7194      3688.0702     -1821.8959      21.293887      475.51207     -1522.4728     -2279.2031     -358.51105      35298.649      32.803438      32.803438      32.803438      1.7650221      30950.634      35659.761      35932.786    
     89000   89000          613.68464      37323.839      26638.216      7543.8844      6620.1546      923.7298       2343.0029      3735.0125     -1829.4727      22.034912      467.5897      -1533.6261     -2280.8114     -360.76         35078.6        32.735131      32.735131      32.735131      1.7760942      38918.658      39356.74       33696.118    
     90000   90000          613.80037      32561.363      24163.245      7355.3508      6621.4031      733.94767      2377.9443      3620.1918     -1834.4973      21.48248       366.19883     -1532.4878     -2284.8846     -357.54095      35394.424      32.833079      32.833079      32.833079      1.7602462      33649.847      30448.407      33585.835    
     91000   91000          618.28363      33842.703      24737.711      7325.5139      6669.7665      655.74743      2307.7507      3625.525      -1815.4262      20.183123      331.11471     -1528.3206     -2285.0793     -358.71373      35278.704      32.797258      32.797258      32.797258      1.76602        33920.943      34181.823      33425.344    
     92000   92000          610.77139      35360.292      25587.606      7387.6254      6588.7279      798.89746      2385.2135      3544.8699     -1837.2448      19.855152      497.36021     -1534.8468     -2276.3098     -358.57619      35292.237      32.801452      32.801452      32.801452      1.7653428      37158.68       37552.78       31369.416    
     93000   93000          611.74199      36053.997      25926.01       7447.9353      6599.1983      848.73695      2389.591       3612.7966     -1858.2069      20.78095       492.47728     -1529.5212     -2279.1809     -360.10837      35142.076      32.754864      32.754864      32.754864      1.7728861      35253.623      36000.033      36908.336    
     94000   94000          607.63246      35809.512      25853.113      7367.8788      6554.8665      813.01234      2349.1308      3679.8015     -1821.1251      20.628707      412.22946     -1544.6809     -2282.9722     -357.52793      35395.713      32.833478      32.833478      32.833478      1.760182       37314.307      37079.987      33034.24     
     95000   95000          608.6452       34242.766      24891.931      7263.1019      6565.7914      697.31048      2284.4702      3549.4419     -1834.0937      20.669828      481.18938     -1527.9053     -2276.4618     -358.494        35300.327      32.803958      32.803958      32.803958      1.7649382      35535.713      33873.21       33319.377    
     96000   96000          613.98256      35496.871      25686.687      7383.9959      6623.3685      760.62736      2270.7399      3715.5158     -1821.7152      20.869732      384.54202     -1531.9251     -2277.3997     -357.94115      35354.85       32.820838      32.820838      32.820838      1.7622164      35708.564      34676.791      36105.258    
     97000   97000          609.49033      32836.89       24076.12       7168.8894      6574.9084      593.98105      2336.5991      3608.5027     -1861.8908      20.736585      293.56544     -1526.0005     -2277.5313     -358.44792      35304.865      32.805363      32.805363      32.805363      1.7647114      32633.656      34749.476      31127.539    
     98000   98000          611.99328      34532.945      25284.257      7468.0282      6601.9091      866.11913      2409.9955      3623.3832     -1805.1015      19.72576       410.15885     -1517.1048     -2274.9379     -357.72916      35375.801      32.82732       32.82732       32.82732       1.7611728      34545.161      36888.732      32164.943    
     99000   99000          621.75783      31790.198      24002.672      7472.177       6707.2447      764.93236      2404.0497      3659.183      -1822.4454      20.927161      298.4123      -1522.1879     -2273.0066     -354.93097      35654.696      32.913362      32.913362      32.913362      1.7473967      31708.907      33833.297      29828.389    
    100000   100000         600.86354      32659.064      24133.745      7268.0743      6481.8464      786.22793      2291.5853      3696.9952     -1853.7809      21.237516      430.12958     -1520.4012     -2279.5376     -357.38527      35409.841      32.837846      32.837846      32.837846      1.7594797      31160.488      35022.374      31794.33     
    101000   101000         613.06164      35495.33       25650.963      7298.1315      6613.4341      684.69744      2299.3811      3663.7759     -1861.4919      23.365101      359.97442     -1526.8935     -2273.4137     -356.94777      35453.242      32.851256      32.851256      32.851256      1.7573258      33642.615      34399.611      38443.765    
    102000   102000         617.02418      33190.385      24476.523      7360.3404      6656.1802      704.16018      2278.9574      3655.7685     -1842.1542      21.025134      385.65197     -1524.7151     -2270.3735     -357.88368      35360.528      32.822595      32.822595      32.822595      1.7619335      32798.746      33700.214      33072.194    
    103000   103000         615.68766      34177.047      25085.271      7368.0909      6641.7623      726.32858      2444.3817      3515.8612     -1869.4058      21.196219      420.11764     -1529.208      -2276.6145     -356.02168      35545.464      32.879716      32.879716      32.879716      1.7527665      35132.266      32881.605      34517.27     
    104000   104000         601.42318      33860.083      24844.777      7354.7459      6487.8836      866.86232      2372.9348      3685.2326     -1818.7502      20.805807      423.43915     -1535.1198     -2281.68       -357.30077      35418.215      32.840434      32.840434      32.840434      1.7590637      32313.788      34313.312      34953.15     
    105000   105000         616.51885      35959.29       26190.388      7482.2934      6650.7289      831.5645       2378.3238      3793.0664     -1858.7762      23.667042      300.62432     -1528.8882     -2276.4526     -354.74645      35673.241      32.919067      32.919067      32.919067      1.7464883      36191.593      34820.709      36865.567    
    106000   106000         603.08009      31634.164      23437.646      7022.6067      6505.7576      516.8491       2245.1759      3594.2237     -1825.1687      21.741991      291.97623     -1528.4729     -2282.6272     -355.67306      35580.305      32.890455      32.890455      32.890455      1.7510502      32125.927      32139.884      30636.683    
    107000   107000         600.86054      30787.895      23171.524      7233.4576      6481.8141      751.6435       2363.2934      3699.7224     -1853.7727      21.734198      333.2092      -1529.0929     -2283.4502     -356.51753      35496.027      32.864466      32.864466      32.864466      1.7552077      29947.519      31208.707      31207.459    
    108000   108000         612.60874      29465.207      22799.498      7444.2684      6608.5484      835.72003      2380.0106      3767.7133     -1826.0872      21.153223      294.08451     -1521.2835     -2279.8709     -354.152        35733.12       32.937476      32.937476      32.937476      1.7435617      31328.757      30183.331      26883.533    
    109000   109000         599.59736      32764.82       24314.381      7296.6208      6468.1875      828.43336      2378.3582      3696.0459     -1827.224       20.095362      360.55687     -1522.9054     -2276.4935     -355.33821      35613.833      32.900783      32.900783      32.900783      1.7494016      34846.197      31666.795      31781.468    
    110000   110000         608.4658       33199.657      24691.482      7492.0363      6563.8562      928.18014      2390.7473      3773.2578     -1822.4722      20.632137      364.98401     -1522.7523     -2276.2166     -356.25065      35522.618      32.872671      32.872671      32.872671      1.7538938      32710.517      33635.44       33253.014    
    111000   111000         626.59571      31286.099      23631.689      7338.4704      6759.4335      579.03686      2357.0607      3505.9294     -1797.455       20.643682      295.51482     -1521.2536     -2281.403      -354.38965      35709.157      32.930111      32.930111      32.930111      1.7447317      34580.412      29568.409      29709.475    
    112000   112000         600.17945      28885.458      22170.599      7093.2788      6474.4667      618.81203      2399.7509      3638.5536     -1860.3736      21.932551      226.61064     -1530.3338     -2277.3282     -353.58321      35790.602      32.955128      32.955128      32.955128      1.7407614      28601.577      27581.734      30473.064    
    113000   113000         615.85794      29742.173      22824.013      7270.4639      6643.5993      626.86459      2381.4834      3650.2242     -1815.0629      22.46506       191.40131     -1518.5545     -2285.0919     -352.92278      35857.577      32.975671      32.975671      32.975671      1.73751        25917.333      33070.122      30239.063    
    114000   114000         600.34104      30477.721      22988.366      7139.4317      6476.2099      663.2218       2343.6677      3675.0164     -1804.7597      20.377799      202.70212     -1501.5767     -2272.2058     -354.91058      35656.744      32.913992      32.913992      32.913992      1.7472963      28786.682      30699.559      31946.922    
    115000   115000         597.41627      27459.138      21564.925      7143.5616      6444.6588      698.9028       2428.7606      3691.1097     -1839.6612      22.192329      181.29967     -1510.0547     -2274.7435     -351.41241      36011.693      33.022847      33.022847      33.022847      1.7300741      26290.75       25893.795      30192.868    
    116000   116000         598.68084      31786.515      23618.241      7072.7864      6458.3005      614.4859       2368.3454      3524.44       -1810.9236      20.172344      314.35189     -1525.9381     -2275.9621     -354.56897      35691.098      32.924559      32.924559      32.924559      1.7456145      32809.341      33082.666      29467.538    
    117000   117000         606.47222      27819.346      21707.078      7107.5996      6542.3504      565.2492       2388.2958      3631.9784     -1833.9093      22.791921      154.06426     -1520.3701     -2277.6017     -351.67871      35984.423      33.01451       33.01451       33.01451       1.7313852      29289.444      25983.213      28185.381    
    118000   118000         625.61779      31768.876      24060.279      7495.8273      6748.8842      746.94313      2354.4979      3742.1754     -1841.1033      22.260893      257.93073     -1517.3897     -2271.4287     -353.96579      35751.917      32.94325       32.94325       32.94325       1.7426449      32199.634      32074.517      31032.477    
    119000   119000         614.43052      30642.823      23248.382      7276.2212      6628.2009      648.02028      2347.5473      3695.423      -1816.2978      21.726284      188.61097     -1515.5733     -2273.4161     -354.08018      35740.367      32.939702      32.939702      32.939702      1.7432081      30680.146      28540.218      32708.105    
    120000   120000         607.37186      27407.118      21508.433      7138.459       6552.0553      586.40367      2320.931       3702.833      -1847.6192      23.848254      173.42832     -1516.4978     -2270.5199     -352.00101      35951.476      33.00443       33.00443       33.00443       1.7329719      24612.334      27842.661      29766.36     
    121000   121000         617.65141      29138.105      22503.111      7228.6414      6662.9464      565.69497      2345.9759      3653.3003     -1833.7142      21.56117       178.03404     -1525.1066     -2274.3556     -352.07217      35944.209      33.002207      33.002207      33.002207      1.7333223      28320.681      28127.513      30966.121    
    122000   122000         607.55668      30763.197      23193.908      7112.0537      6554.0491      558.00462      2307.2456      3655.2341     -1843.8097      22.519908      193.81562     -1506.7078     -2270.2932     -353.04645      35845.017      32.971821      32.971821      32.971821      1.7381188      33640.906      28404.469      30244.215    
    123000   123000         613.17984      29255.535      22490.987      7099.7905      6614.7092      485.08131      2293.0722      3613.5231     -1844.8719      21.3089        187.32842     -1512.4152     -2272.8642     -350.81018      36073.513      33.041733      33.041733      33.041733      1.7271092      27219.648      31273.653      29273.302    
    124000   124000         610.65504      30222.499      23141.391      7332.7415      6587.4727      745.26875      2419.9479      3694.0193     -1826.1454      21.936616      226.11274     -1516.59       -2274.0124     -352.83538      35866.46       32.978394      32.978394      32.978394      1.7370797      29689.611      29595.733      31382.152    
    125000   125000         608.42345      30906.171      23467.267      7281.3237      6563.3993      717.92444      2438.7065      3612.3446     -1820.7684      20.511205      243.03705     -1502.5768     -2273.3297     -352.40633      35910.126      32.991772      32.991772      32.991772      1.7349674      33122.909      28807.856      30787.748    
    126000   126000         596.34412      27537.312      21321.415      6807.5702      6433.093       374.47726      2301.5621      3552.8108     -1815.487       21.305318      116.43149     -1520.0995     -2282.0461     -350.16732      36139.74       33.06194       33.06194       33.06194       1.7239443      26213.556      27720.5        28677.882    
    127000   127000         600.09798      27238.142      21362.399      7074.3536      6473.5879      600.76568      2465.2335      3647.3456     -1889.9006      21.492584      150.51572     -1516.6809     -2277.2402     -351.83673      35968.262      33.009566      33.009566      33.009566      1.7321631      28299.543      28956.942      24457.94     
    128000   128000         613.99152      30146.242      23024.374      7120.7227      6623.4651      497.25752      2361.6185      3611.9543     -1810.2703      21.66          106.37228     -1515.298      -2278.7793     -349.84273      36173.271      33.072162      33.072162      33.072162      1.7223463      32110.592      31982.046      26346.088    
    129000   129000         610.0738       26103.585      20957.818      7164.659       6581.2026      583.45645      2392.8325      3666.1099     -1818.0618      20.760864      107.40386     -1512.6314     -2272.9575     -349.27936      36231.616      33.089934      33.089934      33.089934      1.7195727      24652.432      25905.687      27752.635    
    130000   130000         605.97586      30052.54       22954.151      7169.5911      6536.9958      632.59522      2333.8856      3647.9185     -1812.9071      19.859565      232.84631     -1515.9786     -2273.029      -351.38663      36014.335      33.023655      33.023655      33.023655      1.7299472      30163.802      32406.222      27587.597    
    131000   131000         619.02697      26561.456      21102.357      7050.0972      6677.7853      372.3119       2304.6363      3598.2186     -1836.4309      22.101173      83.103857     -1522.0842     -2277.2329     -348.8528       36275.919      33.103416      33.103416      33.103416      1.7174726      26260.103      25654.599      27769.665    
    132000   132000         614.36504      26821.921      21088.576      6967.2461      6627.4945      339.75159      2321.8262      3608.1945     -1835.2295      21.189396      21.866521     -1523.8718     -2274.2238     -350.55067      36100.219      33.049884      33.049884      33.049884      1.7258316      28403.17       24917.813      27144.78     
    133000   133000         603.24932      27105.054      21357.262      7047.1902      6507.5831      539.60705      2357.7         3662.215      -1807.1551      22.440595      105.89433     -1523.2507     -2278.2371     -349.57872      36200.59       33.080486      33.080486      33.080486      1.7210465      27815.621      25491.113      28008.428    
    134000   134000         618.88678      27688.985      21821.065      7230.2605      6676.273       553.98746      2433.6185      3608.3452     -1818.0764      20.908889      101.56647     -1515.4865     -2276.8888     -350.23883      36132.36       33.05969       33.05969       33.05969       1.7242964      28093.382      28397.14       26576.432    
    135000   135000         601.81981      24674.303      20062.298      6996.1382      6492.1622      503.97596      2324.4405      3761.0226     -1802.5573      21.438769     -2.3679908     -1517.8188     -2280.1817     -348.52461      36310.078      33.113803      33.113803      33.113803      1.7158569      26252.329      25180.203      22590.377    
    136000   136000         605.05005      28389.672      22101.899      7072.9603      6527.0086      545.95173      2300.6087      3707.1221     -1843.8901      23.602921      151.24804     -1518.5467     -2274.1933     -348.63308      36298.781      33.110369      33.110369      33.110369      1.7163909      28490.851      28156.302      28521.862    
    137000   137000         615.70817      27076.999      21591.747      7248.2449      6641.9836      606.26128      2381.8955      3678.883      -1819.2499      22.419255      145.2513      -1520.9266     -2282.0113     -348.40297      36322.755      33.117656      33.117656      33.117656      1.715258       27366.972      26577.499      27286.527    
    138000   138000         607.49749      28938.185      22486.466      7137.2246      6553.4105      583.81412      2296.8034      3766.5063     -1804.4504      20.952184      91.075774     -1515.501      -2271.5721     -347.95325      36369.701      33.131918      33.131918      33.131918      1.713044       27832.158      30164.091      28818.308    
    139000   139000         600.18517      28544.659      22205.314      7151.4623      6474.5284      676.93383      2353.5579      3811.4467     -1865.7689      23.154497      138.07784     -1506.9513     -2276.5829     -349.95623      36161.538      33.068587      33.068587      33.068587      1.7229051      29119.04       27324.792      29190.145    
    140000   140000         604.20934      22695.329      19100.552      6971.7831      6517.9394      453.84367      2412.085       3597.4711     -1822.193       20.972475      21.110865     -1504.4724     -2271.1304     -345.34747      36644.125      33.21504       33.21504       33.21504       1.7002152      20799.361      22018.863      25267.764    
    141000   141000         605.75035      23322.458      19350.557      6949.413       6534.5632      414.84985      2378.784       3654.1613     -1827.9833      21.717656     -6.7842302     -1524.4133     -2280.6323     -347.09559      36459.57       33.159185      33.159185      33.159185      1.7088215      20102.691      23757.986      26106.696    
    142000   142000         605.59081      23817.984      19720.245      7051.4153      6532.8421      518.57316      2375.8163      3728.0315     -1831.4427      24.323676      4.9149327     -1505.135      -2277.9355     -346.98047      36471.666      33.162851      33.162851      33.162851      1.7082548      24573.079      21471.294      25409.58     
    143000   143000         624.61968      26171.19       21130.338      7184.099       6738.1171      445.98199      2323.0711      3656.1441     -1850.3377      21.076204      87.236449     -1517.5563     -2273.6518     -346.34018      36539.092      33.183275      33.183275      33.183275      1.7051025      24230.263      27814.488      26468.817    
    144000   144000         616.82505      27822.113      21972.362      7167.8048      6654.032       513.77275      2365.2097      3706.5692     -1829.4451      22.359292      40.284491     -1514.4847     -2276.7201     -346.84162      36486.266      33.167276      33.167276      33.167276      1.7075712      29182.339      25841.564      28442.437    
    145000   145000         612.35749      22688.877      19173.818      6946.9212      6605.838       341.08315      2383.4125      3596.452      -1820.7507      22.082439     -42.207879     -1521.581      -2276.3242     -342.47847      36951.098      33.307532      33.307532      33.307532      1.6860906      21227.95       21603.547      25235.134    
    146000   146000         594.07409      24141.135      19716.667      6865.4128      6408.6049      456.8079       2332.5891      3675.6383     -1815.7193      20.136222      39.326857     -1515.4405     -2279.7228     -346.69589      36501.604      33.171923      33.171923      33.171923      1.7068537      24245.102      25881.43       22296.872    
    147000   147000         605.93911      24833.729      20347.182      7025.9781      6536.5994      489.37871      2420.8294      3700.2333     -1838.2125      23.860964     -30.390099     -1511.0966     -2275.8457     -344.06064      36781.178      33.256398      33.256398      33.256398      1.6938799      20926.608      26100.354      27474.225    
    148000   148000         599.39417      24586.342      20189.05       7080.9093      6465.9955      614.91384      2394.6002      3696.6451     -1835.3199      21.455045      111.9237      -1502.6251     -2271.7652     -346.16994      36557.062      33.188714      33.188714      33.188714      1.7042644      25018.243      22353.579      26387.205    
    149000   149000         591.82067      24559.142      19875.313      6745.454       6384.296       361.15799      2364.5278      3554.9237     -1834.9288      20.846645      41.578321     -1514.6361     -2271.1536     -345.215        36658.187      33.219288      33.219288      33.219288      1.699563       26390.079      24542.354      22744.994    
    150000   150000         606.46071      23436.124      19374.288      6804.7911      6542.2261      262.56494      2315.5895      3650.9673     -1844.7865      21.46257      -71.141132     -1527.8915     -2281.6354     -344.11563      36775.301      33.254627      33.254627      33.254627      1.6941506      21252.409      23342.929      25713.034    
    151000   151000         613.90842      25749.153      20776.446      7005.4619      6622.5688      382.89314      2326.6981      3611.3        -1829.4118      22.123742      64.681544     -1528.6852     -2283.8132     -345.09169      36671.285      33.223245      33.223245      33.223245      1.6989559      29721.155      24283.831      23242.475    
    152000   152000         609.21444      23935.363      19638.528      6826.5012      6571.9322      254.56898      2373.7199      3556.1472     -1851.3178      22.029953     -45.006971     -1520.162      -2280.8413     -344.7932       36703.031      33.232829      33.232829      33.232829      1.6974864      23399.817      24601.831      23804.442    
    153000   153000         622.90169      25764.536      20890.837      7027.3118      6719.5841      307.72773      2385.2933      3648.1188     -1852.5556      23.392384     -90.050487     -1521.8683     -2284.6023     -342.99293      36895.675      33.290871      33.290871      33.290871      1.6886233      25025.098      27364.028      24904.481    
    154000   154000         621.07745      22631.086      19114.114      6936.3126      6699.905       236.40754      2376.8746      3530.1785     -1879.5729      21.235498     -15.436553     -1517.0811     -2279.7905     -342.98335      36896.706      33.291181      33.291181      33.291181      1.6885762      24710.882      20930.747      22251.627    
    155000   155000         611.26782      26274.838      21231.566      7142.739       6594.0831      548.65584      2483.0542      3702.5079     -1866.2719      23.521019     -4.9923214     -1511.7441     -2277.419      -344.19274      36767.061      33.252143      33.252143      33.252143      1.6945303      27383.473      25827.28       25613.76     
    156000   156000         606.48455      24738.606      20223.723      6865.2802      6542.4834      322.79678      2361.7076      3617.9706     -1847.7736      21.670313     -43.048838     -1514.561      -2273.1682     -341.78729      37025.823      33.329969      33.329969      33.329969      1.6826877      26692.773      24627.067      22895.979    
    157000   157000         607.93416      24654.188      20219.632      7047.4108      6558.1211      489.28969      2378.5991      3765.87       -1871.8626      23.118866      6.0600902     -1531.9        -2280.5958     -345.4365       36634.681      33.212187      33.212187      33.212187      1.7006535      22941.714      26044.582      24976.27     
    158000   158000         607.17278      23493.728      19491.617      6837.0155      6549.9077      287.10781      2371.0641      3592.6822     -1824.6951      22.546014     -62.672175     -1528.4692     -2283.348      -342.64152      36933.515      33.302248      33.302248      33.302248      1.6868933      27257.549      21118.546      22105.089    
    159000   159000         595.61818      20975.897      18178.822      6797.262       6425.2619      372.00008      2396.6354      3682.1923     -1870.4285      22.19832      -84.324033     -1505.8177     -2268.4556     -340.13808      37205.348      33.38375       33.38375       33.38375       1.6745683      23423.302      18039.846      21464.543    
    160000   160000         607.15817      23692.073      19708.796      6966.4015      6549.7501      416.65142      2453.6209      3613.9504     -1856.5039      21.798119     -34.643591     -1509.8572     -2271.7132     -343.15359      36878.401      33.285674      33.285674      33.285674      1.6894143      24981.061      22855.224      23239.935    
    161000   161000         611.84468      22551.059      19177.858      7006.5628      6600.306       406.25675      2428.1809      3656.1275     -1842.6161      22.76025      -50.645099     -1532.6677     -2274.883      -341.9532       37007.859      33.324578      33.324578      33.324578      1.6835045      24883.349      20628.297      22141.532    
    162000   162000         605.31982      21802.507      18489.638      6707.8962      6529.9187      177.9775       2348.8844      3600.807      -1856.1948      22.871353     -153.27236     -1509.1412     -2275.977      -341.53363      37053.322      33.338218      33.338218      33.338218      1.6814389      24601.869      19067.846      21737.807    
    163000   163000         621.88293      19033.041      17278.78       6954.762       6708.5942      246.16779      2324.8881      3678.6312     -1837.0008      23.504275     -143.99772     -1516.9072     -2282.95       -340.2483       37193.296      33.380145      33.380145      33.380145      1.675111       20619.086      19901.345      16578.692    
    164000   164000         607.31038      26376.523      21012.079      6787.4825      6551.392       236.09048      2359.157       3588.1366     -1894.2479      21.062106     -41.175119     -1520.9143     -2275.9279     -342.22688      36978.263      33.315692      33.315692      33.315692      1.6848519      26778.675      26624.494      25726.4      
    165000   165000         609.15742      22362.021      18986.466      6852.3781      6571.3171      281.06099      2360.2932      3596.437      -1847.0938      22.428572     -63.473307     -1516.0683     -2271.4623     -340.12648      37206.618      33.38413       33.38413       33.38413       1.6745112      22733.443      23090.529      21262.09     
[...]
    267000   267000         609.70855      5407.6627      10124.51       6682.901       6577.2625      105.6385       2502.025       3666.5477     -1826.0609      22.520259     -475.87473     -1496.9182     -2286.6006     -289.99106      43639.124      35.206702      35.206702      35.206702      1.4276844      7984.9932      4037.7169      4200.278     
    268000   268000         609.70055      4962.1041      9905.5956      6749.6748      6577.1761      172.49868      2607.2956      3568.3082     -1805.5167      23.201757     -450.20884     -1491.9837     -2278.5978     -290.18589      43609.825      35.198821      35.198821      35.198821      1.4286436      4669.1263      6322.1456      3895.0403    
    269000   269000         614.7796       4275.8427      9646.6657      6896.3853      6631.9666      264.4187       2606.6699      3691.7377     -1840.3984      23.484285     -445.49268     -1491.3017     -2280.2804     -286.93351      44104.14       35.331314      35.331314      35.331314      1.4126315      4515.7823      3686.2389      4625.507     
    270000   270000         603.78993      5981.4951      10445.699      6621.4556      6513.415       108.04055      2494.4415      3667.9845     -1843.0678      21.974825     -457.40885     -1496.2551     -2279.6286     -288.66943      43838.919      35.260349      35.260349      35.260349      1.4211778      5707.6894      4516.6554      7720.1405    
    271000   271000         616.49874      6203.501       10842.567      6820.5677      6650.5119      170.05575      2466.276       3662.9052     -1817.6554      21.929755     -385.0937      -1496.9286     -2281.3777     -284.66326      44455.88       35.42499       35.42499       35.42499       1.4014546      8613.0354      6715.7396      3281.728     
    272000   272000         598.40855      3982.8655      9114.5988      6546.3172      6455.3631      90.954054      2510.1954      3613.181      -1822.9561      23.397621     -465.98092     -1484.3449     -2282.5381     -286.21311      44215.151      35.360932      35.360932      35.360932      1.4090848      3717.2515      4237.5053      3993.8396    
    273000   273000         600.34383      5206.0356      10003.932      6608.8112      6476.2401      132.57113      2520.5407      3677.0852     -1847.0592      22.841663     -469.3909      -1490.7866     -2280.6597     -283.0013       44716.952      35.494201      35.494201      35.494201      1.3932725      5960.3758      5753.3167      3904.4144    
    274000   274000         606.34567      4345.5618      9467.3244      6644.8849      6540.9852      103.89975      2635.9185      3524.3485     -1845.4563      21.872613     -461.9524      -1492.852      -2277.9792     -284.15664      44535.14       35.44603       35.44603       35.44603       1.3989604      2991.7917      5367.3741      4677.5196    
    275000   275000         618.25339      4834.8934      10030.801      6896.9882      6669.4403      227.54795      2544.0764      3714.6374     -1835.8971      23.590773     -450.80317     -1489.1977     -2278.8586     -284.74123      44443.706      35.421756      35.421756      35.421756      1.4018385      4442.0132      4650.3726      5412.2945    
    276000   276000         604.72898      3427.0192      8934.7732      6694.1613      6523.5451      170.61626      2560.1604      3759.8921     -1872.4663      25.398108     -551.48419     -1478.8383     -2272.0456     -282.2841       44830.565      35.524235      35.524235      35.524235      1.3897415      3810.7155      4584.2016      1886.1404    
    277000   277000         622.12619      5835.2372      10555.33       6725.6383      6711.2184      14.41989       2476.3861      3570.1433     -1827.6429      22.856117     -451.90402     -1496.7285     -2278.6902     -281.21026      45001.756      35.569396      35.569396      35.569396      1.3844548      6692.7513      6142.5923      4670.3681    
    278000   278000         615.78291      4622.2117      9764.9098      6710.1387      6642.7899      67.348714      2466.9668      3630.0289     -1869.2777      21.344058     -412.34963     -1493.1636     -2276.2001     -279.25932      45316.145      35.652035      35.652035      35.652035      1.3748499      7085.2332      3794.9664      2986.4355    
    279000   279000         602.78663      2286.9121      7942.859       6427.3364      6502.5919     -75.255458      2423.339       3600.6003     -1871.0337      22.983127     -490.96572     -1490.5161     -2269.6624     -278.49897      45439.866      35.684451      35.684451      35.684451      1.3711065      1487.9924      2438.8909      2933.8531    
    280000   280000         616.76127      5888.5654      10818.859      6933.4892      6653.344       280.14528      2556.9941      3713.895      -1843.757       23.758067     -411.41808     -1489.1294     -2270.1973     -279.71367      45242.536      35.63272       35.63272       35.63272       1.3770868      7570.6663      5571.1405      4523.8893    
    281000   281000         614.54716      3442.2217      8918.7032      6617.6117      6629.4592     -11.847509      2463.3626      3550.575      -1874.5596      22.980629     -404.67536     -1495.7259     -2273.8048     -276.08415      45837.313      35.788189      35.788189      35.788189      1.3592179      4908.1568      3030.9116      2387.5966    
    282000   282000         607.75606      5307.0041      10297.655      6706.7859      6556.1999      150.58606      2407.9845      3751.7838     -1876.6682      24.668384     -398.87877     -1487.0243     -2271.2793     -272.76356      46395.331      35.93283       35.93283       35.93283       1.34287        6467.0281      4749.1308      4704.8534    
    283000   283000         620.07317      3331.851       9234.5391      6984.3378      6689.0713      295.26655      2557.8838      3768.6291     -1854.6492      22.869635     -443.63161     -1479.8786     -2275.9565     -273.27552      46308.414      35.910377      35.910377      35.910377      1.3453905      2754.3878      4074.4316      3166.7337    
    284000   284000         611.62644      2956.8513      8693.5579      6697.7472      6597.9518      99.795396      2575.137       3610.2523     -1865.3805      23.165604     -481.5027      -1490.5472     -2271.3292     -273.4303       46282.2        35.9036        35.9036        35.9036        1.3461525      4788.1059      4247.0519     -164.60384    
    285000   285000         588.81498      1383.9341      7409.3748      6452.8369      6351.872       100.96493      2484.6398      3679.875      -1893.1511      23.89363      -438.98914     -1486.6078     -2268.6956     -267.02366      47392.638      36.188476      36.188476      36.188476      1.3146113      710.2887       894.69765      2546.8159    
    286000   286000         618.58908      1287.6214      7753.2304      6860.7954      6673.0616      187.7338       2564.7587      3694.6837     -1857.1926      24.485195     -485.59626     -1478.383      -2275.0219     -266.28584      47523.953      36.221869      36.221869      36.221869      1.3109789     -1685.5372      4318.6291      1229.7724    
    287000   287000         601.42263     -40.000989      6653.9175      6681.7912      6487.8776      193.91364      2564.2144      3646.534      -1872.5633      25.41742      -417.44075     -1480.8052     -2271.4429     -264.85703      47780.329      36.286887      36.286887      36.286887      1.3039445      1887.6515     -1517.6655     -489.98898    
    288000   288000         602.01379      1017.5799      7417.2627      6706.0949      6494.2548      211.84011      2561.2862      3710.4669     -1872.6294      27.181817     -484.48138     -1466.0975     -2263.8866     -264.07846      47921.197      36.322513      36.322513      36.322513      1.3001115     -1282.8081      2719.8024      1615.7455    
    289000   289000         616.52645      2316.1984      8338.5895      6730.2445      6650.8108      79.433666      2461.7993      3524.0665     -1842.0646      20.348571     -335.3297      -1483.0152     -2266.3713     -265.78659      47613.221      36.244534      36.244534      36.244534      1.308521       1523.0835      2415.3441      3010.1675    
    290000   290000         602.09848      603.92994      7103.1996      6678.5099      6495.1684      183.34143      2508.757       3689.5667     -1896.0387      26.571432     -418.42471     -1469.0767     -2258.0137     -262.45288      48218.011      36.39735       36.39735       36.39735       1.2921084      725.88284      1150.5542     -64.647165    
    291000   291000         608.50105      1241.2631      7790.682       6909.3783      6564.2365      345.14179      2554.1674      3724.4786     -1855.1801      23.1049       -342.02621     -1489.6997     -2269.7032     -259.941        48683.954      36.514213      36.514213      36.514213      1.2797419      2093.9769      823.51551      806.29684    
    292000   292000         606.72775      2028.9173      8171.5355      6721.7916      6545.1069      176.68477      2582.3149      3533.1209     -1854.5968      21.501189     -344.6858      -1491.3269     -2269.6427     -258.29118      48994.92       36.591793      36.591793      36.591793      1.2716195      2239.6368      2598.802       1248.313     
    293000   293000         621.5629       2385.7436      8945.7978      7241.9875      6705.1418      536.84572      2689.0847      3700.4077     -1836.3672      21.964572     -280.63765     -1489.8492     -2267.7573     -258.42769      48969.04       36.585349      36.585349      36.585349      1.2722916      2052.425       3141.08        1963.7258    
    294000   294000         606.69088      1003.5846      7466.8259      6736.5714      6544.7092      191.86221      2574.3602      3612.2723     -1877.6704      21.544535     -379.50708     -1484.8138     -2274.3235     -253.63913      49893.546      36.814151      36.814151      36.814151      1.2487166      2266.1032      1272.5187     -527.86803    
    295000   295000         625.41777      1652.0485      8189.2242      7005.569       6746.7265      258.84255      2552.9123      3660.1786     -1859.3499      22.891101     -384.41571     -1466.7201     -2266.6538     -257.59302      49127.711      36.624821      36.624821      36.624821      1.2681824      358.96947      2142.948       2454.2279    
    296000   296000         606.9514       621.14557      7506.0218      7042.5123      6547.5195      494.99275      2665.5671      3656.3893     -1832.1684      23.318078     -292.13833     -1464.2714     -2261.7036     -247.32685      51166.93       37.124714      37.124714      37.124714      1.2176399      1159.2482      1915.5913     -1211.4028    
    297000   297000         614.48177     -1357.4222      6044.333       7066.428       6628.7538      437.67423      2712.2176      3639.6928     -1834.7588      22.99733      -397.27423     -1447.091      -2258.1095     -245.10952      51629.801      37.236325      37.236325      37.236325      1.2067236     -1352.2173     -1769.1089     -950.9403     
    298000   298000         608.3065       531.99534      7215.0115      6818.265       6562.1378      256.12721      2536.5677      3581.6116     -1794.2112      21.761866     -361.0485      -1465.5863     -2262.9679     -247.47496      51136.308      37.117307      37.117307      37.117307      1.2183691      2394.976       665.94378     -1464.9337    
    299000   299000         607.04288      129.07221      6993.2658      6895.5757      6548.5064      347.06932      2535.3851      3659.981      -1866.0851      23.066949     -268.40579     -1469.2211     -2267.6517     -243.84766      51896.973      37.300445      37.300445      37.300445      1.2005112     -148.30966     -442.33268      977.85897    
    300000   300000         612.80241     -636.07546      6475.1238      6958.3539      6610.6376      347.71627      2566.7287      3578.3956     -1866.6231      23.206515     -208.86789     -1472.7123     -2272.4112     -242.93564      52091.804      37.347064      37.347064      37.347064      1.1960211     -456.10709     -161.69831     -1290.421     
Loop time of 13861.4 on 1 procs for 300000 steps with 3620 atoms

Performance: 1.870 ns/day, 12.835 hours/ns, 21.643 timesteps/s, 78.347 katom-step/s
39.9% CPU use with 1 MPI tasks x 1 OpenMP threads

MPI task timing breakdown:
Section |  min time  |  avg time  |  max time  |%varavg| %total
---------------------------------------------------------------
Pair    | 521.35     | 521.35     | 521.35     |   0.0 |  3.76
Bond    | 5768.1     | 5768.1     | 5768.1     |   0.0 | 41.61
Kspace  | 2881.9     | 2881.9     | 2881.9     |   0.0 | 20.79
Neigh   | 2875.9     | 2875.9     | 2875.9     |   0.0 | 20.75
Comm    | 122.87     | 122.87     | 122.87     |   0.0 |  0.89
Output  | 8.9632     | 8.9632     | 8.9632     |   0.0 |  0.06
Modify  | 1644.2     | 1644.2     | 1644.2     |   0.0 | 11.86
Other   |            | 38.09      |            |       |  0.27

Nlocal:           3620 ave        3620 max        3620 min
Histogram: 1 0 0 0 0 0 0 0 0 0
Nghost:          11568 ave       11568 max       11568 min
Histogram: 1 0 0 0 0 0 0 0 0 0
Neighs:              0 ave           0 max           0 min
Histogram: 1 0 0 0 0 0 0 0 0 0
FullNghs:  1.59535e+06 ave 1.59535e+06 max 1.59535e+06 min
Histogram: 1 0 0 0 0 0 0 0 0 0

Total # of neighbors = 1595352
Ave neighs/atom = 440.70497
Ave special neighs/atom = 5.9723757
Neighbor list builds = 12953
Dangerous builds = 0

# --- Cleanup ---
unfix npt_fix

undump dump_npt

# --- Write Output ---
write_dump all custom npt_pppm_last.dump id type mol x y z xu yu zu vx vy vz modify sort id
write_data /home/arz2/PolyJarvis/data/PVC1/lammps/equil/npt_pppm/npt_pppm_out.data
System init for write_data ...
PPPM initialization ...
  using 12-bit tables for long-range coulomb
  G vector (1/distance) = 0.29528542
  grid = 25 25 25
  stencil order = 5
  estimated absolute RMS force accuracy = 0.00035462531
  estimated relative force accuracy = 1.0679436e-06
  using double precision KISS FFT
  3d grid and FFT values/proc = 32768 15625
Generated 6 of 6 mixed pair_coeff terms from sixthpower/sixthpower mixing rule

print "STAGE COMPLETE: NPT T=610.0->610.0K P=50000.0->1.0atm steps=300000"
STAGE COMPLETE: NPT T=610.0->610.0K P=50000.0->1.0atm steps=300000
quit
       |       |  0.27

Nlocal:           3620 ave        3620 max        3620 min
Histogram: 1 0 0 0 0 0 0 0 0 0
Nghost:          11568 ave       11568 max       11568 min
Histogram: 1 0 0 0 0 0 0 0 0 0
Neighs:              0 ave           0 max           0 min
Histogram: 1 0 0 0 0 0 0 0 0 0
FullNghs:  1.59535e+06 ave 1.59535e+06 max 1.59535e+06 min
Histogram: 1 0 0 0 0 0 0 0 0 0

Total # of neighbors = 1595352
Ave neighs/atom = 440.70497
Ave special neighs/atom = 5.9723757
Neighbor list builds = 12953
Dangerous builds = 0
System init for write_data ...
PPPM initialization ...
  using 12-bit tables for long-range coulomb
  G vector (1/distance) = 0.29528542
  grid = 25 25 25
  stencil order = 5
  estimated absolute RMS force accuracy = 0.00035462531
  estimated relative force accuracy = 1.0679436e-06
  using double precision KISS FFT
  3d grid and FFT values/proc = 32768 15625


---------------------------------------------------------------------
    Device Time Info (average) for kspace: 
---------------------------------------------------------------------
Data Out:        15.5874 s.
Data In:         120.9543 s.
Kernel (map):    14.0130 s.
Kernel (rho):    67.2810 s.
Force interp:    18.7649 s.
Total rho:       96.8814 s.
Total interp:    139.7192 s.
Force copy:      7.9205 s.
Total:           244.5211 s.
CPU Poisson:     2825.5026 s.
CPU Data Cast:   10.4254 s.
CPU Idle Time:   9.6862 s.
Max Mem / Proc:  7.93 MB.
---------------------------------------------------------------------


--------------------------------------------------------------------------
- Using acceleration for pppm:
-  with 1 proc(s) per device.
-  with 1 thread(s) per proc.
-  Horizontal vector operations: ENABLED
-  Shared memory system: No
--------------------------------------------------------------------------
Device 0: Quadro RTX 6000, 72 CUs, 23/24 GB, 1.8 GHZ (Mixed Precision)
--------------------------------------------------------------------------

Initializing Device and compiling on process 0...Done.
Initializing Device 0 on core 0...Done.



---------------------------------------------------------------------
      Device Time Info (average): 
---------------------------------------------------------------------
Data Transfer:   10.0522 s.
Neighbor copy:   144.5376 s.
Neighbor unpack: 0.0000 s.
Force calc:      95.2355 s.
Device Overhead: 5.7600 s.
CPU Cast/Pack:   22.4818 s.
CPU Driver_Time: 3.8442 s.
CPU Idle_Time:   4.6882 s.
Average split:   1.0000.
Max Mem / Proc:  13.44 MB.
Prefetch mode:   None.
Vector width:    32.
Lanes / atom:    8.
Pair block:      256.
Neigh block:     128.
Neigh mode:      Host.
---------------------------------------------------------------------


--------------------------------------------------------------------------
- Using acceleration for lj/class2/coul/long:
-  with 1 proc(s) per device.
-  with 1 thread(s) per proc.
-  Horizontal vector operations: ENABLED
-  Shared memory system: No
--------------------------------------------------------------------------
Device 0: Quadro RTX 6000, 72 CUs, 23/24 GB, 1.8 GHZ (Mixed Precision)
--------------------------------------------------------------------------

Initializing Device and compiling on process 0...Done.
Initializing Device 0 on core 0...Done.

Generated 6 of 6 mixed pair_coeff terms from sixthpower/sixthpower mixing rule
STAGE COMPLETE: NPT T=610.0->610.0K P=50000.0->1.0atm steps=300000
Cuda driver error 4 in call at file '/home/arz2/lammps/lib/gpu/geryon/nvd_timer.h' in line 98.
Cuda driver error 4 in call at file '/home/arz2/lammps/lib/gpu/geryon/nvd_timer.h' in line 99.
Cuda driver error 4 in call at file '/home/arz2/lammps/lib/gpu/geryon/nvd_timer.h' in line 98.
Cuda driver error 4 in call at file '/home/arz2/lammps/lib/gpu/geryon/nvd_timer.h' in line 99.
Cuda driver error 4 in call at file '/home/arz2/lammps/lib/gpu/geryon/nvd_timer.h' in line 98.
Cuda driver error 4 in call at file '/home/arz2/lammps/lib/gpu/geryon/nvd_timer.h' in line 99.
Cuda driver error 4 in call at file '/home/arz2/lammps/lib/gpu/geryon/nvd_timer.h' in line 98.
Cuda driver error 4 in call at file '/home/arz2/lammps/lib/gpu/geryon/nvd_timer.h' in line 99.
Cuda driver error 4 in call at file '/home/arz2/lammps/lib/gpu/geryon/nvd_timer.h' in line 98.
Cuda driver error 4 in call at file '/home/arz2/lammps/lib/gpu/geryon/nvd_timer.h' in line 99.
Cuda driver error 4 in call at file '/home/arz2/lammps/lib/gpu/geryon/nvd_timer.h' in line 98.
Cuda driver error 4 in call at file '/home/arz2/lammps/lib/gpu/geryon/nvd_timer.h' in line 99.
Cuda driver error 4 in call at file '/home/arz2/lammps/lib/gpu/geryon/nvd_timer.h' in line 98.
Cuda driver error 4 in call at file '/home/arz2/lammps/lib/gpu/geryon/nvd_timer.h' in line 99.
Cuda driver error 4 in call at file '/home/arz2/lammps/lib/gpu/geryon/nvd_timer.h' in line 98.
Cuda driver error 4 in call at file '/home/arz2/lammps/lib/gpu/geryon/nvd_timer.h' in line 99.
Cuda driver error 4 in call at file '/home/arz2/lammps/lib/gpu/geryon/nvd_timer.h' in line 98.
Cuda driver error 4 in call at file '/home/arz2/lammps/lib/gpu/geryon/nvd_timer.h' in line 99.
Cuda driver error 4 in call at file '/home/arz2/lammps/lib/gpu/geryon/nvd_timer.h' in line 98.
Cuda driver error 4 in call at file '/home/arz2/lammps/lib/gpu/geryon/nvd_timer.h' in line 99.
