LAMMPS data file via write_data, version 22 Jul 2025, timestep = 5000000, units = real

4840 atoms
2 atom types
4820 bonds
2 bond types
4800 angles
2 angle types
4780 dihedrals
2 dihedral types

2.506191079664365 53.272180970340344 xlo xhi
2.506191079664365 53.272180970340344 ylo yhi
2.506191079664365 53.272180970340344 zlo zhi

Masses

1 14.0268
2 15.0347

Pair Coeffs # lj/cut/gpu

1 0.09141 3.95
2 0.19475 3.75

Bond Coeffs # harmonic

1 260 1.54
2 260 1.54

Angle Coeffs # harmonic

1 62.1002 114
2 62.1002 114

Dihedral Coeffs # multi/harmonic

1 2.00702 -4.01203 0.27102 6.29006 0
2 2.00702 -4.01203 0.27102 6.29006 0

Atoms # full

4184 18 1 0 8.266840918401932 10.157127434003264 7.768398970221864 0 1 0
4185 18 1 0 7.659555763510148 9.419465008882955 8.964576907611573 0 1 0
4186 18 1 0 6.4199762222769206 8.502487307106513 8.64949738272992 0 1 0
4187 18 1 0 5.872696161561587 7.7114742123286195 9.835026632009523 0 1 0
4169 18 1 0 7.857346406622107 5.191957405969706 6.1990721813742855 0 1 0
2883 12 1 0 2.630343198168776 6.249223661148336 4.909031943678495 0 1 1
4167 18 1 0 5.91298031885839 3.9330175111837242 7.166495084083914 0 1 0
4168 18 1 0 6.320655426340419 5.247102751295935 6.353958770509287 0 1 0
2881 12 1 0 53.263857192246405 8.13840476712284 3.1519934629903803 -1 1 1
4170 18 1 0 8.51599966508401 3.8590642334808427 6.526409857592164 0 1 0
4166 18 1 0 4.527631383405207 3.5895535317643934 7.065605406411963 0 1 0
4188 18 1 0 4.733163287338829 6.817647621598374 9.407166922504418 0 1 0
4189 18 1 0 4.180529932480246 6.164623004953837 10.764205577587047 0 1 0
4190 18 1 0 3.3540199660476353 4.852676759297099 10.6025827396177 0 1 0
4181 18 1 0 10.817010597759149 10.373567338476088 5.994830565866339 0 1 0
728 4 1 0 10.385497772413151 2.5998292224801247 52.90777032374628 1 0 0
413 2 1 0 6.914417627689127 52.77546445847241 10.423723518970988 0 -1 0
2882 12 1 0 3.396244386607161 7.333470115049893 4.156347400426049 0 1 1
4180 18 1 0 12.129526763523419 9.741209771627624 6.4429237567061595 0 1 0
4179 18 1 0 12.47569154459193 8.402409061995318 5.603349693579098 0 1 0
4171 18 1 0 10.081923864818133 3.8503144210339086 6.4960642420397585 0 1 0
1522 7 1 0 10.424338897830555 7.327886912505718 10.091402087696334 0 0 0
4173 18 1 0 12.251559412973473 53.12286909632326 6.572623514062161 0 0 0
4176 18 1 0 13.864463643776181 4.948442332422037 6.454746388965839 0 1 0
4175 18 1 0 14.090252575529874 3.7048802756765262 5.602781186535289 0 1 0
4174 18 1 0 12.775998674108413 2.993546661787195 5.293037284813936 0 1 0
1227 6 1 0 15.655485033711974 9.594246634298099 9.581997153404828 1 1 0
4177 18 1 0 13.823033892496252 6.190380805298938 5.568124913576886 0 1 0
1228 6 1 0 15.846412483774923 9.851098941988893 8.041085270414463 1 1 0
4178 18 1 0 13.186470500525335 7.309727418032953 6.427177968114712 0 1 0
4172 18 1 0 10.739935525590864 53.225681569595466 6.640638985704943 0 0 0
354 2 1 0 15.79912492152309 10.037203007507841 3.2321458688523315 0 0 0
353 2 1 0 17.133813245714954 10.203825114801358 3.9762562384187516 0 0 0
1229 6 1 0 15.809667501014289 11.33296014699283 7.673613489852734 1 1 0
385 2 1 0 18.259118400107248 3.1213603436615203 3.2516653342483455 0 0 0
2968 13 1 0 17.298202678838646 2.536899618400156 8.249279337100997 0 1 1
2969 13 1 0 17.307800639498474 52.40291264225404 7.020193038807763 0 0 1
1521 7 1 0 11.908369852889656 7.898556067163116 9.983308519959742 0 0 0
1524 7 1 0 11.119401072414401 4.8508991905507735 10.420631814209836 0 0 0
2966 13 1 0 17.943929320556755 4.562073144634091 6.956504257212979 0 1 1
2967 13 1 0 18.336476582005197 3.6132396647571214 8.111135553932911 0 1 1
2964 13 1 0 18.641876254575102 6.503791907208342 5.4590950390782895 0 1 1
2965 13 1 0 18.903906857657052 5.6889006842088286 6.746464493771495 0 1 1
2963 13 1 0 19.761067482409562 7.489547773112645 5.179979271261747 0 1 1
1774 8 1 0 21.671571194194737 8.323749253948758 8.144243753999998 0 0 1
1776 8 1 0 23.145140101325527 6.253611595052033 8.559179673542083 0 0 1
1775 8 1 0 21.8995917180947 7.127855228856325 9.040286316732029 0 0 1
1773 8 1 0 20.535164519485186 9.196991553470873 8.626322134664349 0 0 1
2959 13 1 0 23.78787195453102 9.262239204191406 3.9318713738364 0 1 1
2960 13 1 0 22.63783401802106 8.309213076095748 4.253720956770939 0 1 1
3702 16 1 0 22.62881768793808 3.8589869276279956 3.414951964449762 0 1 1
2962 13 1 0 20.117526430144025 7.742470020851221 3.811833576109297 0 1 1
2961 13 1 0 21.30666748523139 8.724013174716237 3.6619675794374547 0 1 1
1777 8 1 0 24.442886182121832 7.129048685187977 8.51149977610591 0 0 1
3701 16 1 0 23.708961501509723 3.643608435618633 53.154212807065875 0 1 0
3704 16 1 0 21.643741124283533 3.1235655794429293 5.680154073612455 0 1 1
3703 16 1 0 22.40215098897735 2.701004477225288 4.426995622506636 0 1 1
386 2 1 0 18.829994615662986 52.71362283240093 53.1994850543646 0 -1 -1
1772 8 1 0 20.500655053734764 10.48740975097149 7.769849587606218 0 0 1
387 2 1 0 18.40294774716709 51.27039280653106 2.940242902315409 0 -1 0
3705 16 1 0 21.881781221374343 52.89320907270313 6.853491970247377 0 0 1
1778 8 1 0 25.831788957809646 6.479999181876287 8.309533322670857 0 0 1
2958 13 1 0 25.132202232610233 8.78853982907505 4.449871382036332 0 1 1
1779 8 1 0 26.009704373514836 5.333834325757547 9.382623043341615 0 0 1
2957 13 1 0 25.25850950577291 7.243387762696326 4.328217377027035 0 1 1
2956 13 1 0 26.581009425401486 6.65170884213978 4.686462151189788 0 1 1
2955 13 1 0 26.670632849509314 5.083557894679179 4.477500784000922 0 1 1
2954 13 1 0 27.983284761999652 4.378651572739042 5.195644291582847 0 1 1
911 4 1 0 30.779234672106167 6.958347612165028 5.242993618570063 0 -1 -1
913 4 1 0 29.91604506312261 7.086461075356786 7.661597235627318 0 -1 -1
912 4 1 0 30.974000414413673 6.484572354093933 6.698564501635071 0 -1 -1
910 4 1 0 31.918126847138318 7.750219586186126 4.596238669748084 0 -1 -1
1780 8 1 0 27.41886990545188 4.765541180426954 9.451037548233632 0 0 1
909 4 1 0 31.605845079403217 8.35299418386717 3.2031334227415127 0 -1 -1
1658 7 1 0 33.88405643159514 3.128203173381477 4.230331433493249 0 0 -1
3606 15 1 0 34.29806762058727 3.5680145562703065 9.818556205591738 0 1 -1
1657 7 1 0 32.661089340824134 52.924871581147784 4.12500621706977 0 -1 -1
908 4 1 0 32.937616926104994 8.815593673643928 53.270781267083706 0 -1 -2
1659 7 1 0 33.95116385475136 4.082211286887041 2.9648716388479928 0 0 -1
1656 7 1 0 32.90506606251332 51.976868237204584 2.8857163072552914 0 -1 -1
3610 15 1 0 34.12126434216981 8.317678794814444 8.178319633709796 0 1 -1
3611 15 1 0 34.374889369276545 9.809645476012436 8.527525785502483 0 1 -1
3608 15 1 0 34.39915865925985 5.8992436040953695 8.869483610527194 0 1 -1
3609 15 1 0 34.5252998157916 7.389455748327002 9.242968555390824 0 1 -1
931 4 1 0 39.06008906169444 6.582758752562675 8.531435394710172 0 -1 -1
932 4 1 0 38.3153724501273 5.725892567111852 7.552042894629371 0 -1 -1
933 4 1 0 39.24221581544006 5.30087754251325 6.37776837462202 0 -1 -1
1663 7 1 0 36.55280169482093 8.151458743430004 4.642870581240594 0 0 -1
934 4 1 0 38.57991357477758 4.399775399803179 5.37020731662108 0 -1 -1
1661 7 1 0 35.299424405754564 6.0682546741628505 3.9078544500104053 0 0 -1
1662 7 1 0 36.552878435880814 6.884383191456165 3.74660994914672 0 0 -1
2262 10 1 0 41.6726012950858 7.839263942459009 3.232539960312973 0 0 0
1664 7 1 0 37.86381922208817 8.934592661241338 4.380704679576182 0 0 -1
930 4 1 0 38.207498390636374 6.764198197878402 9.807654213829476 0 -1 -1
929 4 1 0 38.85126927119606 7.565948163452118 10.965124559244268 0 -1 -1
3612 15 1 0 35.84122358756841 10.11663804737174 8.795515877048166 0 1 -1
3607 15 1 0 34.66284844485966 5.0260995930848384 10.062009753600918 0 1 -1
2266 10 1 0 42.29495641887067 3.5382443190779584 3.892893396396425 0 0 0
935 4 1 0 37.96809466197968 3.0175728120289538 5.766921752703613 0 -1 -1
2267 10 1 0 42.71615197931361 52.800038849529614 4.040719883400654 0 -1 0
928 4 1 0 37.900760338582074 7.83451504378802 12.069701705282197 0 -1 -1
1660 7 1 0 35.19746512619301 4.93530022511837 2.843956442142042 0 0 -1
2263 10 1 0 42.519131055643754 6.574119557613636 3.162141315286774 0 0 0
2264 10 1 0 42.77379174281664 5.9453865744225185 4.602989119740929 0 0 0
2265 10 1 0 43.331105879520464 4.500019614960054 4.497390201509323 0 0 0
1674 7 1 0 44.5600324650262 7.950634343112912 8.018181692763427 0 0 -1
1675 7 1 0 44.583993436958934 6.488941276863452 8.289966498790509 0 0 -1
1676 7 1 0 43.20658533885202 5.879777441723386 8.649825410931129 0 0 -1
1677 7 1 0 43.36386209280184 4.516654744626964 9.302191954808123 0 0 -1
1678 7 1 0 42.20613986809366 3.5297744295341955 9.221708157353309 0 0 -1
2294 10 1 0 48.912556832477804 9.597412754937 4.930847841937442 0 0 0
2292 10 1 0 48.90570877636014 7.053398184418739 4.467577471242488 0 0 0
2291 10 1 0 47.48758488452113 6.914110601338345 4.0693740509608105 0 0 0
3514 15 1 0 50.07310289326355 8.589791994252925 8.452508812031386 0 1 0
1673 7 1 0 45.79841287127999 8.559193862480488 7.3393828543154696 0 0 -1
2290 10 1 0 46.93416852231573 5.4485267673076585 4.24145122687845 0 0 0
3509 15 1 0 49.4022953128802 2.581087856566654 8.013202881324268 0 1 0
1672 7 1 0 45.35170535285988 9.663589170042455 6.438071597118517 0 0 -1
2288 10 1 0 46.76350970083196 3.0237869094946057 3.565915467148649 0 0 0
3515 15 1 0 50.29025417128696 9.962979122082004 8.96550280739436 0 1 0
2293 10 1 0 49.573868596590074 8.44408765307173 4.213799224602584 0 0 0
3508 15 1 0 48.05820615868946 2.594219678743237 7.25074686546624 0 1 0
2289 10 1 0 47.51784062498213 4.363895877417471 3.2988144498241745 0 0 0
3511 15 1 0 50.049325247781894 5.045338365907315 8.454421972516066 0 1 0
3510 15 1 0 50.39834675877904 3.645734790620936 7.780063162359523 0 1 0
2884 12 1 0 2.693404827817731 4.864826643877816 4.142188272963261 0 1 1
3512 15 1 0 51.11115018004749 6.072168824101693 8.370961309811516 0 1 0
3513 15 1 0 50.93382348611962 7.491661719044567 9.065363505591172 0 1 0
2885 12 1 0 52.26242729319283 4.009450133894599 4.551772666983983 -1 1 1
2886 12 1 0 52.208212382518994 53.25256070120819 4.010014523277976 -1 0 1
4183 18 1 0 9.510596410751969 11.023821032502534 8.095006816157001 0 1 0
4182 18 1 0 10.285296366913297 11.494002327109596 6.841100318307907 0 1 0
2727 12 1 0 8.035534530346727 14.201122663539822 7.39298371867137 1 0 1
2726 12 1 0 8.671879993817809 14.952846485887365 6.271492876178387 1 0 1
2728 12 1 0 7.89457157590045 15.06159719397171 8.702804285795306 1 0 1
2158 9 1 0 4.801151915127301 12.46563608890616 6.611680946290841 1 1 1
2157 9 1 0 5.243761772947961 12.892775178887893 5.232215866410277 1 1 1
2725 12 1 0 7.546124604686614 15.822658602323646 5.661022143694911 1 0 1
2724 12 1 0 7.9147986734035145 16.499677229169908 4.316334084503064 1 0 1
2729 12 1 0 7.364815092299081 14.191408566439291 9.868018348208953 1 0 1
2156 9 1 0 6.411509496530183 12.162467208051265 4.617701615463029 1 1 1
2159 9 1 0 3.511566263157606 13.175944789997915 7.025795882405586 1 1 1
2730 12 1 0 6.397053884824208 14.872283720061507 10.728296157204685 1 0 1
2155 9 1 0 6.424236972614784 12.460511774484104 3.0702889033853094 1 1 1
2154 9 1 0 7.695369352343952 11.93591506279096 53.04787321213979 1 1 0
2731 12 1 0 6.853325316274557 16.321835786714573 11.068961972860867 1 0 1
1230 6 1 0 14.43431434471674 12.103828147678241 7.725327640435898 1 1 0
1236 6 1 0 10.79444623271066 18.39595971116047 7.009171458906872 1 1 0
1235 6 1 0 11.553129092447717 17.347015818178157 6.194239481874298 1 1 0
1231 6 1 0 14.66136017723919 13.327360550287418 6.854906899867324 1 1 0
1232 6 1 0 13.797931148863736 14.419526142679354 7.271691054262051 1 1 0
1234 6 1 0 12.55913166479573 16.548520295441023 7.064244612273087 1 1 0
1233 6 1 0 13.344004363324185 15.452917186865735 6.250832808832142 1 1 0
2997 13 1 0 17.524299098595254 16.98342167173581 4.2182146521912625 0 1 1
2998 13 1 0 16.36327716539911 17.97650214000597 4.4459780011167345 0 1 1
2996 13 1 0 16.95444253126129 15.69990072442245 3.589971435977532 0 1 1
355 2 1 0 14.795958478547112 11.143813692559387 3.6097617490659792 0 0 0
1768 8 1 0 18.97401293754135 15.428251616517503 7.070132039568837 0 0 1
1767 8 1 0 18.397826952357125 16.637054836680825 7.748836101656761 0 0 1
356 2 1 0 13.66017809430325 11.578438981397383 2.688399145506396 0 0 0
357 2 1 0 12.89908988160359 12.787319096883056 3.2919155383747447 0 0 0
358 2 1 0 11.604505351197648 13.252597503297546 2.6520675597846237 0 0 0
359 2 1 0 11.237991585818389 14.725399204912007 2.8807785069882073 0 0 0
360 2 1 0 12.0680282308175 15.74267304933131 52.9198920839369 0 0 -1
1765 8 1 0 18.838176067747167 19.14984757072331 8.384512724620055 0 0 1
352 2 1 0 18.04523629328486 11.482359842446442 3.709268381963673 0 0 0
1769 8 1 0 19.073054162687654 14.171707138230678 8.042481973895514 0 0 1
1766 8 1 0 19.368074392395386 17.730129552786924 8.248228045897994 0 0 1
1771 8 1 0 19.498067906526217 11.66694958690531 8.057139174398728 0 0 1
1770 8 1 0 19.76434897339387 12.901593223485516 7.284278874867821 0 0 1
1279 6 1 0 24.064546128124466 12.321771864258364 7.486771461011513 0 1 0
1280 6 1 0 24.26066633892312 13.093525848754078 6.123634058142137 0 1 0
1281 6 1 0 23.116370767896576 14.115200392803386 5.982703577394947 0 1 0
1282 6 1 0 23.07361371359661 15.059776361357054 4.77767535886103 0 1 0
1283 6 1 0 22.017622775403368 16.163177772419893 4.756692882128643 0 1 0
1284 6 1 0 22.37278477383085 17.44658190867687 5.550011986795065 0 1 0
1285 6 1 0 23.74280611177905 18.112471984693002 5.245720088506305 0 1 0
1278 6 1 0 24.9669438056729 11.135284102161942 7.659905487752819 0 1 0
1277 6 1 0 26.428202585628593 11.484919636862735 7.947693046745322 0 1 0
1943 9 1 0 27.051327479013583 16.44317779028303 6.145111028878048 1 0 1
1945 9 1 0 26.355357618708062 16.641455323955782 8.671488437546934 1 0 1
1939 9 1 0 27.861558399605617 13.949645504247304 53.17166049828896 1 0 0
1276 6 1 0 27.493024698882024 10.326615406772792 8.164343077136875 0 1 0
1275 6 1 0 28.81157990677669 10.863620977032005 8.70346491711756 0 1 0
1942 9 1 0 27.868577693455233 16.97380770060863 5.007686714987249 1 0 1
1940 9 1 0 28.241436195009314 14.957182951308226 3.531230469314214 1 0 1
1944 9 1 0 27.177265161020706 17.211981022673204 7.494536003265528 1 0 1
1274 6 1 0 29.591454959190617 11.458850830917456 7.5094628498221 0 1 0
1941 9 1 0 27.57694966410559 16.335621257267753 3.601510469923997 1 0 1
1273 6 1 0 29.649274986729942 10.62478395374208 6.201308611154864 0 1 0
1272 6 1 0 30.483058694854275 11.322646390992553 5.084434327560274 0 1 0
2186 10 1 0 31.092542831541945 16.077924866525034 8.448590386393418 0 0 0
1271 6 1 0 31.76933054003774 11.909070991505958 5.660403612967771 0 1 0
1270 6 1 0 32.48228876892003 12.782426407891217 4.722327188804691 0 1 0
2185 10 1 0 32.103591362510585 15.174776590559992 9.143580038371933 0 0 0
1267 6 1 0 33.252870967624894 15.5963664780127 4.1267258182174675 0 1 0
1269 6 1 0 33.67977442899295 13.54314717004618 5.3615943055344015 0 1 0
2187 10 1 0 31.83510071406116 17.442606295025833 8.04353887794057 0 0 0
1268 6 1 0 34.35975988419335 14.510693849218004 4.333393207668019 0 1 0
2184 10 1 0 31.57741304594887 14.080629553411836 10.089863434477028 0 0 0
907 4 1 0 32.70326860927288 9.552093465044383 51.991827654791834 0 -1 -2
1665 7 1 0 38.12332779747551 10.077551862223835 5.407864574661291 0 0 -1
1667 7 1 0 40.45529378040548 9.54674087412075 6.308028426996202 0 0 -1
1666 7 1 0 39.56646423044249 10.530417826029165 5.52369454850596 0 0 -1
1668 7 1 0 41.76214698569727 10.076865407115786 6.836254393783076 0 0 -1
3613 15 1 0 36.09432304161365 11.556495739739814 9.267192754335356 0 1 -1
3614 15 1 0 35.956304958546085 12.644864602713898 8.217421346865844 0 1 -1
3618 15 1 0 36.14292991493821 17.853418229202347 7.80692692112687 0 1 -1
3616 15 1 0 36.18191609728491 15.222377017979255 7.845185575035558 0 1 -1
3617 15 1 0 36.75951089753451 16.56471405544346 8.418293101994815 0 1 -1
3615 15 1 0 36.342495955278 14.009996191857226 8.711158276602351 0 1 -1
896 4 1 0 40.507002828382426 15.316269700806453 5.084101608004312 0 -1 -1
895 4 1 0 41.39210215609704 15.7269025196626 6.247685819080504 0 -1 -1
897 4 1 0 39.040858381574 15.194277715115005 5.31968280060247 0 -1 -1
254 2 1 0 40.82118096126224 12.449914486586147 9.47648631222427 0 0 0
894 4 1 0 42.880398238819254 15.714709527117227 5.86416422929226 0 -1 -1
255 2 1 0 40.30550190922757 13.893136297437609 9.47616647467115 0 0 0
898 4 1 0 38.06320730795038 14.903735303960572 4.127076248914229 0 -1 -1
2295 10 1 0 49.63450993122626 10.994225242727813 4.832292480820376 0 0 0
893 4 1 0 43.67068916148084 15.925771480018003 7.1824486831698895 0 -1 -1
1671 7 1 0 44.70929090224294 10.911014849048255 7.266821094080743 0 0 -1
3516 15 1 0 48.98680712022471 10.600491309830819 9.392904382270615 0 1 0
1669 7 1 0 42.54753747869137 10.963483839806173 5.851506922615094 0 0 -1
1670 7 1 0 43.75201897709306 11.688290585047781 6.372147347410812 0 0 -1
2296 10 1 0 48.99159388278849 12.069699360211844 5.639307446984894 0 0 0
891 4 1 0 45.337066030787085 17.480304262661853 6.02290052494614 0 -1 -1
892 4 1 0 45.15460408252741 16.25861010141617 6.957906119272905 0 -1 -1
2301 10 1 0 49.7075295009339 17.795706819159655 8.40899796674601 0 0 0
2297 10 1 0 49.70544222760891 13.371715364185528 5.572767159387988 0 0 0
2298 10 1 0 49.216573746995195 14.325583425190532 6.64146428627621 0 0 0
2299 10 1 0 49.913583794011515 15.647217039630657 6.849125777269795 0 0 0
2300 10 1 0 49.13601517671687 16.44686271928746 7.929807252745887 0 0 0
3517 15 1 0 49.05955806609526 11.9003060103869 10.251191154920917 0 1 0
3518 15 1 0 47.808190082920376 12.799709545577171 10.395276633735705 0 1 0
2302 10 1 0 48.94060879682547 18.310701604885857 9.563284482265296 0 0 0
3519 15 1 0 47.96894938790612 14.100846497608746 11.25603150339601 0 1 0
4835 20 1 0 46.218689387437124 13.537275795272636 3.3083147358774614 1 1 1
3145 13 2 0 4.036704164626352 17.32335232559423 6.345589651645156 1 1 1
2906 13 1 0 2.919351384564122 17.39434891077196 4.069665820981119 1 1 1
2905 13 1 0 3.3865716655740448 16.527025426443707 5.206756848883163 1 1 1
2907 13 1 0 2.738217790894641 16.613175476706097 2.7721336574266076 1 1 1
2160 9 1 0 2.9418069891711345 12.685613896442 8.355972682227959 1 1 1
2161 9 1 0 52.62589448222009 13.585674604616289 8.958838245421246 0 1 1
2162 9 1 0 53.041109484113036 15.024889027148872 9.465885138658399 0 1 1
2908 13 1 0 52.48743431419835 15.513756104681983 2.9246175372383125 0 1 1
1238 6 1 0 9.336754232333103 20.642269552838563 6.955868364548325 1 1 0
1239 6 1 0 8.37494429040154 21.572681283973267 6.170699432624244 1 1 0
1241 6 1 0 6.3356349874568005 21.815138170620035 4.739574652845086 1 1 0
1242 6 1 0 4.952674595827554 21.20651776130012 4.568332453987873 1 1 0
1243 6 1 0 4.142343555860089 22.028112325889282 3.587774964071465 1 1 0
1244 6 1 0 2.6432302676057415 21.66271634735096 3.884247264700659 1 1 0
1240 6 1 0 7.078896743728859 20.869024337579166 5.759110390772326 1 1 0
1811 8 1 0 8.7060214401505 26.94933632192991 6.197762828383368 0 0 1
2738 12 1 0 3.0741094327668863 21.82096708202214 9.95201061162288 1 0 1
1245 6 1 0 52.53076065340527 22.22054595290186 2.70323980153778 0 1 0
3006 13 1 0 9.447491413323224 23.285688596283176 2.6163424540637132 0 1 1
3005 13 1 0 10.695574453451266 22.540850060497355 53.12333022462251 0 1 0
2739 12 1 0 52.3747280674508 21.8694512210698 9.56488697788992 0 0 1
1246 6 1 0 52.53994120712848 21.50647007914649 52.123745565515364 0 1 -1
1237 6 1 0 9.9806242461853 19.449713028361128 6.235009640750748 1 1 0
3004 13 1 0 11.535641333075942 22.442412151194535 3.5496730184139595 0 1 1
1803 8 1 0 14.148262223643954 20.5710307003492 10.047591041874359 0 0 1
2999 13 1 0 16.683724035517425 19.128633611462853 5.412433584212842 0 1 1
1809 8 1 0 11.137218504213063 26.330856927051155 5.784816530495607 0 0 1
1808 8 1 0 10.849293393845418 24.957910875661035 6.546996031942882 0 0 1
3000 13 1 0 15.460620079020526 20.05112920755473 5.748794359231441 0 1 1
1807 8 1 0 11.952511379828834 24.601144138787117 7.579055293903928 0 0 1
3002 13 1 0 13.586541001451165 21.527183535699777 4.736702977282757 0 1 1
3001 13 1 0 14.893993645899835 20.714425387320894 4.518144712606631 0 1 1
1760 8 1 0 16.97082092511668 23.828461284592237 6.891122530869877 0 0 1
1761 8 1 0 17.68952378861862 23.377948224446044 8.15536405112839 0 0 1
1759 8 1 0 16.08492657988384 25.11393542989077 7.225038457695526 0 0 1
1805 8 1 0 13.168587565197132 22.513479539202077 8.85196636089725 0 0 1
1806 8 1 0 11.803457020752637 23.172282140580823 8.26019306701686 0 0 1
1758 8 1 0 15.538113997457133 25.829926370760198 6.025714564995388 0 0 1
3003 13 1 0 12.82403321336854 21.627303719264063 3.45366095438565 0 1 1
1762 8 1 0 18.225120089135103 21.936728309167435 7.96486076673683 0 0 1
1804 8 1 0 12.970200668126692 21.129226452055725 9.294715729352253 0 0 1
1763 8 1 0 19.431474064048775 21.605986400215052 8.927908098279673 0 0 1
1757 8 1 0 14.924786285170734 27.20308372633842 6.110398088713366 0 0 1
1802 8 1 0 14.268839836926702 19.06500684398524 9.68529999412931 0 0 1
337 2 1 0 16.91002368368226 24.932813294616096 53.03013445150306 0 0 -1
1286 6 1 0 23.930995761085555 19.450419616737676 6.013957773071876 0 1 0
4083 17 1 0 23.401109341530997 21.846966711727354 10.898254319932528 0 0 1
1764 8 1 0 19.962634510808687 20.206665057674133 8.58729696341198 0 0 1
1287 6 1 0 22.721858361942736 20.29298479931821 5.980255404734711 0 1 0
1288 6 1 0 22.86198661816853 21.713855841221136 6.512855173543182 0 1 0
1289 6 1 0 21.624953721953695 22.57771312421733 6.033231596035739 0 1 0
1290 6 1 0 21.672051308115893 24.09472669815643 6.575991596519148 0 1 0
1291 6 1 0 23.007068175221356 24.853503072243143 6.406544429235588 0 1 0
1292 6 1 0 23.366312641279254 25.100067311920725 4.944692910101686 0 1 0
4081 17 1 0 22.161601066078326 24.160183268041553 10.752142073167153 0 0 1
4079 17 1 0 21.24926897236147 26.636655764295764 10.763977116649945 0 0 1
4082 17 1 0 22.287800478836072 22.819858424772843 11.480101432451212 0 0 1
4080 17 1 0 21.31633185762999 25.275540719095616 11.398041887331821 0 0 1
1294 6 1 0 25.942199161918772 25.44948733333909 5.888000030457627 0 1 0
4078 17 1 0 22.61235318646156 27.420545961126713 10.641499984961554 0 0 1
1293 6 1 0 24.704506846690727 25.939901446793563 5.019689640646915 0 1 0
3542 15 1 0 26.52262601482246 21.39151186034739 4.430491043292619 0 1 0
1295 6 1 0 27.29407569473702 26.176187537848968 5.9584342833860315 0 1 0
3543 15 1 0 26.89515638780741 20.976829627846314 2.974433922049641 0 1 0
4084 17 1 0 23.29668930878455 20.40806900213505 11.497483689611983 0 0 1
1265 6 1 0 32.70221237475633 17.983530177431565 3.1692282546249584 0 1 0
1266 6 1 0 33.59456085888176 16.723486922636564 3.0781615358047882 0 1 0
2188 10 1 0 31.2192216927871 18.464865694482228 7.07434640979333 0 0 0
3540 15 1 0 27.350296413290078 21.415803390170034 6.9577327582077695 0 1 0
3539 15 1 0 28.54393402523868 21.090235934339002 7.869939891983808 0 1 0
3538 15 1 0 28.224013809228836 21.561116615248746 9.307384950782518 0 1 0
1296 6 1 0 28.465381630938264 25.308826765019784 6.513084328698318 0 1 0
1298 6 1 0 30.877784680959714 25.218140478233053 7.249559763176231 0 1 0
1299 6 1 0 32.19364360998479 25.858001389397614 7.658200721821068 0 1 0
3541 15 1 0 27.64234182226332 21.07445066231602 5.440122170899318 0 1 0
2189 10 1 0 32.04707139761517 19.665238029879475 6.479961978048355 0 0 0
2191 10 1 0 32.0557709277265 21.874176027952387 5.152034454450398 0 0 0
2190 10 1 0 31.40513346071128 20.49405195463091 5.38159998788956 0 0 0
1300 6 1 0 33.466324341555804 24.920368369932014 7.793257082949695 0 1 0
2192 10 1 0 31.305354965806572 22.815613223996245 4.2183680960609635 0 0 0
2194 10 1 0 31.109397274685865 25.10845178107019 3.1960364881340917 0 0 0
2193 10 1 0 32.09583898143178 24.08232973531566 3.7014297576712796 0 0 0
1297 6 1 0 29.762141642554507 26.1011978925384 6.752959325312998 0 1 0
1301 6 1 0 34.786645049398786 25.71752234810101 8.169904388376295 0 1 0
3536 15 1 0 30.65597931302808 22.140882958768003 10.006421916794729 0 1 0
3534 15 1 0 33.20369392998909 22.302904897728276 10.538313629966042 0 1 0
3537 15 1 0 29.390517876065008 21.244056188031507 10.220536705734222 0 1 0
3619 15 1 0 36.35354432844086 18.020258777792897 6.374762396501163 0 1 -1
3620 15 1 0 35.908560242899824 19.341011949124553 5.8926153574421605 0 1 -1
3527 15 1 0 41.3529016089912 19.057905299706654 8.678301793602081 0 1 0
1302 6 1 0 36.03452062702786 24.825460044816868 8.17972941513053 0 1 0
1303 6 1 0 36.3320470908952 24.32301664597549 6.818867318760497 0 1 0
1304 6 1 0 36.564502766553005 25.400055881075037 5.764401454320603 0 1 0
3621 15 1 0 36.959250844813965 20.48340316245905 5.993234323298215 0 1 -1
1305 6 1 0 36.57402079352717 24.918315062829922 4.350564070417304 0 1 0
1306 6 1 0 37.41721807545346 25.853379631431032 3.4338860629852856 0 1 0
3528 15 1 0 40.21286939260209 20.134132123166896 8.520571930474553 0 1 0
3622 15 1 0 38.17646829605944 20.41274707589129 4.970220150996772 0 1 -1
3623 15 1 0 39.239481074057196 21.50242816483839 5.098340490814511 0 1 -1
3529 15 1 0 39.163537738313934 19.884671400975055 9.6538566971556 0 1 0
3530 15 1 0 37.85686657801497 20.68843765235477 9.506078642256067 0 1 0
3626 15 1 0 41.18341947070272 23.524932282743823 4.139272228037996 0 1 -1
3624 15 1 0 40.45478222968738 21.014083305444803 4.268137073028104 0 1 -1
3627 15 1 0 42.35407286397738 24.410779336799887 3.9463543809459867 0 1 -1
3628 15 1 0 42.113637936958256 25.916906740944615 3.477336903594367 0 1 -1
3625 15 1 0 41.60741208137226 22.05038401793223 4.4120275237600834 0 1 -1
881 4 1 0 40.553878072220954 26.802127473878013 8.02221755519663 0 -1 -1
1308 6 1 0 36.09890941413806 25.804199576363267 51.93108965802351 0 1 -1
1307 6 1 0 37.369524587199166 25.455922242586077 52.63684869183511 0 1 -1
3532 15 1 0 35.791700201793944 21.917283787456046 10.318662655607467 0 1 0
1263 6 1 0 34.738045384583245 19.406703078136044 53.07919199160101 0 1 -1
890 4 1 0 45.02746423709239 18.904187630523108 6.600443867547819 0 -1 -1
883 4 1 0 42.56567511612113 25.39182923462486 8.009339996575374 0 -1 -1
889 4 1 0 45.76043897891121 19.19268518357618 7.910664930805124 0 -1 -1
2303 10 1 0 49.158345303030615 19.774096954324392 10.010953330674884 0 0 0
884 4 1 0 44.06781246148452 25.326593717067563 8.356660699751764 0 -1 -1
885 4 1 0 44.848730703554764 24.146202776542207 7.841685377965323 0 -1 -1
886 4 1 0 44.527575374256045 22.815595260081434 8.551690435336926 0 -1 -1
887 4 1 0 45.36772002465389 21.653160298094758 7.841710987724981 0 -1 -1
888 4 1 0 45.19234198743652 20.386899403563344 8.653912344052724 0 -1 -1
127 1 1 0 48.87954715166914 23.722484803003066 5.024128457048379 -1 0 0
125 1 1 0 46.68090889219326 24.702046368502117 4.875184303161797 -1 0 0
126 1 1 0 47.61915221208518 23.716924428917583 4.223094810986879 -1 0 0
2743 12 1 0 49.067214028101816 25.552225862856677 8.521109367645163 0 0 1
129 1 1 0 49.47715094059188 21.272379302767416 5.398586255169312 -1 0 0
128 1 1 0 49.79504737463871 22.550879761790554 4.634649041764785 -1 0 0
130 1 1 0 50.17674221843164 20.01738530821952 4.898734395806744 -1 0 0
132 1 1 0 48.031735362809385 19.261128349682934 3.8528013164325325 -1 0 0
131 1 1 0 49.548003959068765 19.416409313799473 3.6810690973727676 -1 0 0
2742 12 1 0 50.5070265478538 25.23702505278569 8.867965876553807 0 0 1
2741 12 1 0 50.552264566076175 23.721641306029003 9.017010467192549 0 0 1
2740 12 1 0 51.9109073350088 23.361816652179424 9.684988919174558 0 0 1
1810 8 1 0 9.839971957345131 26.954491731540323 5.2420515302538835 0 0 1
1812 8 1 0 7.373983735784572 27.62753664465462 5.704454602426383 0 0 1
1075 5 1 0 4.382703118421865 25.370043196724485 8.271928510167825 1 0 0
1074 5 1 0 5.639224203798921 25.82485608254316 9.038788545253041 1 0 0
1076 5 1 0 4.326797885962183 25.85198531342203 6.818940262949746 1 0 0
1813 8 1 0 7.506344541282013 29.06846195102154 5.2833795008905104 0 0 1
1814 8 1 0 6.341985371126004 29.609098901043687 4.393797202078745 0 0 1
1815 8 1 0 6.3620896879683215 28.724351044231117 3.132405575740542 0 0 1
2028 9 1 0 9.197146615502968 32.35868667900387 6.351879754467369 1 0 1
1550 7 1 0 3.465392337117949 32.360748232826005 7.078492509678186 0 -1 0
2029 9 1 0 8.567900647844613 33.73242056594442 5.991788812491197 1 0 1
1551 7 1 0 2.765243024975886 31.223977710643535 7.882638184801546 0 -1 0
1552 7 1 0 3.034807377918863 29.893762966824603 7.187506017843617 0 -1 0
1553 7 1 0 2.62695690885423 29.81714376097445 5.690258223383564 0 -1 0
1077 5 1 0 3.1909180004943773 25.335194972740172 5.909762869194212 1 0 0
2030 9 1 0 7.417672655088956 33.78664321882292 4.933982746519968 1 0 1
1078 5 1 0 3.18259715871826 26.08390585216583 4.523997287581791 1 0 0
1501 7 1 0 8.351280024515795 32.07668091223724 10.264002629803818 0 0 0
1503 7 1 0 8.822136931279115 29.651062561199286 10.32277277963179 0 0 0
1502 7 1 0 7.9430545348988435 30.755634767818126 10.932435829474452 0 0 0
2027 9 1 0 10.46307155534987 32.32753870686686 7.266303294872577 1 0 1
2026 9 1 0 11.170277291883108 30.960559402400946 7.361652705725447 1 0 1
1753 8 1 0 11.872678598912053 30.639698512225163 3.7947862112522 0 0 1
1756 8 1 0 14.319219958903533 27.71774771899104 4.774693859426529 0 0 1
2022 9 1 0 14.725681815611212 28.144167247927864 10.05420250889046 1 0 1
2023 9 1 0 14.21508603702787 29.631518307966818 9.757145051803793 1 0 1
1754 8 1 0 12.630825070198211 29.339070363394047 3.7420720671644556 0 0 1
1755 8 1 0 13.532209871724518 29.06856764988696 4.8804492225080445 0 0 1
1874 8 1 0 17.658753465451845 32.81168803505071 5.089874006984748 0 0 1
1875 8 1 0 16.441622394833868 32.05664953396156 5.155239059917972 0 0 1
1876 8 1 0 15.372204214122625 32.82498175196887 4.380812504466712 0 0 1
2025 9 1 0 12.445288709384155 30.902591957178764 8.341820086770154 1 0 1
2024 9 1 0 12.960475421066828 29.535798873898425 8.808489079318768 1 0 1
328 2 1 0 18.083181349309296 29.3117169203121 9.548517039185349 0 0 0
1873 8 1 0 18.851393001738046 32.167763678115136 5.830930647365857 0 0 1