units real
atom_style full
boundary p p p

# --- Force Field Styles ---
pair_style lj/cut 14.0
dielectric 1.000000
bond_style harmonic
angle_style harmonic
dihedral_style multi/harmonic
improper_style none
special_bonds lj 0 0 0
pair_modify mix arithmetic tail yes
neighbor 2.0 bin
neigh_modify delay 0 every 1 check yes
neigh_modify one 4000
package gpu 1 neigh yes

read_data /home/arz2/PolyJarvis/data/PE2/lammps/equil/nvt_production/nvt_production_out.data
Reading data file ...
  orthogonal box = (2.4441005 2.4441005 2.4441005) to (53.334272 53.334272 53.334272)
  1 by 1 by 1 MPI processor grid
  reading atoms ...
  4840 atoms
  reading velocities ...
  4840 velocities
  scanning bonds ...
  2 = max bonds/atom
  scanning angles ...
  1 = max angles/atom
  scanning dihedrals ...
  2 = max dihedrals/atom
  orthogonal box = (2.4441005 2.4441005 2.4441005) to (53.334272 53.334272 53.334272)
  1 by 1 by 1 MPI processor grid
  reading bonds ...
  4820 bonds
  reading angles ...
  4800 angles
  reading dihedrals ...
  4780 dihedrals
Finding 1-2 1-3 1-4 neighbors ...
  special bond factors lj:    0        0        0       
  special bond factors coul:  0        0        0       
     2 = max # of 1-2 neighbors
     2 = max # of 1-3 neighbors
     4 = max # of 1-4 neighbors
     6 = max # of special neighbors
  special bonds CPU = 0.001 seconds
  read_data CPU = 0.063 seconds
include /home/arz2/PolyJarvis/data/PE2/lammps/equil/emc_build.params
# LAMMPS parameters created by EMC v9.4.4, build Jul 31 2025 20:33:44

# Variables

variable	seed		index	1004
variable	ntotal		index	4840
variable	fshape		index	1
variable	output		index	emc_build
variable	field		index	trappe/2014/trappe-ua
variable	location1	index	/home/arz2/emc/field/
variable	nav		index	0.6022141179
variable	temperature	index	300
variable	radius		index	5
variable	nrelax		index	100
variable	weight_nonbond	index	0.0001
variable	weight_bond	index	0.0001
variable	weight_focus	index	1
variable	cutoff		index	14
variable	charge_cutoff	index	14
variable	kappa		index	4
variable	density1	index	0.65
variable	lprevious	index	0
variable	lphase		index	55.7783720511
variable	f_poly		index	20
variable	chem_repeat	index	*CC*
variable	chem_cap	index	*C
variable	lg_repeat	index	2
variable	lg_cap		index	1
variable	norm_poly	index	100
variable	l_poly		index	242
variable	mg_repeat	index	28.0536
variable	mg_cap		index	15.0347
variable	m_poly		index	3396.5014
variable	n_poly		index	20
variable	mtotal		index	67930.028
variable	nphase1		index	4840
variable	mphase1		index	67930.028
variable	vphase1		index	173539.165354
variable	lbox		index	55.7783720511
variable	lphase1		index	55.7783720511
variable	lxx		index	55.7783720511
variable	lyy		index	55.7783720511
variable	lzz		index	55.7783720511
variable	lzy		index	0
variable	lzx		index	0
variable	lyx		index	0
variable	vtotal		index	173539.165354
variable	nl_poly		index	20

# Types

variable	type_c4h2	index	1
variable	type_c4h3	index	2

variable	type_bond_c4h2_c4h2 index	1
variable	type_bond_c4h2_c4h3 index	2

variable	type_angle_c4h2_c4h2_c4h2 index	1
variable	type_angle_c4h2_c4h2_c4h3 index	2

# Clusters

variable	n0_poly		index	1
variable	n1_poly		index	20
variable	nl_poly		index	20

# Flags

variable	flag_charged	index	0

# Masses

mass		1    14.02680  # c4h2
mass		2    15.03470  # c4h3

# Potentials

pair_modify	mix arithmetic tail yes
special_bonds	lj 0 0 0 coul 0 0 0.5
Finding 1-2 1-3 1-4 neighbors ...
  special bond factors lj:    0        0        0       
  special bond factors coul:  0        0        0.5     
     2 = max # of 1-2 neighbors
     2 = max # of 1-3 neighbors
     4 = max # of 1-4 neighbors
     6 = max # of special neighbors
  special bonds CPU = 0.001 seconds

# Pair Coeffs

pair_coeff	1 1    0.09141    3.95000  # c4h2,c4h2
pair_coeff	2 2    0.19475    3.75000  # c4h3,c4h3

# Bond Coeffs

bond_coeff	1  260.00013    1.54000  # c4h2,c4h2
bond_coeff	2  260.00013    1.54000  # c4h2,c4h3

# Angle Coeffs

angle_coeff	1   62.10020  114.00000  # c4h2,c4h2,c4h2
angle_coeff	2   62.10020  114.00000  # c4h2,c4h2,c4h3

# Dihedral Coeffs

dihedral_coeff	1    2.00702   -4.01203    0.27102    6.29006    0.00000  # c4h2,c4h2,c4h2,c4h2
dihedral_coeff	2    2.00702   -4.01203    0.27102    6.29006    0.00000  # c4h2,c4h2,c4h2,c4h3


# --- Thermo Output ---
thermo_style custom step time temp press enthalpy etotal ke pe ebond eangle edihed eimp evdwl ecoul elong etail vol lx ly lz density pxx pyy pzz
thermo_modify flush yes
thermo 1000

# --- Trajectory ---
dump dump_npt all custom 1000 npt_production.dump id type mol x y z ix iy iz vx vy vz

# --- Restart Checkpointing ---
# No restart checkpointing

# --- Initial Velocities (optional) ---
# Velocities read from data file

# --- SHAKE Constraints ---
# SHAKE disabled

# --- NPT Thermostat + Barostat (Nose-Hoover) ---
# T_damp = 100.0 fs  (heat bath coupling)
# P_damp = 1000.0 fs  (pressure bath coupling, ~10x T_damp typical)
# Ramp: T=300.0->300.0K  P=1.0->1.0atm
timestep 2.0
fix npt_fix all npt temp 300.0 300.0 100.0 iso 1.0 1.0 1000.0

run 5000000

CITE-CITE-CITE-CITE-CITE-CITE-CITE-CITE-CITE-CITE-CITE-CITE-CITE

Your simulation uses code contributions which should be cited:

- GPU package (short-range, long-range and three-body potentials): doi:10.1016/j.cpc.2010.12.021, doi:10.1016/j.cpc.2011.10.012, doi:10.1016/j.cpc.2013.08.002, doi:10.1016/j.commatsci.2014.10.068, doi:10.1016/j.cpc.2016.10.020, doi:10.3233/APC200086

@Article{Brown11,
 author = {W. M. Brown and P. Wang and S. J. Plimpton and A. N. Tharrington},
 title = {Implementing Molecular Dynamics on Hybrid High Performance Computers---Short Range Forces},
 journal = {Comput.\ Phys.\ Commun.},
 year =    2011,
 volume =  182,
 pages =   {898--911},
 doi =     {10.1016/j.cpc.2010.12.021}
}

@Article{Brown12,
 author = {W. M. Brown and A. Kohlmeyer and S. J. Plimpton and A. N. Tharrington},
 title = {Implementing Molecular Dynamics on Hybrid High Performance Computers - Particle-Particle Particle-Mesh},
 journal = {Comput.\ Phys.\ Commun.},
 year =    2012,
 volume =  183,
 doi =     {10.1016/j.cpc.2011.10.012},
 pages =   {449--459}
}

@Article{Brown13,
 author = {W. M. Brown and Y. Masako},
 title = {Implementing Molecular Dynamics on Hybrid High Performance Computers---Three-Body Potentials},
 journal = {Comput.\ Phys.\ Commun.},
 year =    2013,
 volume =  184,
 pages =   {2785--2793},
 doi =     {10.1016/j.cpc.2013.08.002},
}

@Article{Trung15,
 author = {T. D. Nguyen and S. J. Plimpton},
 title = {Accelerating Dissipative Particle Dynamics Simulations for Soft Matter Systems},
 journal = {Comput.\ Mater.\ Sci.},
 year =    2015,
 doi =     {10.1016/j.commatsci.2014.10.068},
 volume =  100,
 pages =   {173--180}
}

@Article{Trung17,
 author = {T. D. Nguyen},
 title = {{GPU}-Accelerated {T}ersoff Potentials for Massively Parallel
    Molecular Dynamics Simulations},
 journal = {Comput.\ Phys.\ Commun.},
 year =    2017,
 doi =     {10.1016/j.cpc.2016.10.020},
 volume =  212,
 pages =   {113--122}
}

@inproceedings{Nikolskiy19,
 author = {V. Nikolskiy and V. Stegailov},
 title = {{GPU} Acceleration of Four-Site Water Models in {LAMMPS}},
 booktitle = {Proceedings of the International Conference on Parallel
    Computing (ParCo 2019), Prague, Czech Republic},
 doi =     {10.3233/APC200086},
 year =    2019
}

CITE-CITE-CITE-CITE-CITE-CITE-CITE-CITE-CITE-CITE-CITE-CITE-CITE

Generated 1 of 1 mixed pair_coeff terms from arithmetic mixing rule
Per MPI rank memory allocation (min/avg/max) = 15.02 | 15.02 | 15.02 Mbytes
   Step          Time           Temp          Press         Enthalpy        TotEng         KinEng         PotEng         E_bond        E_angle        E_dihed        E_impro         E_vdwl         E_coul         E_long         E_tail         Volume           Lx             Ly             Lz          Density          Pxx            Pyy            Pzz      
         0   0              302.82233     -559.12409      3199.7804      4274.4769      4367.9517     -93.474748      1411.8937      1458.2684      2679.4415      0             -5643.0783      0              0             -189.16035      131795.85      50.890171      50.890171      50.890171      0.85587259    -774.06795     -826.04476     -77.259575    
      1000   2000           305.50335     -268.80336      3824.2008      4338.9372      4406.623      -67.685824      1417.2724      1490.7338      2698.0897      0             -5673.7817      0              0             -189.87051      131302.9       50.826645      50.826645      50.826645      0.85908578    -824.8777       149.75782     -131.2902     
      2000   4000           298.58017      666.04603      5540.5249      4261.726       4306.7622     -45.036131      1468.5442      1416.9334      2747.9161      0             -5678.4298      0              0             -189.36938      131650.38      50.87144       50.87144       50.87144       0.85681834     202.82405      524.37791      1270.9361    
      3000   6000           306.0101       32.292455      4531.321       4469.4868      4413.9325      55.554311      1484.7845      1502.4937      2758.0655      0             -5689.7893      0              0             -189.88049      131296.01      50.825755      50.825755      50.825755      0.8591309      67.532205     -92.868876      122.21404    
      4000   8000           300.59103     -111.71027      4016.9775      4230.9893      4335.767      -104.77767      1458.612       1402.352       2704.8986      0             -5670.6402      0              0             -189.78551      131361.71      50.834232      50.834232      50.834232      0.85870117     39.808065     -403.94553      29.006665    
      5000   10000          301.89228      97.571491      4456.2608      4269.5759      4354.5364     -84.960474      1429.756       1468.5103      2723.6861      0             -5706.9128      0              0             -190.02977      131192.86      50.812442      50.812442      50.812442      0.85980636     109.94503      18.995793      163.77365    
      6000   12000          295.56876     -328.49517      3579.938       4208.5489      4263.3251     -54.776125      1440.6992      1455.3618      2721.7819      0             -5672.619       0              0             -190.00053      131213.05      50.815049      50.815049      50.815049      0.85967405    -236.23993     -568.47569     -180.7699     
      7000   14000          305.96331     -571.37182      3365.1563      4461.6921      4413.2575      48.434618      1478.7692      1504.7014      2755.6486      0             -5690.6846      0              0             -189.45398      131591.59      50.863867      50.863867      50.863867      0.85720112    -155.45987     -838.58191     -720.07369    
      8000   16000          297.19923     -497.21805      3248.6429      4201.5749      4286.8432     -85.268347      1390.7897      1482.7815      2749.6878      0             -5708.5273      0              0             -189.71109      131413.24      50.840878      50.840878      50.840878      0.85836445    -978.38421     -141.95273     -371.3172     
      9000   18000          299.15341      889.07853      5898.2255      4197.6133      4315.0307     -117.41739      1438.2298      1449.7835      2667.1714      0             -5672.6022      0              0             -190.08269      131156.34      50.807727      50.807727      50.807727      0.86004578     1044.679       622.73376      999.82286    
     10000   20000          297.76326     -500.58891      3258.5718      4217.2284      4294.9789     -77.750541      1465.0499      1458.6984      2709.2         0             -5710.6988      0              0             -189.85668      131312.47      50.827879      50.827879      50.827879      0.85902317    -966.63706     -432.24356     -102.88609    
     11000   22000          296.13091      184.16613      4526.2968      4175.7684      4271.4337     -95.665259      1430.2265      1440.5944      2741.3732      0             -5707.8594      0              0             -191.02682      130508.11      50.723884      50.723884      50.723884      0.86431756     13.269096      224.74611      314.48317    
     12000   24000          300.88957      291.14807      4873.4805      4316.0767      4340.0733     -23.996602      1431.8739      1456.995       2747.7001      0             -5660.5656      0              0             -189.9117       131274.42      50.82297       50.82297       50.82297       0.85927214     82.220628      421.13251      370.09107    
     13000   26000          306.08501      273.10036      4901.4726      4379.3378      4415.0129     -35.675158      1458.2833      1489.6181      2712.8129      0             -5696.3894      0              0             -190.17233      131094.52      50.799743      50.799743      50.799743      0.86045135     455.2471       351.98797      12.066017    
     14000   28000          299.01809     -531.14435      3207.9159      4230.1265      4313.0788     -82.952259      1444.1214      1509.5877      2663.2044      0             -5699.8657      0              0             -188.92087      131962.92      50.911665      50.911665      50.911665      0.85478903    -790.42721     -188.82827     -614.17756    
     15000   30000          298.9626      -38.152462      4177.7007      4250.8884      4312.2784     -61.389958      1407.6745      1503.2574      2732.904       0             -5705.2258      0              0             -189.53622      131534.48      50.856509      50.856509      50.856509      0.85757325    -114.42626     -199.90683      199.8757     
     16000   32000          305.54625      257.61718      4778.6339      4285.8101      4407.2419     -121.43181      1405.0412      1497.7321      2701.4616      0             -5725.6668      0              0             -190.06005      131171.96      50.809744      50.809744      50.809744      0.85994335     801.12926      202.52977     -230.80747    
     17000   34000          293.5863       934.06808      5853.7718      4071.8882      4234.7299     -162.84166      1398.7037      1421.7119      2737.3923      0             -5720.6497      0              0             -190.593        130805.17      50.76234       50.76234       50.76234       0.86235472     887.50277      682.05727      1232.6442    
     18000   36000          302.76165     -55.930637      4194.6266      4301.6741      4367.0763     -65.402221      1436.0712      1445.0243      2764.7982      0             -5711.2959      0              0             -189.96817      131235.4       50.817934      50.817934      50.817934      0.85952764    -120.04054     -316.48069      268.72932    
     19000   38000          301.69737      288.88092      4834.9479      4282.0395      4351.7251     -69.685532      1441.153       1436.8969      2736.3116      0             -5684.047       0              0             -189.96495      131237.63      50.818221      50.818221      50.818221      0.85951304     41.00558       419.07391      406.56328    
     20000   40000          306.65565      397.89817      5292.4374      4529.2626      4423.2439      106.01869      1515.1881      1496.5741      2767.3815      0             -5673.125       0              0             -189.56391      131515.27      50.854033      50.854033      50.854033      0.85769853     12.95335       857.85124      322.8899     
     21000   42000          299.89131     -64.724153      4060.8892      4184.4121      4325.6741     -141.26203      1453.9469      1411.2926      2705.7919      0             -5712.2933      0              0             -190.51386      130859.5       50.769368      50.769368      50.769368      0.86199666    -208.45052     -239.95578      254.23384    
     22000   44000          300.15788     -422.82971      3379.0209      4191.5899      4329.5192     -137.92935      1432.2076      1422.7772      2690.1735      0             -5683.0877      0              0             -189.19645      131770.71      50.886935      50.886935      50.886935      0.85603591    -228.25202     -354.96502     -685.27207    
     23000   46000          300.75243      56.526465      4327.2132      4219.0598      4338.0951     -119.03526      1463.0993      1471.1449      2653.3679      0             -5706.6473      0              0             -190.02887      131193.48      50.812523      50.812523      50.812523      0.85980227     36.890526      461.78865     -329.09978    
     24000   48000          300.15381      32.921788      4430.1049      4366.5556      4329.4605      37.09504       1485.9671      1521.6738      2680.7825      0             -5651.3283      0              0             -188.3562       132358.53      50.962491      50.962491      50.962491      0.85223413    -450.29146      585.7801      -36.723283    
     25000   50000          303.66835     -67.732791      4195.8934      4325.85        4380.1547     -54.304727      1464.6446      1448.8328      2716.335       0             -5684.1172      0              0             -189.49967      131559.85      50.859778      50.859778      50.859778      0.85740788     116.86761     -137.01717     -183.04882    
     26000   52000          302.90845     -65.42872       4064.4622      4190.0137      4369.1938     -179.18015      1408.4422      1422.1302      2668.124       0             -5677.8765      0              0             -189.47601      131576.29      50.861896      50.861896      50.861896      0.85730079    -339.68552     -33.028657      176.42802    
     27000   54000          296.26502     -454.67938      3309.5         4184.5722      4273.3681     -88.795885      1462.2276      1403.5133      2710.9675      0             -5665.5043      0              0             -188.91616      131966.21      50.912088      50.912088      50.912088      0.85476773    -1210.7916     -443.72952      290.48301    
     28000   56000          298.81289      134.33211      4510.9032      4252.0175      4310.1189     -58.10139       1468.9714      1391.5198      2723.9689      0             -5642.5615      0              0             -188.65984      132145.5       50.935135      50.935135      50.935135      0.85360798     32.13484       245.84893      125.01256    
     29000   58000          299.1601      -41.805487      4164.7604      4244.8863      4315.1272     -70.240892      1437.8339      1493.8296      2706.5964      0             -5708.5008      0              0             -189.70042      131420.63      50.841831      50.841831      50.841831      0.85831618     26.809316     -141.9403      -10.285479    
     30000   60000          304.80981      644.1147       5646.1997      4407.3053      4396.6194      10.685953      1475.1694      1451.3304      2741.1661      0             -5656.98        0              0             -189.03257      131884.94      50.901635      50.901635      50.901635      0.85529444     989.03881      126.67342      816.63187    
     31000   62000          297.68569      120.09365      4484.2575      4252.2912      4293.86       -41.568831      1499.3373      1438.5145      2664.1665      0             -5643.5871      0              0             -188.23608      132442.99      50.973329      50.973329      50.973329      0.85169063     271.43471      127.01454     -38.168307    
     32000   64000          296.17055     -178.28766      3903.719       4247.395       4272.0054     -24.610487      1506.7182      1420.7662      2703.0263      0             -5655.1212      0              0             -188.61659      132175.8       50.939028      50.939028      50.939028      0.85341231    -227.21592      235.25094     -542.898      
     33000   66000          297.20885      254.07292      4715.754       4226.5319      4286.9821     -60.450126      1459.8199      1482.8331      2688.4639      0             -5691.567       0              0             -188.82524      132029.75      50.920259      50.920259      50.920259      0.85435635     396.35435     -126.42626      492.29066    
     34000   68000          298.15552      251.2763       4736.906       4253.6386      4300.6369     -46.998332      1468.6441      1446.2856      2711.2387      0             -5673.1667      0              0             -189.04784      131874.29      50.900265      50.900265      50.900265      0.85536351     632.92002      306.11208     -185.20321    
     35000   70000          304.64606     -591.19085      3073.1658      4211.1283      4394.2574     -183.12911      1454.7761      1391.2257      2651.6266      0             -5680.7576      0              0             -188.88937      131984.93      50.914495      50.914495      50.914495      0.85464651    -127.36511     -671.16525     -975.04219    
     36000   72000          291.53554     -232.95154      3754.8822      4204.9466      4205.1493     -0.20276961     1507.9475      1464.9457      2658.1881      0             -5631.2841      0              0             -188.19091      132474.78      50.977406      50.977406      50.977406      0.85148627    -35.491584     -251.49301     -411.87003    
     37000   74000          299.28334      260.93505      4613.2758      4110.4967      4316.9047     -206.40803      1427.8428      1397.0361      2608.6627      0             -5639.9496      0              0             -188.69611      132120.1       50.931871      50.931871      50.931871      0.85377209     256.38982      238.69515      287.72016    
     38000   76000          300.18594     -118.22506      4046.3465      4272.9056      4329.924      -57.0184        1485.8592      1453.8856      2681.7461      0             -5678.5093      0              0             -189.72991      131400.21      50.839197      50.839197      50.839197      0.8584496     -18.61904      -655.57935      319.52321    
     39000   78000          298.86434     -14.814633      4178.055       4206.4735      4310.861      -104.38758      1484.1655      1455.282       2668.7319      0             -5712.567       0              0             -189.53866      131532.79      50.856291      50.856291      50.856291      0.85758428    -79.525011      123.68544     -88.604322    
     40000   80000          301.48629     -381.68934      3582.9121      4318.855       4348.6804     -29.825445      1498.6005      1490.1124      2629.0331      0             -5647.5715      0              0             -188.57045      132208.14      50.943182      50.943182      50.943182      0.85320353    -529.50554      101.33753     -716.90002    
     41000   82000          304.50696     -240.59705      3935.1309      4397.1512      4392.2509      4.9002992      1498.049       1507.7639      2675.2407      0             -5676.1533      0              0             -189.33762      131672.45      50.874284      50.874284      50.874284      0.85667466    -52.502848     -49.325957     -619.96236    
     42000   84000          296.01411     -184.95765      3873.4459      4229.7023      4269.7489     -40.046537      1500.6194      1519.1876      2605.8246      0             -5665.6781      0              0             -188.76322      132073.13      50.925835      50.925835      50.925835      0.85407574    -586.79106     -136.04513      167.96324    
     43000   86000          301.44676     -353.41987      3563.345       4248.7006      4348.1102     -99.409635      1478.0456      1412.8358      2648.6538      0             -5638.9448      0              0             -187.49201      132968.6       51.040669      51.040669      51.040669      0.84832403    -393.48275     -689.3793       22.602425    
     44000   88000          295.6571       121.64678      4419.4728      4185.5273      4264.5993     -79.072003      1484.1546      1460.9999      2630.3162      0             -5654.5427      0              0             -189.05737      131867.64      50.899409      50.899409      50.899409      0.85540665    -261.49252      276.45294      349.97991    
     45000   90000          305.26024      674.43665      5618.7477      4320.1488      4403.1164     -82.967635      1504.2309      1468.9029      2632.3797      0             -5688.4811      0              0             -188.83124      132025.55      50.919719      50.919719      50.919719      0.85438351     357.83592      739.23266      926.24136    
     46000   92000          298.06552      566.85806      5296.809       4218.8138      4299.3387     -80.524869      1443.0765      1486.5767      2695.9645      0             -5706.1426      0              0             -191.19004      130396.7       50.709446      50.709446      50.709446      0.86505609     570.39689      673.45888      456.71841    
     47000   94000          300.25869     -15.125256      4143.8512      4172.8585      4330.9734     -158.11489      1474.7739      1414.07        2625.1743      0             -5672.133       0              0             -189.58457      131500.94      50.852185      50.852185      50.852185      0.85779202     55.45026      -339.11513      238.28911    
     48000   96000          300.00606     -403.02386      3453.8064      4227.2429      4327.3294     -100.08649      1452.829       1467.0325      2653.3922      0             -5673.3402      0              0             -189.45839      131588.52      50.863472      50.863472      50.863472      0.85722107    -500.21991      177.91262     -886.76429    
     49000   98000          298.06167     -302.84105      3693.2275      4274.9077      4299.2832     -24.375584      1492.0758      1469.9653      2673.4391      0             -5659.8558      0              0             -189.29461      131702.37      50.878137      50.878137      50.878137      0.85648005    -940.10388      616.56409     -584.98335    
     50000   100000         298.35956     -471.81596      3318.4071      4226.0752      4303.58       -77.504882      1471.7939      1440.6603      2695.2119      0             -5685.171       0              0             -188.99631      131910.25      50.904891      50.904891      50.904891      0.85513034    -998.27351     -10.028256     -407.14611    
     51000   102000         294.7016       328.48107      4844.9644      4211.8189      4250.8171     -38.998172      1484.8266      1455.3316      2679.632       0             -5658.7884      0              0             -188.63165      132165.25      50.937673      50.937673      50.937673      0.85348042     762.86336      314.39511     -91.815275    
     52000   104000         303.3723       208.73853      4588.153       4188.4741      4375.8845     -187.41043      1448.1051      1439.2474      2618.0377      0             -5692.8006      0              0             -189.8887       131290.33      50.825022      50.825022      50.825022      0.85916806     13.872918      437.15552      175.18715    
     53000   106000         301.64847      98.714828      4442.5451      4251.2812      4351.0197     -99.738531      1480.6644      1460.6055      2604.9954      0             -5646.0038      0              0             -187.65366      132854.05      51.026009      51.026009      51.026009      0.84905543    -116.37041     -20.058565      432.57346    
     54000   108000         300.93602      18.800864      4250.7002      4214.5105      4340.7432     -126.23273      1506.7944      1415.8388      2619.0107      0             -5667.8766      0              0             -188.88624      131987.12      50.914777      50.914777      50.914777      0.85463232    -348.7837       850.94025     -445.75396    
     55000   110000         291.60232      137.31779      4441.0593      4178.3036      4206.1127     -27.809033      1522.8048      1414.9747      2707.5018      0             -5673.0904      0              0             -190.01259      131204.73      50.813974      50.813974      50.813974      0.85972859     240.1445       6.5107746      165.29809    
     56000   112000         294.10223     -228.96718      3750.2294      4193.007       4242.1718     -49.164805      1463.8334      1436.6827      2707.6951      0             -5657.376       0              0             -188.01626      132597.84      50.993186      50.993186      50.993186      0.85069605     112.52894     -10.776887     -788.6536     
     57000   114000         295.49321      151.05581      4423.9087      4134.4427      4262.2353     -127.79269      1439.2052      1458.2762      2664.2529      0             -5689.527       0              0             -189.73505      131396.65      50.838738      50.838738      50.838738      0.85847284     675.00715      118.75216     -340.59188    
     58000   116000         300.29082     -195.60332      3946.6785      4322.2311      4331.4368     -9.2056262      1492.265       1455.5509      2714.2742      0             -5671.2957      0              0             -189.37085      131649.35      50.871308      50.871308      50.871308      0.856825      -621.26736      255.3785      -220.92109    
     59000   118000         302.37431     -539.60873      3251.5626      4295.1812      4361.4894     -66.308127      1501.4334      1388.8914      2712.2897      0             -5668.9226      0              0             -187.99438      132613.27      50.995164      50.995164      50.995164      0.85059704    -743.00636     -849.58234     -26.237495    
     60000   120000         302.16929      128.41014      4525.7072      4278.2551      4358.5321     -80.277057      1461.8114      1454.6346      2676.3714      0             -5673.0944      0              0             -188.67567      132134.42      50.933711      50.933711      50.933711      0.85367958     162.74021      378.73125     -156.24106    
     61000   122000         300.8148      -294.85074      3742.2274      4311.8481      4338.9947     -27.146591      1513.5442      1399.2749      2698.9848      0             -5638.9505      0              0             -188.20197      132467         50.976408      50.976408      50.976408      0.85153629    -49.916119     -321.42708     -513.20902    
     62000   124000         302.36261     -48.832442      4187.1375      4281.5235      4361.3205     -79.79701       1493.5316      1455.5731      2609.0544      0             -5637.9561      0              0             -188.10843      132532.87      50.984856      50.984856      50.984856      0.85111307    -21.375323     -70.995199     -54.126804    
     63000   126000         300.76164     -350.4928       3693.9828      4372.123       4338.2279      33.895105      1509.4457      1490.2204      2667.6905      0             -5633.4615      0              0             -187.91755      132667.49      51.002113      51.002113      51.002113      0.85024942    -564.65649     -658.10493      171.28302    
     64000   128000         300.59659     -602.40023      2988.3345      4144.5473      4335.8472     -191.2999       1445.2191      1420.9555      2658.9365      0             -5716.411       0              0             -189.43276      131606.33      50.865766      50.865766      50.865766      0.85710511    -810.56814     -622.81394     -373.8186     
     65000   130000         302.23742     -49.95379       4296.2635      4392.6898      4359.5149      33.174907      1456.7175      1461.5636      2738.7821      0             -5623.8882      0              0             -188.35658      132358.26      50.962457      50.962457      50.962457      0.85223583     400.8847      -960.29914      409.55307    
     66000   132000         298.76278     -245.73623      3755.5319      4227.693       4309.3961     -81.703052      1448.6841      1453.1847      2675.6595      0             -5659.2315      0              0             -189.22855      131748.35      50.884057      50.884057      50.884057      0.85618116     187.22102     -739.51451     -184.91521    
     67000   134000         298.70079     -505.11253      3343.9542      4317.021       4308.502       8.5189448      1481.2234      1472.81        2699.1773      0             -5644.6917      0              0             -188.73535      132092.63      50.928341      50.928341      50.928341      0.85394963    -463.16538     -751.70642     -300.46581    
     68000   136000         302.4266      -173.85918      3975.6018      4308.6566      4362.2435     -53.586915      1482.4638      1450.9206      2704.0861      0             -5691.0574      0              0             -189.79716      131353.65      50.833192      50.833192      50.833192      0.85875389    -337.03184     -252.99805      68.452363    
     69000   138000         300.30986      47.631969      4335.6807      4243.9763      4331.7114     -87.73507       1423.6886      1437.5979      2721.2615      0             -5670.283       0              0             -188.84965      132012.68      50.918065      50.918065      50.918065      0.8544668      562.37961     -555.30628      135.82258    
     70000   140000         300.75337      54.393519      4428.4781      4323.6537      4338.1087     -14.454994      1458.3594      1433.1175      2744.0366      0             -5649.9685      0              0             -188.66538      132141.63      50.934637      50.934637      50.934637      0.85363302     417.75391     -57.952185     -196.62117    
     71000   142000         300.17562     -465.7741       3383.4472      4277.1809      4329.7751     -52.594146      1451.7505      1437.8859      2740.4452      0             -5682.6757      0              0             -189.48505      131570.01      50.861087      50.861087      50.861087      0.8573417     -636.33478     -692.19172     -68.795807    
     72000   144000         297.03866     -293.47423      3670.8202      4238.3453      4284.5272     -46.181945      1465.7434      1416.6089      2709.4624      0             -5637.9967      0              0             -188.01508      132598.67      50.993293      50.993293      50.993293      0.85069069    -565.33628     -17.022762     -298.06364    
     73000   146000         297.32364      345.28511      4826.8708      4162.5042      4288.6378     -126.13362      1391.8313      1442.337       2693.068       0             -5653.3699      0              0             -188.96345      131933.19      50.907842      50.907842      50.907842      0.85498166    -31.113081      462.73242      604.23599    
     74000   148000         299.59062     -771.51209      2791.6094      4291.4177      4321.337      -29.919332      1437.5857      1468.5191      2706.4937      0             -5642.5178      0              0             -187.03149      133296         51.082527      51.082527      51.082527      0.84624036    -646.3056      -742.29165     -925.93901    
     75000   150000         290.49773     -355.60228      3560.2169      4245.8641      4190.1799      55.684227      1484.1535      1481.8749      2742.0582      0             -5652.4024      0              0             -188.56953      132208.79      50.943265      50.943265      50.943265      0.85319936    -177.33383     -580.29403     -309.17897    
     76000   152000         298.36049     -315.41871      3615.1735      4224.4985      4303.5934     -79.094877      1457.0175      1432.4112      2698.4927      0             -5667.0163      0              0             -188.21152      132460.28      50.975546      50.975546      50.975546      0.8515795     -119.09742     -566.31306     -260.84565    
     77000   154000         302.17346      444.41802      5140.2529      4286.3871      4358.5923     -72.205162      1474.6179      1425.4356      2716.5905      0             -5688.8492      0              0             -189.23862      131741.34      50.883155      50.883155      50.883155      0.85622669     1023.7088      746.43018     -436.88495    
     78000   156000         300.18251      445.69209      5138.6155      4283.3283      4329.8746     -46.546298      1454.101       1485.2833      2693.1971      0             -5679.1276      0              0             -189.46572      131583.43      50.862816      50.862816      50.862816      0.85725426     214.27024      27.14439       1095.6616    
     79000   158000         302.28366     -90.411964      4087.0439      4259.9523      4360.1817     -100.2294       1428.3769      1451.5567      2719.4783      0             -5699.6414      0              0             -190.11548      131133.72      50.804805      50.804805      50.804805      0.86019414    -105.1009      -328.60031      162.46531    
     80000   160000         304.47265     -73.517521      4122.3644      4262.9377      4391.756      -128.81833      1431.8301      1456.1047      2689.7162      0             -5706.4692      0              0             -190.14972      131110.1       50.801755      50.801755      50.801755      0.86034907    -177.30352     -67.282835      24.033793    
     81000   162000         299.92518     -580.15741      3240.0483      4367.1605      4326.1627      40.997784      1457.457       1514.3275      2706.5747      0             -5637.3615      0              0             -187.14854      133212.63      51.071875      51.071875      51.071875      0.84676994    -289.76629     -588.33161     -862.37432    
     82000   164000         298.14827      287.11039      4753.8116      4201.905       4300.5324     -98.627311      1423.1725      1467.3067      2677.3695      0             -5666.476       0              0             -189.14335      131807.7       50.891696      50.891696      50.891696      0.85579564     636.446       -88.460163      313.34534    
     83000   166000         292.26119     -44.873917      4223.876       4309.9204      4215.6163      94.304126      1509.6752      1490.195       2768.1032      0             -5673.6692      0              0             -189.61766      131477.99      50.849227      50.849227      50.849227      0.85794171     4.89343       -439.35703      299.84185    
     84000   168000         299.10731      431.21282      5098.0232      4271.2846      4314.3656     -43.081053      1448.9054      1428.2692      2769.0516      0             -5689.3072      0              0             -189.64054      131462.13      50.847182      50.847182      50.847182      0.85804524     269.15489      438.54636      585.93719    
     85000   170000         302.24284      183.90067      4674.4104      4321.8396      4359.5929     -37.753309      1476.8961      1483.5842      2688.5852      0             -5686.8188      0              0             -189.64645      131458.03      50.846653      50.846653      50.846653      0.858072       234.176        506.16246     -188.63647    
     86000   172000         295.67292     -563.2187       3104.2792      4192.4638      4264.8275     -72.363746      1430.7355      1474.4469      2692.0399      0             -5669.5861      0              0             -188.18381      132479.78      50.978048      50.978048      50.978048      0.85145414    -236.35486     -281.99094     -1171.3103    
     87000   174000         294.69496     -4.6644409      4130.8481      4139.8369      4250.7213     -110.8844       1445.482       1428.5173      2649.4547      0             -5634.3384      0              0             -188.67106      132137.65      50.934126      50.934126      50.934126      0.85365872     121.5093      -487.29982      351.7972     
     88000   176000         299.19942      452.65918      5106.3807      4235.0776      4315.6943     -80.616689      1470.6553      1455.8833      2649.3702      0             -5656.5255      0              0             -188.89037      131984.23      50.914406      50.914406      50.914406      0.85465101     367.89014      584.03325      406.05416    
     89000   178000         293.86065      635.29257      5399.2156      4172.5396      4238.6872     -66.147559      1468.1492      1410.5088      2698.596       0             -5643.4017      0              0             -188.30057      132397.63      50.967508      50.967508      50.967508      0.85198244     417.40982      739.71256      748.75533    
     90000   180000         301.44037      574.40382      5434.6499      4335.005       4348.018      -13.013034      1474.5106      1450.6094      2753.3662      0             -5691.4994      0              0             -189.92083      131268.12      50.822156      50.822156      50.822156      0.85931343     475.34858      650.96053      596.90236    
     91000   182000         296.47653      342.05803      4939.7986      4284.3305      4276.419       7.9115211      1480.1038      1475.5143      2737.0487      0             -5684.7553      0              0             -189.73871      131394.11      50.838411      50.838411      50.838411      0.85848944     475.83464      368.09403      182.24541    
     92000   184000         302.70533     -525.65757      3346.3587      4355.3963      4366.2641     -10.867745      1518.9065      1465.2224      2672.0517      0             -5667.0484      0              0             -189.41017      131622.02      50.867788      50.867788      50.867788      0.8570029     -1233.985      -340.04097     -2.9467772    
     93000   186000         297.53245     -639.10919      3106.428       4343.0431      4291.6496      51.393453      1523.1592      1444.8197      2714.9302      0             -5631.5157      0              0             -187.9093       132673.32      51.00286       51.00286       51.00286       0.85021207    -860.85902     -626.68996     -429.77859    
     94000   188000         300.5289       161.75911      4499.8398      4189.633       4334.8709     -145.23786      1444.9936      1436.0112      2630.5292      0             -5656.7719      0              0             -189.59429      131494.2       50.851317      50.851317      50.851317      0.85783596    -86.583232      446.38275      125.47782    
     95000   190000         302.76601     -260.75759      3850.3807      4351.6582      4367.1392     -15.481029      1509.3061      1462.0871      2709.1486      0             -5696.0228      0              0             -189.13263      131815.17      50.892657      50.892657      50.892657      0.85574717    -272.48664     -537.82178      28.035665    
     96000   192000         299.70758     -251.85493      3797.5399      4283.0628      4323.0241     -39.961282      1457.1447      1443.5141      2678.6879      0             -5619.3079      0              0             -188.60295      132185.37      50.940256      50.940256      50.940256      0.85335056    -94.674349     -278.15094     -382.73951    
     97000   194000         290.48438      292.4299       4650.8226      4085.4492      4189.9873     -104.53804      1455.6863      1400.2297      2675.5496      0             -5636.0036      0              0             -188.05901      132567.7       50.989322      50.989322      50.989322      0.85088946     501.27978      846.25074     -470.24081    
     98000   196000         300.50215     -400.35212      3496.4628      4272.1058      4334.4851     -62.379278      1438.0251      1463.2286      2660.1648      0             -5623.7978      0              0             -187.66703      132844.59      51.024798      51.024798      51.024798      0.84911591    -716.11828      269.47919     -754.41725    
     99000   198000         296.62646     -392.87056      3384.4683      4144.0676      4278.5815     -134.51393      1436.0511      1413.5041      2672.394       0             -5656.4632      0              0             -188.04971      132574.25      50.990162      50.990162      50.990162      0.8508474     -525.31516      182.32825     -835.62477    
    100000   200000         306.10238      500.04704      5287.5863      4326.7215      4415.2636     -88.542084      1471.3867      1455.6463      2638.0888      0             -5653.6638      0              0             -189.21532      131757.56      50.885243      50.885243      50.885243      0.8561213      979.82428      173.77845      346.53838    
    101000   202000         299.09355      272.22733      4651.5886      4128.7874      4314.1672     -185.37975      1415.546       1394.8193      2684.8648      0             -5680.6098      0              0             -189.32281      131682.76      50.875611      50.875611      50.875611      0.85660763     715.62802      460.54652     -359.49257    
    102000   204000         295.03619      119.74893      4424.8843      4193.844       4255.6433     -61.799328      1422.0236      1465.4065      2702.2182      0             -5651.4476      0              0             -188.44804      132294.02      50.95421       50.95421       50.95421       0.85264966    -9.0165389     -46.987222      415.25054    
    103000   206000         304.19574     -441.05871      3481.6481      4331.5282      4387.7618     -56.233633      1486.5574      1456.4556      2651.1285      0             -5650.3752      0              0             -188.68897      132125.11      50.932514      50.932514      50.932514      0.85373976    -738.32588     -132.6429      -452.20735    
    104000   208000         300.57671     -118.96447      4006.7588      4236.2319      4335.5605     -99.328609      1434.3007      1462.7928      2678.3847      0             -5674.8068      0              0             -188.49215      132263.07      50.950235      50.950235      50.950235      0.85284924     101.82875     -141.85118     -316.87099    
    105000   210000         303.1162      -230.01361      3764.8346      4207.7109      4372.1904     -164.47952      1467.505       1402.5852      2654.508       0             -5689.0776      0              0             -188.83342      132024.03      50.919524      50.919524      50.919524      0.85439334    -61.890601     -894.4885       266.33828    
    106000   212000         299.57074      511.00368      5106.183       4128.0215      4321.0502     -193.0287       1450.9602      1413.9073      2635.2         0             -5693.0962      0              0             -189.94209      131253.42      50.820259      50.820259      50.820259      0.85940964     827.47353     -49.655573      755.1931     
    107000   214000         300.27812     -395.06001      3436.362       4196.0233      4331.2536     -135.23027      1477.4455      1453.4108      2618.6795      0             -5684.7661      0              0             -189.08227      131850.28      50.897175      50.897175      50.897175      0.8555193     -205.37026     -544.28041     -435.52936    
    108000   216000         293.83536      454.30649      5045.4157      4169.2792      4238.3224     -69.043157      1484.207       1430.5855      2674.3318      0             -5658.1675      0              0             -188.53192      132235.17      50.946653      50.946653      50.946653      0.85302918     254.0562       776.17237      332.6909     
    109000   218000         302.56322     -327.92648      3709.7363      4342.903       4364.2141     -21.311142      1489.796       1460.7981      2665.1785      0             -5637.0838      0              0             -188.30689      132393.19      50.966939      50.966939      50.966939      0.852011       62.13181      -586.53308     -459.37817    
    110000   220000         300.17365      202.8624       4676.101       4287.6141      4329.7466     -42.132535      1446.2508      1513.6976      2710.4307      0             -5712.5116      0              0             -189.85977      131310.33      50.827603      50.827603      50.827603      0.85903718     489.40799     -920.32988      1039.5091    
    111000   222000         293.86409     -179.98899      3720.3341      4064.2279      4238.7367     -174.50883      1434.7027      1443.5807      2674.1289      0             -5726.9211      0              0             -190.29587      131009.41      50.788747      50.788747      50.788747      0.86101034    -121.11344     -456.23909      37.385576    
    112000   224000         309.27987      579.09805      5623.5125      4509.8232      4461.0961      48.727164      1519.8499      1441.2166      2726.0803      0             -5638.4196      0              0             -189.05832      131866.98      50.899325      50.899325      50.899325      0.85541092     393.41715      836.69254      507.18447    
    113000   226000         304.17002      300.51224      4897.8536      4320.5057      4387.3909     -66.885127      1487.8732      1444.9948      2685.1508      0             -5684.9039      0              0             -189.24847      131734.49      50.882272      50.882272      50.882272      0.85627127     236.13344      638.66089      26.742387    
    114000   228000         302.89549     -523.63134      3345.2914      4349.8673      4369.007      -19.13967       1536.243       1421.8104      2730.9107      0             -5708.1038      0              0             -189.51807      131547.08      50.858132      50.858132      50.858132      0.85749113    -338.75878     -648.39313     -583.74212    
    115000   230000         303.59367      524.07796      5323.9174      4311.9873      4379.0776     -67.090286      1504.6331      1484.3892      2634.1826      0             -5690.2952      0              0             -188.30122      132397.18      50.96745       50.96745       50.96745       0.85198535     735.25359      741.81749      95.162814    
    116000   232000         296.71827     -262.94473      3603.866       4108.7828      4279.9058     -171.12306      1455.8248      1470.7229      2636.7185      0             -5734.3894      0              0             -189.34437      131667.76      50.87368       50.87368       50.87368       0.85670518    -994.10721      119.4391       85.833905    
    117000   234000         296.12062      240.29767      4563.173       4101.7581      4271.2852     -169.52705      1485.0655      1406.3843      2640.7825      0             -5701.7593      0              0             -189.35018      131663.72      50.873159      50.873159      50.873159      0.85673148     368.59034      280.82066      71.482       
    118000   236000         296.65507     -765.97216      2652.5603      4125.6884      4278.9942     -153.30573      1487.6628      1430.1547      2612.0584      0             -5683.1816      0              0             -189.05153      131871.71      50.899934      50.899934      50.899934      0.85538022    -1039.0086     -819.54872     -439.35919    
    119000   238000         294.22286     -260.11224      3792.8084      4291.5039      4243.9117      47.592188      1524.0546      1522.7249      2677.9191      0             -5677.1065      0              0             -189.6414       131461.54      50.847105      50.847105      50.847105      0.85804912    -142.2738      -318.513       -319.54992    
    120000   240000         299.39732      117.53523      4482.5861      4255.6203      4318.5489     -62.928543      1488.5976      1499.7098      2605.5487      0             -5656.7845      0              0             -188.28484      132408.69      50.968928      50.968928      50.968928      0.85191127    -291.60595      604.30371      39.907937    
    121000   242000         299.40843     -373.10769      3484.0676      4199.6669      4318.709      -119.04213      1462.4452      1491.8637      2644.8514      0             -5718.2024      0              0             -189.57106      131510.31      50.853393      50.853393      50.853393      0.85773086    -115.83143     -825.51685     -177.9748     
    122000   244000         298.86924      669.93662      5499.5372      4216.88        4310.9317     -94.051692      1511.8158      1444.9283      2645.2518      0             -5696.0475      0              0             -189.90258      131280.73      50.823784      50.823784      50.823784      0.85923087     1392.3043      164.92589      452.57969    
    123000   246000         302.92204     -452.95294      3362.7199      4230.3526      4369.3899     -139.03734      1424.2682      1480.1736      2669.6837      0             -5713.1628      0              0             -189.81255      131343         50.831818      50.831818      50.831818      0.85882352    -283.19241     -877.72095     -197.94547    
    124000   248000         299.47225     -154.93842      3840.551       4137.0428      4319.6296     -182.58683      1450.5932      1454.9153      2638.3631      0             -5726.4583      0              0             -190.00025      131213.25      50.815074      50.815074      50.815074      0.85967277    -474.57417      459.68686     -449.92795    
    125000   250000         300.79461     -22.416167      4216.1524      4259.2048      4338.7036     -79.49875       1424.7451      1465.3796      2719.0753      0             -5688.6987      0              0             -189.30905      131692.33      50.876843      50.876843      50.876843      0.8565454      216.05005     -55.093677     -228.20487    
    126000   252000         300.30755     -789.12103      2633.6083      4149.7733      4331.678      -181.90472      1468.1006      1420.383       2601.8884      0             -5672.2767      0              0             -189.23649      131742.83      50.883346      50.883346      50.883346      0.85621706    -1077.6716     -898.15427     -391.53727    
    127000   254000         301.86865     -508.54514      3361.1004      4338.074       4354.1956     -16.121596      1533.5863      1484.9573      2655.2586      0             -5689.9238      0              0             -189.25807      131727.8       50.881411      50.881411      50.881411      0.85631472    -596.72575     -111.93043     -816.97923    
    128000   256000         301.50007      128.30958      4393.1701      4147.4047      4348.8791     -201.47445      1426.3018      1405.5388      2649.8475      0             -5683.1626      0              0             -189.82182      131336.59      50.830991      50.830991      50.830991      0.85886545     446.24945     -515.55112      454.23042    
    129000   258000         298.26894      661.09877      5492.3504      4214.0956      4302.2729     -88.177347      1515.2637      1435.6448      2623.5252      0             -5662.611       0              0             -188.04278      132579.14      50.990789      50.990789      50.990789      0.85081602     861.47921      156.92731      964.88978    
    130000   260000         301.15633      266.39571      4794.6747      4284.0934      4343.921      -59.827601      1450.1623      1487.5701      2672.0286      0             -5669.5885      0              0             -189.70122      131420.08      50.84176       50.84176       50.84176       0.85831978     485.047        345.92348     -31.783354    
    131000   262000         298.10074     -333.58646      3549.3302      4188.9362      4299.8467     -110.91049      1485.2758      1455.4782      2659.8223      0             -5711.4869      0              0             -189.6285       131470.48      50.848258      50.848258      50.848258      0.85799078    -488.65492     -402.71419     -109.39026    
    132000   264000         298.79217     -409.0069       3327.5538      4113.6386      4309.82       -196.18142      1444.9491      1417.908       2619.7767      0             -5678.8152      0              0             -189.17728      131784.06      50.888653      50.888653      50.888653      0.85594919    -554.38188     -314.93841     -357.70042    
    133000   266000         302.25494     -170.78647      3876.167       4204.996       4359.7675     -154.77151      1463.2948      1437.3861      2620.421       0             -5675.8734      0              0             -188.83872      132020.32      50.919047      50.919047      50.919047      0.85441735     125.8429       147.86562     -786.06791    
    134000   268000         302.45159     -37.06761       4084.9365      4155.7551      4362.604      -206.84887      1490.6308      1436.1713      2591.7331      0             -5725.3842      0              0             -190.30708      131001.69      50.78775       50.78775       50.78775       0.86106105     123.43656      101.73012     -336.36951    
    135000   270000         295.97749      505.20216      5116.2172      4154.0663      4269.2207     -115.15436      1469.2365      1470.6454      2663.1567      0             -5718.1929      0              0             -190.91048      130587.64      50.734185      50.734185      50.734185      0.86379121     628.55185      636.33769      250.71695    
    136000   272000         301.19385      5.2593148      4141.0132      4130.9454      4344.4623     -213.51683      1442.2153      1337.0453      2712.2043      0             -5704.9817      0              0             -189.93534      131258.09      50.820862      50.820862      50.820862      0.85937909    -2.0339546     -63.331202      81.143101    
    137000   274000         298.77334     -220.41411      3724.8472      4147.0068      4309.5484     -162.54157      1475.0148      1440.299       2603.8852      0             -5681.7406      0              0             -189.83245      131329.23      50.830042      50.830042      50.830042      0.85891354    -143.48102      262.77727     -780.53859    
    138000   276000         303.1621       115.24533      4451.3067      4230.3307      4372.8525     -142.52189      1441.1336      1456.357       2654.2315      0             -5694.244       0              0             -189.62072      131475.87      50.848953      50.848953      50.848953      0.85795556    -49.577441      255.2951       140.01832    
    139000   278000         309.34169      303.05173      4896.7487      4316.3925      4461.9878     -145.59531      1489.6398      1431.6906      2651.3794      0             -5718.3051      0              0             -189.85845      131311.25      50.827722      50.827722      50.827722      0.85903117     574.79367      106.78457      227.57694    
    140000   280000         306.33003     -248.63014      3781.691       4259.0224      4418.5472     -159.52476      1458.4298      1413.5052      2650.7068      0             -5682.1666      0              0             -189.38322      131640.75      50.8702        50.8702        50.8702        0.85688099    -423.07675     -244.40338     -78.410283    
    141000   282000         301.09058     -156.95573      3905.1359      4207.7774      4342.9726     -135.19513      1496.5016      1373.797       2647.3404      0             -5652.8341      0              0             -188.56294      132213.41      50.943859      50.943859      50.943859      0.85316954     207.58634     -316.71143     -361.74209    
    142000   284000         302.19198     -495.53079      3226.2488      4180.6999      4358.8593     -178.15945      1439.1826      1417.6392      2633.3814      0             -5668.3626      0              0             -188.7664       132070.91      50.925549      50.925549      50.925549      0.85409011    -340.45075     -773.96668     -372.17493    
    143000   286000         293.54912     -469.57415      3132.4447      4036.7744      4234.1935     -197.41916      1435.5922      1436.8274      2623.5382      0             -5693.3769      0              0             -188.79268      132052.53      50.923186      50.923186      50.923186      0.854209      -780.19394     -518.83003     -109.69849    
    144000   288000         301.13002      761.37791      5641.052       4178.5706      4343.5416     -164.97101      1456.2006      1414.0233      2666.0369      0             -5701.2318      0              0             -189.28563      131708.62      50.878941      50.878941      50.878941      0.85643943     1036.449       845.04091      402.64377    
    145000   290000         298.93249      415.60077      4926.4542      4132.9064      4311.844      -178.93765      1448.9978      1433.8358      2653.3408      0             -5715.1121      0              0             -190.4193       130924.49      50.777771      50.777771      50.777771      0.86156881     294.97723      312.23834      639.58674    
    146000   292000         290.65913     -436.66124      3270.3549      4103.825       4192.5079     -88.682924      1513.6745      1432.8327      2672.2394      0             -5707.4295      0              0             -190.48569      130878.85      50.77187       50.77187       50.77187       0.86186921    -263.78292     -891.92623     -154.27458    
    147000   294000         303.96496      116.94202      4554.4032      4329.5941      4384.433      -54.838924      1519.9872      1421.4176      2697.4304      0             -5693.6742      0              0             -189.13171      131815.81      50.89274       50.89274       50.89274       0.85574298     187.09985      193.88825     -30.162043    
    148000   296000         302.83446     -9.201918       4231.8187      4249.488       4368.1267     -118.63865      1468.9261      1422.9831      2648.4348      0             -5658.9827      0              0             -189.3507       131663.36      50.873113      50.873113      50.873113      0.85673384    -356.02683      48.292962      280.12812    
    149000   298000         299.58203      138.33251      4380.595       4115.3014      4321.213      -205.91162      1479.6849      1398.1906      2644.827       0             -5728.6141      0              0             -189.58554      131500.27      50.852098      50.852098      50.852098      0.8577964     -333.16367      620.15709      128.0041     
    150000   300000         300.47088     -513.66008      3320.3056      4293.492       4334.034      -40.542074      1515.0794      1491.6438      2714.1666      0             -5761.432       0              0             -191.90556      129910.51      50.646344      50.646344      50.646344      0.86829351    -684.48803      173.00966     -1029.5019    
    151000   302000         300.80649     -320.09059      3647.4537      4260.5097      4338.8748     -78.365149      1526.6277      1427.0849      2678.0914      0             -5710.1692      0              0             -189.83685      131326.18      50.829649      50.829649      50.829649      0.85893347     414.27661     -411.69733     -962.85105    
    152000   304000         302.39225     -282.82926      3853.9104      4395.865       4361.7481      34.116941      1492.8767      1483.592       2751.9602      0             -5694.3119      0              0             -189.74447      131390.13      50.837897      50.837897      50.837897      0.85851546    -452.56687     -483.97727      88.056367    
    153000   306000         301.14133      255.48555      4770.3973      4279.4668      4343.7046     -64.237762      1429.4444      1464.7273      2729.4467      0             -5687.8563      0              0             -189.21435      131758.24      50.885329      50.885329      50.885329      0.85611692     367.75219      138.2188       260.48567    
    154000   308000         303.89245     -165.71371      4043.7828      4362.0769      4383.3872     -21.310323      1477.1999      1475.0542      2700.7604      0             -5674.3249      0              0             -189.29431      131702.58      50.878164      50.878164      50.878164      0.85647868    -111.96967     -541.91325      156.74178    
    155000   310000         302.70884     -45.76772       4300.5249      4388.3668      4366.3147      22.052073      1533.6192      1440.7443      2735.3668      0             -5687.6782      0              0             -189.43721      131603.23      50.865367      50.865367      50.865367      0.85712527     155.31852      51.600475     -344.22216    
    156000   312000         300.97973      64.834901      4397.545       4274.2007      4341.3737     -67.173053      1501.5182      1440.1446      2703.5684      0             -5712.4043      0              0             -191.11618      130447.09      50.715977      50.715977      50.715977      0.86472189     384.98669     -614.98316      424.50117    
    157000   314000         303.01729      459.06548      5217.237       4335.4054      4370.7638     -35.358433      1502.7687      1457.6646      2669.7565      0             -5665.5482      0              0             -189.27651      131714.97      50.879758      50.879758      50.879758      0.85639817     274.15244      344.92313      758.12087    
    158000   316000         303.38788     -404.19445      3515.5614      4287.8924      4376.1092     -88.216802      1498.324       1482.0617      2630.1427      0             -5698.7453      0              0             -190.28065      131019.89      50.790101      50.790101      50.790101      0.86094146    -237.46347     -704.51489     -270.60498    
    159000   318000         304.04419     -243.29103      3872.5411      4339.5443      4385.5759     -46.031686      1525.528       1409.8722      2697.0718      0             -5678.5037      0              0             -189.41484      131618.78      50.86737       50.86737       50.86737       0.85702405    -538.56319      116.85719     -308.16709    
    160000   320000         300.07707      103.38761      4536.6023      4339.1382      4328.3537      10.784471      1487.9099      1490.7717      2710.6501      0             -5678.5472      0              0             -190.36539      130961.57      50.782564      50.782564      50.782564      0.86132488     869.27484     -482.28038     -76.831622    
    161000   322000         297.74798     -291.96406      3691.0618      4247.7578      4294.7585     -47.000744      1475.3176      1502.0814      2681.5532      0             -5705.9529      0              0             -190.68612      130741.29      50.754076      50.754076      50.754076      0.86277604     243.95391     -61.431028     -1058.4151    
    162000   324000         302.92311      458.69319      5215.2039      4333.7308      4369.4053     -35.674481      1456.8256      1423.6029      2759.9283      0             -5676.0312      0              0             -189.19992      131768.29      50.886624      50.886624      50.886624      0.8560516      268.04728      561.09789      546.93439    
    163000   326000         302.16604     -211.01762      3858.1294      4263.398       4358.4853     -95.087285      1390.0156      1453.7656      2738.0676      0             -5676.9361      0              0             -189.31436      131688.64      50.876368      50.876368      50.876368      0.85656939     65.829359     -299.03077     -399.85146    
    164000   328000         302.37067     -387.7462       3611.7338      4360.4643      4361.4369     -0.9725621      1456.4079      1453.3972      2748.9994      0             -5659.777       0              0             -188.29109      132404.3       50.968364      50.968364      50.968364      0.85193952    -1126.1055     -19.94845      -17.184702    
    165000   330000         297.61281     -289.22492      3689.8618      4247.4632      4292.8088     -45.345637      1421.9429      1427.5707      2748.0182      0             -5642.8774      0              0             -188.59039      132194.17      50.941387      50.941387      50.941387      0.85329375    -492.80344      115.58625     -490.45757    
    166000   332000         300.25791     -38.469753      4206.3124      4280.0689      4330.9621     -50.893175      1464.8634      1413.0726      2762.1819      0             -5691.011       0              0             -189.6386       131463.47      50.847355      50.847355      50.847355      0.85803647     295.16106     -1.1317589     -409.43856    
    167000   334000         296.01538      213.08585      4660.1134      4249.4577      4269.7673     -20.309594      1426.9017      1425.7595      2772.0767      0             -5645.0475      0              0             -188.66202      132143.97      50.934939      50.934939      50.934939      0.85361786    -30.359581      344.53013      325.08699    
    168000   336000         303.96611      397.51568      5088.6526      4320.3967      4384.4497     -64.05299       1451.5818      1435.5797      2663.379       0             -5614.5935      0              0             -188.12917      132518.25      50.982982      50.982982      50.982982      0.85120692     455.63734      492.27701      244.63268    
    169000   338000         301.40084      332.89944      5006.1868      4360.7496      4347.4479      13.301784      1439.5262      1462.9707      2741.0491      0             -5630.2443      0              0             -187.52832      132942.85      51.037375      51.037375      51.037375      0.84848831     427.06354      361.43181      210.20295    
    170000   340000         302.40872     -502.50645      3382.1443      4356.0464      4361.9857     -5.9393358      1454.505       1432.454       2733.4838      0             -5626.3821      0              0             -187.60055      132891.67      51.030824      51.030824      51.030824      0.84881512    -299.23913     -487.90037     -720.37985    
    171000   342000         303.92076     -383.81188      3544.8702      4287.0718      4383.7955     -96.723686      1436.9571      1412.1664      2660.6417      0             -5606.4889      0              0             -188.02009      132595.14      50.99284       50.99284       50.99284       0.85071338    -301.83801     -229.62578     -619.97184    
    172000   344000         301.55863     -620.99741      3095.055       4280.9399      4349.7238     -68.78391       1436.5444      1422.0959      2758.991       0             -5686.4151      0              0             -190.39477      130941.36      50.779952      50.779952      50.779952      0.8614578     -808.79339     -731.85969     -322.33915    
    173000   346000         298.62569     -24.564474      4271.0616      4318.6347      4307.4187      11.215933      1460.9598      1484.2255      2707.4561      0             -5641.4254      0              0             -187.73887      132793.75      51.018288      51.018288      51.018288      0.84944097    -177.18583     -656.34392      759.83633    
    174000   348000         305.56249      168.1821       4754.986       4433.3798      4407.4761      25.903729      1488.2618      1461.8948      2761.8633      0             -5686.1161      0              0             -190.13548      131119.92      50.803024      50.803024      50.803024      0.86028464     521.24345     -478.63392      461.93677    
    175000   350000         296.0841      -89.57569       4084.6503      4256.2156      4270.7585     -14.542953      1421.8719      1466.7344      2783.6469      0             -5686.7962      0              0             -189.83161      131329.81      50.830117      50.830117      50.830117      0.85890974     279.72445      17.521118     -565.97264    
    176000   352000         297.95843      521.98971      5359.2659      4353.568       4297.7941      55.773897      1453.769       1478.3089      2793.5032      0             -5669.8072      0              0             -188.71313      132108.18      50.93034       50.93034       50.93034       0.85384911     517.86695      886.62265      161.47954    
    177000   354000         297.93534     -26.215227      4276.0196      4326.6103      4297.461       29.149253      1513.4574      1438.0057      2695.9657      0             -5618.2796      0              0             -188.40434      132324.71      50.95815       50.95815       50.95815       0.85245193     715.43345     -502.92626     -291.15287    
    178000   356000         301.75164     -171.0334       4061.2368      4391.2888      4352.5078      38.780968      1477.0834      1457.3641      2759.0799      0             -5654.7464      0              0             -188.411        132320.03      50.957549      50.957549      50.957549      0.85248208    -518.93594     -100.12291      105.95865    
    179000   358000         292.37856      53.171026      4450.0021      4347.4972      4217.3092      130.18793      1524.0751      1476.1943      2781.7121      0             -5651.7936      0              0             -188.59834      132188.6       50.940671      50.940671      50.940671      0.8533297      408.23244     -447.46371      198.74435    
    180000   360000         296.88697     -412.36567      3407.3096      4203.6862      4282.3392     -78.653005      1451.4899      1444.8137      2662.157       0             -5637.1136      0              0             -188.26592      132422         50.970635      50.970635      50.970635      0.85182567    -47.916379     -1269.1054      79.924777    
    181000   362000         302.00182     -182.07046      3937.6395      4289.9798      4356.1165     -66.136643      1435.1462      1443.4461      2712.1432      0             -5656.8721      0              0             -187.88185      132692.7       51.005343      51.005343      51.005343      0.85008788    -321.71441      44.001704     -268.49867    
    182000   364000         298.69663      201.36749      4717.3237      4330.7996      4308.442       22.357668      1487.6752      1444.5329      2753.1675      0             -5663.018       0              0             -189.4177       131616.79      50.867114      50.867114      50.867114      0.85703698     429.6523       660.62242     -486.17227    
    183000   366000         301.26007     -149.04257      3979.3734      4264.8787      4345.4174     -80.538658      1426.1365      1417.8793      2722.4925      0             -5647.047       0              0             -189.80337      131349.35      50.832638      50.832638      50.832638      0.85878196     219.61415     -334.46614     -332.27572    
    184000   368000         300.07276     -150.90648      3975.0656      4265.5304      4328.2914     -62.760969      1481.0241      1477.5681      2663.6032      0             -5684.9564      0              0             -188.8957       131980.5       50.913927      50.913927      50.913927      0.85467514     58.192349      433.65162     -944.56339    
    185000   370000         301.27027      97.483494      4426.129       4238.5857      4345.5645     -106.97881      1404.5422      1446.2438      2693.518       0             -5651.2829      0              0             -188.98926      131915.16      50.905523      50.905523      50.905523      0.85509849     135.99583      237.93756     -81.48291     
    186000   372000         299.34728      256.44559      4860.809       4366.5721      4317.8271      48.744978      1467.8385      1437.2409      2788.8345      0             -5645.1689      0              0             -188.65476      132149.06      50.935593      50.935593      50.935593      0.85358497     460.44554      538.78477     -229.89354    
    187000   374000         302.15862      113.76258      4599.3117      4379.7253      4358.3782      21.347115      1479.1408      1422.7515      2763.5826      0             -5644.1278      0              0             -188.36566      132351.88      50.961637      50.961637      50.961637      0.85227693    -307.17008      474.67875      173.77908    
    188000   376000         301.40297      59.791472      4431.1479      4316.3244      4347.4786     -31.154196      1459.9295      1441.4286      2717.1378      0             -5649.6501      0              0             -189.32866      131678.69      50.875087      50.875087      50.875087      0.85663409     336.06965     -87.362644     -69.332592    
    189000   378000         296.64285      189.14855      4622.2107      4256.8064      4278.8179     -22.011519      1489.3173      1443.7952      2699.2262      0             -5654.3502      0              0             -188.2076       132463.04      50.9759        50.9759        50.9759        0.85156176     574.49754     -801.24103      794.18915    
    190000   380000         300.18774     -213.81141      3939.95        4351.1959      4329.9499      21.246033      1485.0978      1485.7632      2700.3725      0             -5649.9875      0              0             -189.03273      131884.83      50.901622      50.901622      50.901622      0.85529513     209.33141      3.5611991     -854.32683    
    191000   382000         301.11821     -370.25897      3569.5579      4285.7067      4343.3711     -57.664417      1441.0398      1450.0636      2694.1071      0             -5642.8749      0              0             -187.97932      132623.9       50.996526      50.996526      50.996526      0.85052889    -285.93659     -534.87769     -289.96264    
    192000   384000         296.31229      523.70238      5328.7383      4318.0985      4274.0499      44.048604      1465.8315      1448.5765      2773.1873      0             -5643.5467      0              0             -188.40651      132323.19      50.957954      50.957954      50.957954      0.85246176     400.00005      578.54169      592.56541    
    193000   386000         293.1258      -156.88788      3839.777       4141.0081      4228.0875     -87.079386      1428.9488      1444.6137      2741.4861      0             -5702.128       0              0             -189.36398      131654.13      50.871924      50.871924      50.871924      0.85679391    -316.51995     -105.91001     -48.233674    
    194000   388000         306.06023     -474.9622       3517.3462      4431.4146      4414.6555      16.759041      1457.4415      1431.7643      2812.7635      0             -5685.2102      0              0             -188.92443      131960.43      50.911346      50.911346      50.911346      0.85480513    -708.66412     -155.82674     -560.39573    
    195000   390000         298.3026      -100.41604      4089.9349      4282.8058      4302.7584     -19.952641      1422.5489      1446.3871      2764.4783      0             -5653.3669      0              0             -189.29714      131700.62      50.877911      50.877911      50.877911      0.85649149     80.367613     -257.28452     -124.33122    
    196000   392000         299.2712      -99.593188      4067.2436      4259.5566      4316.7296     -57.172988      1396.4523      1475.6861      2695.5337      0             -5624.845       0              0             -188.29069      132404.58      50.9684        50.9684        50.9684        0.85193772    -161.87334     -267.16022      130.254      
    197000   394000         302.07749     -302.66835      3729.1431      4311.0492      4357.208      -46.158714      1431.8779      1453.7334      2769.2995      0             -5701.0695      0              0             -189.11317      131828.73      50.894403      50.894403      50.894403      0.85565911    -482.38334      135.05378     -560.67549    
    198000   396000         302.00436     -169.20064      3858.9911      4183.4651      4356.1531     -172.68802      1431.5391      1429.988       2657.8861      0             -5692.1012      0              0             -189.59628      131492.82      50.851138      50.851138      50.851138      0.857845      -152.22536     -611.63439      256.25783    
    199000   398000         300.542       -515.05577      3259.3758      4249.3169      4335.0599     -85.743014      1454.0128      1413.6803      2716.6261      0             -5670.0622      0              0             -189.17018      131789         50.88929       50.88929       50.88929       0.85591705    -634.2766      -665.1922      -245.69852    
    200000   400000         299.34082     -8.1195827      4173.7637      4189.2833      4317.7338     -128.45047      1428.884       1437.7158      2735.3966      0             -5730.4469      0              0             -190.22161      131060.55      50.795355      50.795355      50.795355      0.86067435    -65.408402      158.99814     -117.94849    
[...]
   4950000   9900000        302.41085     -118.81276      3898.7543      4127.0558      4362.0163     -234.96058      1471.9449      1398.7575      2599.305       0             -5704.968       0              0             -189.21785      131755.8       50.885016      50.885016      50.885016      0.85613273     313.38511     -387.48365     -282.33974    
   4951000   9902000        296.05908      429.52837      4913.0798      4089.5066      4270.3975     -180.89089      1486.8587      1421.4629      2616.9705      0             -5706.183       0              0             -189.62579      131472.35      50.8485        50.8485        50.8485        0.85797852    -388.73337      385.0844       1292.2341    
   4952000   9904000        296.43656      145.70387      4385.3025      4106.5782      4275.8424     -169.26417      1419.6767      1466.4567      2637.688       0             -5693.0855      0              0             -190.06583      131167.97      50.809229      50.809229      50.809229      0.85996949    -145.50435      425.80866      156.80729    
   4953000   9906000        302.65392     -189.58482      3812.5603      4175.3187      4365.5225     -190.20378      1478.7822      1404.4503      2627.8757      0             -5701.312       0              0             -190.01758      131201.28      50.813529      50.813529      50.813529      0.85975117    -116.9649      -192.27813     -259.51144    
   4954000   9908000        300.29148      573.54995      5218.9843      4119.6907      4331.4462     -211.75557      1449.3089      1440.2133      2598.4093      0             -5699.6871      0              0             -189.69911      131421.54      50.841948      50.841948      50.841948      0.85831025     667.4729      -6.9474729      1060.1244    
   4955000   9910000        300.63503     -274.88879      3602.8562      4132.6924      4336.4017     -203.70925      1474.9602      1432.3909      2576.972       0             -5688.0324      0              0             -188.63536      132162.66      50.937339      50.937339      50.937339      0.85349719    -1073.1731     -207.62586      456.13263    
   4956000   9912000        300.47314      123.34588      4339.6809      4103.8698      4334.0666     -230.1968       1462.7348      1433.4659      2605.9588      0             -5732.3563      0              0             -190.1815       131088.2       50.798926      50.798926      50.798926      0.86049284    -152.4662      -66.315744      588.81958    
   4957000   9914000        298.72459     -22.950871      4015.8308      4059.8853      4308.8453     -248.96006      1500.4447      1409.6291      2544.5232      0             -5703.5571      0              0             -189.4162       131617.83      50.867248      50.867248      50.867248      0.85703021     418.03283     -153.36571     -333.51974    
   4958000   9916000        298.4517       166.6866       4423.7193      4105.3256      4304.909      -199.58339      1469.9043      1440.7632      2590.3169      0             -5700.5678      0              0             -190.34608      130974.85      50.784281      50.784281      50.784281      0.86123751     612.45208     -383.57966      271.18738    
   4959000   9918000        301.42144      301.48163      4723.1594      4144.778       4347.745      -202.96705      1497.1666      1387.9326      2595.8895      0             -5683.9557      0              0             -189.51967      131545.97      50.857989      50.857989      50.857989      0.85749836     184.4603       305.91221      414.07239    
   4960000   9920000        300.38725     -233.51945      3745.818       4196.1661      4332.8277     -136.66163      1479.3307      1431.5723      2596.7445      0             -5644.3091      0              0             -188.53089      132235.89      50.946745      50.946745      50.946745      0.85302452    -257.53971     -187.76164     -255.25701    
   4961000   9922000        297.23602     -771.63621      2663.8811      4147.5989      4287.3738     -139.77497      1490.6724      1459.9459      2555.7188      0             -5646.1122      0              0             -189.09021      131844.74      50.896463      50.896463      50.896463      0.85555524    -698.25822     -1119.7131     -496.93737    
   4962000   9924000        306.1088       637.14048      5527.1909      4309.6226      4415.3562     -105.7336       1482.3032      1475.5465      2663.1549      0             -5726.7382      0              0             -190.26092      131033.47      50.791856      50.791856      50.791856      0.86085222     758.45944      312.60404      840.35796    
   4963000   9926000        302.83542      183.53669      4554.0036      4201.5061      4368.1404     -166.63437      1475.6861      1430.8945      2616.6597      0             -5689.8747      0              0             -189.31044      131691.36      50.876719      50.876719      50.876719      0.85655169    -5.3874801      219.2302       336.76734    
   4964000   9928000        303.61281      327.00271      4821.7687      4194.0181      4379.3536     -185.3355       1494.7213      1422.155       2592.9249      0             -5695.1367      0              0             -189.39651      131631.52      50.869011      50.869011      50.869011      0.8569411      224.85576      1025.4993     -269.34694    
   4965000   9930000        301.32146      400.58312      4909.2568      4144.3597      4346.3029     -201.94325      1460.0805      1457.0296      2628.5886      0             -5747.6419      0              0             -190.41333      130928.6       50.778302      50.778302      50.778302      0.86154177     1073.1175      425.19438     -296.56249    
   4966000   9932000        301.64408      92.22264       4444.3899      4266.7916      4350.9564     -84.164797      1478.5542      1456.3023      2659.166       0             -5678.1872      0              0             -188.80193      132046.06      50.922355      50.922355      50.922355      0.85425085     100.17793      139.40077      37.089215    
   4967000   9934000        300.79127     -111.05568      3954.6423      4167.0107      4338.6554     -171.64471      1477.7192      1459.9948      2644.2045      0             -5753.5632      0              0             -190.13355      131121.25      50.803196      50.803196      50.803196      0.86027591     5.8090136     -99.330738     -239.64533    
   4968000   9936000        298.63107     -226.43127      3707.3955      4143.0589      4307.4963     -164.43739      1452.9311      1447.001       2625.1812      0             -5689.5506      0              0             -188.9701       131928.54      50.907244      50.907244      50.907244      0.85501177    -26.635218     -1017.5601      364.90146    
   4969000   9938000        300.51477      174.87591      4520.1017      4185.1866      4334.667      -149.4804       1442.434       1454.1418      2650.1529      0             -5696.209       0              0             -189.84668      131319.39      50.828772      50.828772      50.828772      0.85897791    -163.04194      189.1222       498.54746    
   4970000   9940000        296.18151     -83.262187      4004.2054      4164.5758      4272.1635     -107.58766      1499.7215      1498.7729      2571.1655      0             -5677.2474      0              0             -188.76925      132068.91      50.925293      50.925293      50.925293      0.854103      -390.98275      105.16131      36.034882    
   4971000   9942000        298.97373      144.57818      4375.0179      4097.636       4312.4389     -214.8029       1432.5718      1466.0015      2591.3093      0             -5704.6856      0              0             -189.51011      131552.61      50.858845      50.858845      50.858845      0.8574551      9.9710146     -234.26772      658.03126    
   4972000   9944000        299.17496      496.84818      5029.0249      4076.9552      4315.3414     -238.3862       1470.2367      1420.7321      2577.8528      0             -5707.2079      0              0             -189.74166      131392.07      50.838147      50.838147      50.838147      0.85850278     1370.4646      89.609405      30.470493    
   4973000   9946000        299.43569     -417.72181      3353.2555      4148.8855      4319.1023     -170.21679      1460.8189      1450.7457      2627.732       0             -5709.5133      0              0             -190.89024      130601.49      50.735979      50.735979      50.735979      0.8636996     -346.44999     -245.57691     -661.13851    
   4974000   9948000        301.55576      169.1221       4488.1573      4166.8139      4349.6825     -182.86856      1463.5547      1450.859       2639.7731      0             -5737.0553      0              0             -191.35454      130284.6       50.694911      50.694911      50.694911      0.86580037     240.41101      153.58011      113.3752     
   4975000   9950000        305.86662     -72.76704       4130.1828      4268.7664      4411.863      -143.09657      1462.3711      1436.4147      2684.5822      0             -5726.4646      0              0             -190.91083      130587.4       50.734154      50.734154      50.734154      0.86379279    -114.89038     -987.39701      883.98627    
   4976000   9952000        295.79973      371.61605      4819.0107      4105.5788      4266.6567     -161.07786      1479.4698      1443.3434      2618.3691      0             -5702.2602      0              0             -189.38681      131638.26      50.86988       50.86988       50.86988       0.8568972      82.478183      654.68514      377.68484    
   4977000   9954000        300.85985     -408.32796      3323.0978      4105.6564      4339.6446     -233.98818      1430.9231      1440.4511      2588.5433      0             -5693.9056      0              0             -189.71425      131411.05      50.840596      50.840596      50.840596      0.85837876     179.45755     -794.52254     -609.91889    
   4978000   9956000        296.58242     -134.3227       3808.4013      4065.3075      4277.9464     -212.63885      1442.6166      1493.8832      2583.641       0             -5732.7797      0              0             -190.10016      131144.29      50.80617       50.80617       50.80617       0.86012483    -46.50194      -282.6248      -73.841363    
   4979000   9958000        297.77834     -118.04899      3843.1922      4068.1084      4295.1964     -227.08802      1466.0109      1423.7562      2603.9802      0             -5720.8353      0              0             -190.83123      130641.87      50.741208      50.741208      50.741208      0.86343262     48.538199     -323.20402     -79.481161    
   4980000   9960000        298.79793      5.7000456      4103.8331      4093.0338      4309.9031     -216.86931      1458.8696      1477.5688      2640.1212      0             -5793.4289      0              0             -191.90689      129909.61      50.646226      50.646226      50.646226      0.86829956     284.9869       247.41029     -515.29705    
   4981000   9962000        298.96323      489.15008      5024.3152      4091.4578      4312.2874     -220.82965      1478.295       1396.8927      2648.986       0             -5745.0034      0              0             -190.64903      130766.72      50.757366      50.757366      50.757366      0.86260826     555.34821      458.9531       453.14893    
   4982000   9964000        299.06496     -150.48566      3884.0909      4171.189       4313.7547     -142.56576      1502.3871      1438.919       2653.3047      0             -5737.1766      0              0             -190.5779       130815.54      50.763681      50.763681      50.763681      0.86228638    -285.16587      91.192125     -257.48323    
   4983000   9966000        303.53715      149.01011      4468.67        4184.859       4378.2623     -193.40328      1443.2982      1452.5818      2642.828       0             -5732.1112      0              0             -190.89487      130598.32      50.735568      50.735568      50.735568      0.86372058     260.12792      134.99383      51.908571    
   4984000   9968000        304.05986     -84.151637      3962.8945      4123.2965      4385.802      -262.50552      1410.2616      1405.4286      2646.8778      0             -5725.0735      0              0             -190.74824      130698.72      50.748566      50.748566      50.748566      0.8630571     -329.89604      387.32405     -309.88292    
   4985000   9970000        306.26343     -58.957505      4039.2956      4152.0867      4417.5865     -265.49982      1446.2792      1412.0287      2575.7523      0             -5699.5601      0              0             -190.05184      131177.63      50.810475      50.810475      50.810475      0.85990619    -8.9683454     -118.95207     -48.952103    
   4986000   9972000        297.16642      2.7343616      4131.8103      4126.5898      4286.37       -159.78025      1447.7013      1466.958       2650.9049      0             -5725.3445      0              0             -190.43644      130912.71      50.776247      50.776247      50.776247      0.86164636    -428.44308     -177.30215      613.94832    
   4987000   9974000        298.89201     -230.11745      3797.4346      4237.174       4311.2601     -74.086169      1492.5374      1473.5804      2687.7103      0             -5727.9142      0              0             -190.26632      131029.76      50.791376      50.791376      50.791376      0.86087663     37.180954     -376.10217     -351.43112    
   4988000   9976000        300.80119      407.66898      4922.7669      4145.0927      4338.7984     -193.70572      1462.3674      1386.464       2674.6464      0             -5717.1834      0              0             -190.59773      130801.92      50.76192       50.76192       50.76192       0.86237613     452.26209      40.476637      730.26822    
   4989000   9978000        304.64819     -164.35389      3956.5706      4270.1727      4394.2881     -124.1154       1488.0407      1469.0468      2641.8848      0             -5723.0878      0              0             -190.54992      130834.74      50.766165      50.766165      50.766165      0.86215982    -242.55581     -136.66565     -113.84019    
   4990000   9980000        298.00864      194.20581      4521.9425      4152.6429      4298.5183     -145.8753       1476.2068      1507.837       2601.0842      0             -5731.0033      0              0             -191.20145      130388.91      50.708437      50.708437      50.708437      0.86510771     85.728054      958.40927     -461.51991    
   4991000   9982000        296.81786     -75.176261      3942.0096      4086.4853      4281.3422     -194.85695      1467.2682      1418.3529      2640.1186      0             -5720.5967      0              0             -189.18806      131776.55      50.887687      50.887687      50.887687      0.85599794    -183.19749     -194.68125      152.34996    
   4992000   9984000        300.93735      444.19378      4968.5059      4124.7003      4340.7624     -216.06212      1454.9903      1465.7783      2592.4474      0             -5729.2781      0              0             -191.39819      130254.89      50.691056      50.691056      50.691056      0.86599787     794.71819      149.22777      388.63538    
   4993000   9986000        310.02675     -154.93588      4013.2507      4309.3813      4471.8692     -162.48783      1458.1985      1441.0469      2654.3518      0             -5716.085       0              0             -190.22888      131055.54      50.794708      50.794708      50.794708      0.86070724    -302.34107     -143.304       -19.162566    
   4994000   9988000        299.6324      -703.51052      2837.0813      4180.881       4321.9397     -141.05864      1508.1943      1433.0973      2661.2078      0             -5743.558       0              0             -190.34602      130974.89      50.784286      50.784286      50.784286      0.86123723    -1176.8831     -847.14996     -86.498466    
   4995000   9990000        295.83189      18.339314      4003.3603      3968.4222      4267.1206     -298.69831      1469.4825      1379.4854      2601.2272      0             -5748.8935      0              0             -190.85014      130628.93      50.739532      50.739532      50.739532      0.86351819     221.91269     -192.19239      25.297646    
   4996000   9992000        290.15846     -151.23419      3721.6093      4009.5374      4185.2861     -175.74877      1488.358       1451.6719      2630.7711      0             -5746.5498      0              0             -190.97376      130544.37      50.728581      50.728581      50.728581      0.8640775     -319.13994     -446.96583      312.4032     
   4997000   9994000        305.89596     -140.15853      3901.399       4166.6559      4412.2862     -245.63021      1464.5072      1472.8497      2604.2068      0             -5787.194       0              0             -192.11465      129769.13      50.627964      50.627964      50.627964      0.86923954    -245.76489     -679.33918      504.62849    
   4998000   9996000        296.54605     -316.02428      3551.8701      4151.9763      4277.4216     -125.44538      1462.4582      1492.9437      2673.5166      0             -5754.3639      0              0             -191.46972      130206.22      50.684743      50.684743      50.684743      0.86632153    -344.13575     -238.77313     -365.16397    
   4999000   9998000        301.22989     -298.62527      3756.3837      4332.4613      4344.982      -12.520659      1574.3981      1439.5181      2661.5623      0             -5687.9991      0              0             -188.4748       132275.24      50.951798      50.951798      50.951798      0.85277076    -938.00009     -12.568658      54.692927    
   5000000   10000000       301.48309      20.234781      4216.2776      4177.6682      4348.6342     -170.96604      1459.5169      1408.3707      2711.3368      0             -5750.1904      0              0             -190.5519       130833.38      50.76599       50.76599       50.76599       0.86216875     30.623074      141.55345     -111.47218    
Loop time of 5103.02 on 1 procs for 5000000 steps with 4840 atoms

Performance: 169.311 ns/day, 0.142 hours/ns, 979.811 timesteps/s, 4.742 Matom-step/s
99.3% CPU use with 1 MPI tasks x 1 OpenMP threads

MPI task timing breakdown:
Section |  min time  |  avg time  |  max time  |%varavg| %total
---------------------------------------------------------------
Pair    | 609.19     | 609.19     | 609.19     |   0.0 | 11.94
Bond    | 3484.1     | 3484.1     | 3484.1     |   0.0 | 68.28
Neigh   | 1.4425     | 1.4425     | 1.4425     |   0.0 |  0.03
Comm    | 356.28     | 356.28     | 356.28     |   0.0 |  6.98
Output  | 47.096     | 47.096     | 47.096     |   0.0 |  0.92
Modify  | 467.97     | 467.97     | 467.97     |   0.0 |  9.17
Other   |            | 136.9      |            |       |  2.68

Nlocal:           4840 ave        4840 max        4840 min
Histogram: 1 0 0 0 0 0 0 0 0 0
Nghost:          16154 ave       16154 max       16154 min
Histogram: 1 0 0 0 0 0 0 0 0 0
Neighs:              0 ave           0 max           0 min
Histogram: 1 0 0 0 0 0 0 0 0 0

Total # of neighbors = 0
Ave neighs/atom = 0
Ave special neighs/atom = 5.9504132
Neighbor list builds = 135488
Dangerous builds = 0

# --- Cleanup ---
unfix npt_fix

undump dump_npt

# --- Write Output ---
write_dump all custom npt_production_last.dump id type mol x y z xu yu zu vx vy vz modify sort id
write_data /home/arz2/PolyJarvis/data/PE2/lammps/equil/npt_production/npt_production_out.data
System init for write_data ...
Generated 1 of 1 mixed pair_coeff terms from arithmetic mixing rule

print "STAGE COMPLETE: NPT T=300.0->300.0K P=1.0->1.0atm steps=5000000"
STAGE COMPLETE: NPT T=300.0->300.0K P=1.0->1.0atm steps=5000000
quit
