units real
atom_style full
boundary p p p

# --- Force Field Styles ---
pair_style lj/class2/coul/long 9.5 9.5
kspace_style pppm 1e-6
dielectric 1.000000
bond_style class2
angle_style class2
dihedral_style class2
improper_style class2
special_bonds lj/coul 0 0 1
pair_modify mix sixthpower tail yes
neighbor 2.0 bin
neigh_modify delay 0 every 1 check yes
neigh_modify one 4000
# KOKKOS: package loaded via -pk kokkos on the command line

read_data /home/arz2/PolyJarvis/data/PSU4/lammps/equil/npt_cool300/npt_cool300_out.data
Reading data file ...
  orthogonal box = (5.9874156 5.9874156 5.9874156) to (55.905226 55.905226 55.905226)
  1 by 1 by 1 MPI processor grid
  reading atoms ...
  10816 atoms
  reading velocities ...
  10816 velocities
  scanning bonds ...
  4 = max bonds/atom
  scanning angles ...
  16 = max angles/atom
  scanning dihedrals ...
  38 = max dihedrals/atom
  scanning impropers ...
  12 = max impropers/atom
  orthogonal box = (5.9874156 5.9874156 5.9874156) to (55.905226 55.905226 55.905226)
  1 by 1 by 1 MPI processor grid
  reading bonds ...
  11608 bonds
  reading angles ...
  19600 angles
  reading dihedrals ...
  29184 dihedrals
  reading impropers ...
  8000 impropers
Finding 1-2 1-3 1-4 neighbors ...
  special bond factors lj:    0        0        1       
  special bond factors coul:  0        0        1       
     4 = max # of 1-2 neighbors
    10 = max # of 1-3 neighbors
    14 = max # of special neighbors
  special bonds CPU = 0.006 seconds
  read_data CPU = 0.366 seconds
include /home/arz2/PolyJarvis/data/PSU4/lammps/equil/emc_build.params
# LAMMPS parameters created by EMC v9.4.4, build Jul 31 2025 20:33:44

# Variables

variable	seed		index	734512
variable	ntotal		index	10816
variable	fshape		index	1
variable	output		index	emc_build
variable	field		index	pcff/pcff
variable	location1	index	/home/arz2/emc/field/
variable	nav		index	0.6022141179
variable	temperature	index	300
variable	radius		index	5
variable	nrelax		index	100
variable	weight_nonbond	index	0.0001
variable	weight_bond	index	0.0001
variable	weight_focus	index	1
variable	cutoff		index	9.5
variable	charge_cutoff	index	9.5
variable	kappa		index	4
variable	density1	index	0.62
variable	lprevious	index	0
variable	lphase		index	61.8926417911
variable	f_poly		index	8
variable	chem_repeat	index	*Oc1ccc(C(C)(C)c2ccc(Oc3ccc(S(=O)(=O)c4ccc(*)cc4)cc3)cc2)cc1
variable	chem_cap	index	*[H]
variable	lg_repeat	index	54
variable	lg_cap		index	1
variable	norm_poly	index	100
variable	l_poly		index	1352
variable	mg_repeat	index	414.52744
variable	mg_cap		index	0
variable	m_poly		index	10363.186
variable	n_poly		index	8
variable	mtotal		index	88523.72552
variable	nphase1		index	10816
variable	mphase1		index	88523.72552
variable	vphase1		index	237092.087694
variable	lbox		index	61.8926417911
variable	lphase1		index	61.8926417911
variable	lxx		index	61.8926417911
variable	lyy		index	61.8926417911
variable	lzz		index	61.8926417911
variable	lzy		index	0
variable	lzx		index	0
variable	lyx		index	0
variable	vtotal		index	237092.087694
variable	nl_poly		index	8

# Types

variable	type_c		index	1
variable	type_cp		index	2
variable	type_hc		index	3
variable	type_ho		index	4
variable	type_oe		index	5
variable	type_oc		index	6
variable	type_oh		index	7
variable	type_sf		index	8

variable	type_bond_c_c	index	1
variable	type_bond_c_cp	index	2
variable	type_bond_c_hc	index	3
variable	type_bond_cp_cp	index	4
variable	type_bond_cp_hc	index	5
variable	type_bond_cp_oc	index	6
variable	type_bond_cp_oh	index	7
variable	type_bond_cp_sf	index	8
variable	type_bond_ho_oh	index	9
variable	type_bond_oe_sf	index	10

variable	type_angle_c_c_c index	1
variable	type_angle_c_c_cp index	2
variable	type_angle_c_c_hc index	3
variable	type_angle_c_cp_cp index	4
variable	type_angle_cp_c_cp index	5
variable	type_angle_cp_cp_cp index	6
variable	type_angle_cp_cp_hc index	7
variable	type_angle_cp_cp_oc index	8
variable	type_angle_cp_cp_oh index	9
variable	type_angle_cp_cp_sf index	10
variable	type_angle_cp_oc_cp index	11
variable	type_angle_cp_oh_ho index	12
variable	type_angle_cp_sf_cp index	13
variable	type_angle_cp_sf_oe index	14
variable	type_angle_hc_c_hc index	15
variable	type_angle_oe_sf_oe index	16

# Clusters

variable	n0_poly		index	1
variable	n1_poly		index	8
variable	nl_poly		index	8

# Flags

variable	flag_charged	index	1

# Masses

mass		1    12.01115  # c
mass		2    12.01115  # cp
mass		3     1.00797  # hc
mass		4     1.00797  # ho
mass		5    15.99940  # o=
mass		6    15.99940  # oc
mass		7    15.99940  # oh
mass		8    32.06400  # sf

# Potentials

pair_modify	mix sixthpower tail yes
special_bonds	lj/coul 0 0 1

# Pair Coeffs

pair_coeff	 1  1    0.05400    4.01000  # c,c
pair_coeff	 2  2    0.06400    4.01000  # cp,cp
pair_coeff	 3  3    0.02000    2.99500  # hc,hc
pair_coeff	 4  4    0.01300    1.09800  # ho,ho
pair_coeff	 5  5    0.06000    3.53500  # o=,o=
pair_coeff	 6  6    0.24000    3.53500  # oc,oc
pair_coeff	 7  7    0.24000    3.53500  # oh,oh
pair_coeff	 8  8    0.25000    4.02700  # sf,sf

# Bond Coeffs

bond_coeff	 1    1.53000  299.67000 -501.77000  679.81000  # c,c
bond_coeff	 2    1.50100  321.90210 -521.82080  572.16280  # c,cp
bond_coeff	 3    1.10100  345.00000 -691.89000  844.60000  # c,hc
bond_coeff	 4    1.41700  470.83610 -627.61790 1327.63450  # cp,cp
bond_coeff	 5    1.09820  372.82510 -803.45260  894.31730  # cp,hc
bond_coeff	 6    1.37680  428.87980 -738.23510 1114.96550  # cp,oc
bond_coeff	 7    1.37680  428.87980 -738.23510 1114.96550  # cp,oh
bond_coeff	 8    1.72000  239.80240    0.00000    0.00000  # cp,sf
bond_coeff	 9    0.96500  532.50620 -1282.90500 2004.76580  # ho,oh
bond_coeff	10    1.43080  743.76000    0.00000    0.00000  # o=,sf

# Angle Coeffs

angle_coeff	 1  112.67000   39.51600   -7.44300   -9.55830  # c,c,c
angle_coeff	 2  108.40000   43.95940   -8.39240   -9.33790  # c,c,cp
angle_coeff	 3  110.77000   41.45300  -10.60400    5.12900  # c,c,hc
angle_coeff	 4  120.05000   44.71480  -22.73520    0.00000  # c,cp,cp
angle_coeff	 5  111.00000   44.32340   -9.44540    0.00000  # cp,c,cp
angle_coeff	 6  118.90000   61.02260  -34.99310    0.00000  # cp,cp,cp
angle_coeff	 7  117.94000   35.15580  -12.46820    0.00000  # cp,cp,hc
angle_coeff	 8  123.42000   73.67810  -21.67870    0.00000  # cp,cp,oc
angle_coeff	 9  123.42000   73.67810  -21.67870    0.00000  # cp,cp,oh
angle_coeff	10  120.00000   60.00000    0.00000    0.00000  # cp,cp,sf
angle_coeff	11  109.50000   60.00000    0.00000    0.00000  # cp,oc,cp
angle_coeff	12  108.19000   53.12500   -8.50160    0.00000  # cp,oh,ho
angle_coeff	13  102.00000   58.00000    0.00000    0.00000  # cp,sf,cp
angle_coeff	14  113.10000   42.30000    0.00000    0.00000  # cp,sf,o=
angle_coeff	15  107.66000   39.64100  -12.92100   -2.43180  # hc,c,hc
angle_coeff	16  119.32900  135.00000    0.00000    0.00000  # o=,sf,o=

# BondBond Coeffs

angle_coeff	 1 bb    0.00000    1.53000    1.53000  # c,c,c
angle_coeff	 2 bb    0.00000    1.53000    1.50100  # c,c,cp
angle_coeff	 3 bb    3.38720    1.53000    1.10100  # c,c,hc
angle_coeff	 4 bb   12.06760    1.50100    1.41700  # c,cp,cp
angle_coeff	 5 bb    0.00000    1.50100    1.50100  # cp,c,cp
angle_coeff	 6 bb   68.28560    1.41700    1.41700  # cp,cp,cp
angle_coeff	 7 bb    1.07950    1.41700    1.09820  # cp,cp,hc
angle_coeff	 8 bb   48.47540    1.41700    1.37680  # cp,cp,oc
angle_coeff	 9 bb   48.47540    1.41700    1.37680  # cp,cp,oh
angle_coeff	10 bb    0.00000    1.41700    1.72000  # cp,cp,sf
angle_coeff	11 bb    0.00000    1.37680    1.37680  # cp,oc,cp
angle_coeff	12 bb   20.65770    1.37680    0.96500  # cp,oh,ho
angle_coeff	13 bb    0.00000    1.72000    1.72000  # cp,sf,cp
angle_coeff	14 bb    0.00000    1.72000    1.43080  # cp,sf,o=
angle_coeff	15 bb    5.33160    1.10100    1.10100  # hc,c,hc
angle_coeff	16 bb   40.00000    1.43080    1.43080  # o=,sf,o=

# BondAngle Coeffs

angle_coeff	 1 ba    8.01600    8.01600    1.53000    1.53000  # c,c,c
angle_coeff	 2 ba    0.00000    0.00000    1.53000    1.50100  # c,c,cp
angle_coeff	 3 ba   20.75400   11.42100    1.53000    1.10100  # c,c,hc
angle_coeff	 4 ba   47.05790   31.07710    1.50100    1.41700  # c,cp,cp
angle_coeff	 5 ba    0.00000    0.00000    1.50100    1.50100  # cp,c,cp
angle_coeff	 6 ba   28.87080   28.87080    1.41700    1.41700  # cp,cp,cp
angle_coeff	 7 ba   20.00330   24.21830    1.41700    1.09820  # cp,cp,hc
angle_coeff	 8 ba   58.47900  107.68060    1.41700    1.37680  # cp,cp,oc
angle_coeff	 9 ba   58.47900  107.68060    1.41700    1.37680  # cp,cp,oh
angle_coeff	10 ba    0.00000    0.00000    1.41700    1.72000  # cp,cp,sf
angle_coeff	11 ba    0.00000    0.00000    1.37680    1.37680  # cp,oc,cp
angle_coeff	12 ba   53.86140   23.92240    1.37680    0.96500  # cp,oh,ho
angle_coeff	13 ba    0.00000    0.00000    1.72000    1.72000  # cp,sf,cp
angle_coeff	14 ba    0.00000    0.00000    1.72000    1.43080  # cp,sf,o=
angle_coeff	15 ba   18.10300   18.10300    1.10100    1.10100  # hc,c,hc
angle_coeff	16 ba    0.00000    0.00000    1.43080    1.43080  # o=,sf,o=

# Dihedral Coeffs

dihedral_coeff	 1    0.00000    0.00000    0.03160    0.00000   -0.16810    0.00000  # c,c,c,hc
dihedral_coeff	 2   -0.28020    0.00000   -0.06780    0.00000   -0.01220    0.00000  # c,c,cp,cp
dihedral_coeff	 3    0.00000    0.00000    4.40720    0.00000    0.00000    0.00000  # c,cp,cp,cp
dihedral_coeff	 4    0.00000    0.00000    1.55900    0.00000    0.00000    0.00000  # c,cp,cp,hc
dihedral_coeff	 5   -0.02280    0.00000    0.02800    0.00000   -0.18630    0.00000  # cp,c,c,hc
dihedral_coeff	 6   -0.28020    0.00000   -0.06780    0.00000   -0.01220    0.00000  # cp,c,cp,cp
dihedral_coeff	 7    8.36670    0.00000    1.19320    0.00000    0.00000    0.00000  # cp,cp,cp,cp
dihedral_coeff	 8    0.00000    0.00000    3.96610    0.00000    0.00000    0.00000  # cp,cp,cp,hc
dihedral_coeff	 9    0.00000    0.00000    4.84980    0.00000    0.00000    0.00000  # cp,cp,cp,oc
dihedral_coeff	10    0.00000    0.00000    4.84980    0.00000    0.00000    0.00000  # cp,cp,cp,oh
dihedral_coeff	11    0.00000    0.00000    3.00000    0.00000    0.00000    0.00000  # cp,cp,cp,sf
dihedral_coeff	12    0.00000    0.00000    1.80000    0.00000    0.00000    0.00000  # cp,cp,oc,cp
dihedral_coeff	13   -0.69000    0.00000    0.50970    0.00000    0.00950    0.00000  # cp,cp,oh,ho
dihedral_coeff	14    0.00000    0.00000    1.50000    0.00000    0.00000    0.00000  # cp,cp,sf,cp
dihedral_coeff	15    0.00000    0.00000    1.50000    0.00000    0.00000    0.00000  # cp,cp,sf,o=
dihedral_coeff	16    0.00000    0.00000    1.87690    0.00000    0.00000    0.00000  # hc,cp,cp,hc
dihedral_coeff	17    0.00000    0.00000    1.72340    0.00000    0.00000    0.00000  # hc,cp,cp,oc
dihedral_coeff	18    0.00000    0.00000    1.72340    0.00000    0.00000    0.00000  # hc,cp,cp,oh
dihedral_coeff	19    0.00000    0.00000    3.00000    0.00000    0.00000    0.00000  # hc,cp,cp,sf

# MiddleBondTorsion Coeffs

dihedral_coeff	 1 mbt  -14.87900   -3.65810   -0.31380    1.53000  # c,c,c,hc
dihedral_coeff	 2 mbt    0.00000    0.00000    0.00000    1.50100  # c,c,cp,cp
dihedral_coeff	 3 mbt    0.00000    9.17920    0.00000    1.41700  # c,cp,cp,cp
dihedral_coeff	 4 mbt    0.00000    3.94210    0.00000    1.41700  # c,cp,cp,hc
dihedral_coeff	 5 mbt    0.00000    0.00000    0.00000    1.53000  # cp,c,c,hc
dihedral_coeff	 6 mbt    0.00000    0.00000    0.00000    1.50100  # cp,c,cp,cp
dihedral_coeff	 7 mbt   27.59890   -2.31200    0.00000    1.41700  # cp,cp,cp,cp
dihedral_coeff	 8 mbt    0.00000   -1.15210    0.00000    1.41700  # cp,cp,cp,hc
dihedral_coeff	 9 mbt    0.00000    4.82550    0.00000    1.41700  # cp,cp,cp,oc
dihedral_coeff	10 mbt    0.00000    4.82550    0.00000    1.41700  # cp,cp,cp,oh
dihedral_coeff	11 mbt    0.00000    0.00000    0.00000    1.41700  # cp,cp,cp,sf
dihedral_coeff	12 mbt    0.00000    0.00000    0.00000    1.37680  # cp,cp,oc,cp
dihedral_coeff	13 mbt    1.15800    3.26970    3.51320    1.37680  # cp,cp,oh,ho
dihedral_coeff	14 mbt    0.00000    0.00000    0.00000    1.72000  # cp,cp,sf,cp
dihedral_coeff	15 mbt    0.00000    0.00000    0.00000    1.72000  # cp,cp,sf,o=
dihedral_coeff	16 mbt    0.00000    4.82280    0.00000    1.41700  # hc,cp,cp,hc
dihedral_coeff	17 mbt    0.00000    5.54320    0.00000    1.41700  # hc,cp,cp,oc
dihedral_coeff	18 mbt    0.00000    5.54320    0.00000    1.41700  # hc,cp,cp,oh
dihedral_coeff	19 mbt    0.00000    0.00000    0.00000    1.41700  # hc,cp,cp,sf

# EndBondTorsion Coeffs

dihedral_coeff	 1 ebt    0.24860    0.24220   -0.09250    0.08140    0.05910    0.22190    1.53000    1.10100  # c,c,c,hc
dihedral_coeff	 2 ebt    0.00000    0.00000    0.00000    0.00000    0.00000    0.00000    1.53000    1.41700  # c,c,cp,cp
dihedral_coeff	 3 ebt    0.00000    0.24210    0.00000    0.00000   -0.69180    0.00000    1.50100    1.41700  # c,cp,cp,cp
dihedral_coeff	 4 ebt    0.00000   -1.79700    0.00000    0.00000   -0.48790    0.00000    1.50100    1.09820  # c,cp,cp,hc
dihedral_coeff	 5 ebt    0.00000    0.00000    0.00000    0.00000    0.00000    0.00000    1.50100    1.10100  # cp,c,c,hc
dihedral_coeff	 6 ebt    0.00000    0.00000    0.00000    0.00000    0.00000    0.00000    1.50100    1.41700  # cp,c,cp,cp
dihedral_coeff	 7 ebt   -0.11850    6.32040    0.00000   -0.11850    6.32040    0.00000    1.41700    1.41700  # cp,cp,cp,cp
dihedral_coeff	 8 ebt    0.00000   -6.89580    0.00000    0.00000   -0.46690    0.00000    1.41700    1.09820  # cp,cp,cp,hc
dihedral_coeff	 9 ebt    0.00000    0.26550    0.00000    0.00000    4.89050    0.00000    1.41700    1.37680  # cp,cp,cp,oc
dihedral_coeff	10 ebt    0.00000    0.26550    0.00000    0.00000    4.89050    0.00000    1.41700    1.37680  # cp,cp,cp,oh
dihedral_coeff	11 ebt    0.00000    0.00000    0.00000    0.00000    0.00000    0.00000    1.41700    1.72000  # cp,cp,cp,sf
dihedral_coeff	12 ebt    0.00000    0.00000    0.00000    0.00000    0.00000    0.00000    1.41700    1.37680  # cp,cp,oc,cp
dihedral_coeff	13 ebt    0.90000   -1.34560    1.19000    3.41320    0.58730   -0.13230    1.41700    0.96500  # cp,cp,oh,ho
dihedral_coeff	14 ebt    0.00000    0.00000    0.00000    0.00000    0.00000    0.00000    1.41700    1.72000  # cp,cp,sf,cp
dihedral_coeff	15 ebt    0.00000    0.00000    0.00000    0.00000    0.00000    0.00000    1.41700    1.43080  # cp,cp,sf,o=
dihedral_coeff	16 ebt    0.00000   -0.68900    0.00000    0.00000   -0.68900    0.00000    1.09820    1.09820  # hc,cp,cp,hc
dihedral_coeff	17 ebt    0.00000   -1.58670    0.00000    0.00000    4.26410    0.00000    1.09820    1.37680  # hc,cp,cp,oc
dihedral_coeff	18 ebt    0.00000   -1.58670    0.00000    0.00000    4.26410    0.00000    1.09820    1.37680  # hc,cp,cp,oh
dihedral_coeff	19 ebt    0.00000    0.00000    0.00000    0.00000    0.00000    0.00000    1.09820    1.72000  # hc,cp,cp,sf

# AngleTorsion Coeffs

dihedral_coeff	 1 at   -0.24540    0.00000   -0.11360    0.31130    0.45160   -0.19880  112.67000  110.77000  # c,c,c,hc
dihedral_coeff	 2 at    0.00000    0.00000    0.00000    0.00000    0.00000    0.00000  108.40000  120.05000  # c,c,cp,cp
dihedral_coeff	 3 at    0.00000   -4.46830    0.00000    0.00000    3.89870    0.00000  120.05000  118.90000  # c,cp,cp,cp
dihedral_coeff	 4 at    0.00000   -0.12420    0.00000    0.00000    3.46010    0.00000  120.05000  117.94000  # c,cp,cp,hc
dihedral_coeff	 5 at    0.00000    0.00000    0.00000    0.00000    0.00000    0.00000  108.40000  110.77000  # cp,c,c,hc
dihedral_coeff	 6 at    0.00000    0.00000    0.00000    0.00000    0.00000    0.00000  111.00000  120.05000  # cp,c,cp,cp
dihedral_coeff	 7 at    1.97670    1.02390    0.00000    1.97670    1.02390    0.00000  118.90000  118.90000  # cp,cp,cp,cp
dihedral_coeff	 8 at    0.00000    2.50140    0.00000    0.00000    2.71470    0.00000  118.90000  117.94000  # cp,cp,cp,hc
dihedral_coeff	 9 at    0.00000   10.01550    0.00000    0.00000    1.74040    0.00000  118.90000  123.42000  # cp,cp,cp,oc
dihedral_coeff	10 at    0.00000   10.01550    0.00000    0.00000    1.74040    0.00000  118.90000  123.42000  # cp,cp,cp,oh
dihedral_coeff	11 at    0.00000    0.00000    0.00000    0.00000    0.00000    0.00000  118.90000  120.00000  # cp,cp,cp,sf
dihedral_coeff	12 at    0.00000    0.00000    0.00000    0.00000    0.00000    0.00000  123.42000  109.50000  # cp,cp,oc,cp
dihedral_coeff	13 at   -5.13600   -1.01220    0.00000    4.68520    0.02300   -0.59800  123.42000  108.19000  # cp,cp,oh,ho
dihedral_coeff	14 at    0.00000    0.00000    0.00000    0.00000    0.00000    0.00000  120.00000  102.00000  # cp,cp,sf,cp
dihedral_coeff	15 at    0.00000    0.00000    0.00000    0.00000    0.00000    0.00000  120.00000  113.10000  # cp,cp,sf,o=
dihedral_coeff	16 at    0.00000    2.45010    0.00000    0.00000    2.45010    0.00000  117.94000  117.94000  # hc,cp,cp,hc
dihedral_coeff	17 at    0.00000    1.87290    0.00000    0.00000    2.57060    0.00000  117.94000  123.42000  # hc,cp,cp,oc
dihedral_coeff	18 at    0.00000    1.87290    0.00000    0.00000    2.57060    0.00000  117.94000  123.42000  # hc,cp,cp,oh
dihedral_coeff	19 at    0.00000    0.00000    0.00000    0.00000    0.00000    0.00000  117.94000  120.00000  # hc,cp,cp,sf

# AngleAngleTorsion Coeffs

dihedral_coeff	 1 aat  -16.16400  112.67000  110.77000  # c,c,c,hc
dihedral_coeff	 2 aat    0.00000  108.40000  120.05000  # c,c,cp,cp
dihedral_coeff	 3 aat  -14.40970  120.05000  118.90000  # c,cp,cp,cp
dihedral_coeff	 4 aat    4.44440  120.05000  117.94000  # c,cp,cp,hc
dihedral_coeff	 5 aat    0.00000  108.40000  110.77000  # cp,c,c,hc
dihedral_coeff	 6 aat    0.00000  111.00000  120.05000  # cp,c,cp,cp
dihedral_coeff	 7 aat    0.00000  118.90000  118.90000  # cp,cp,cp,cp
dihedral_coeff	 8 aat   -4.81410  118.90000  117.94000  # cp,cp,cp,hc
dihedral_coeff	 9 aat  -21.02470  118.90000  123.42000  # cp,cp,cp,oc
dihedral_coeff	10 aat  -21.02470  118.90000  123.42000  # cp,cp,cp,oh
dihedral_coeff	11 aat    0.00000  118.90000  120.00000  # cp,cp,cp,sf
dihedral_coeff	12 aat    0.00000  123.42000  109.50000  # cp,cp,oc,cp
dihedral_coeff	13 aat   -4.60720  123.42000  108.19000  # cp,cp,oh,ho
dihedral_coeff	14 aat    0.00000  120.00000  102.00000  # cp,cp,sf,cp
dihedral_coeff	15 aat    0.00000  120.00000  113.10000  # cp,cp,sf,o=
dihedral_coeff	16 aat    0.35980  117.94000  117.94000  # hc,cp,cp,hc
dihedral_coeff	17 aat    4.22960  117.94000  123.42000  # hc,cp,cp,oc
dihedral_coeff	18 aat    4.22960  117.94000  123.42000  # hc,cp,cp,oh
dihedral_coeff	19 aat    0.00000  117.94000  120.00000  # hc,cp,cp,sf

# BondBond13 Coeffs

dihedral_coeff	 1 bb13    0.00000    1.53000    1.10100  # c,c,c,hc
dihedral_coeff	 2 bb13    0.00000    1.53000    1.41700  # c,c,cp,cp
dihedral_coeff	 3 bb13    2.50850    1.50100    1.41700  # c,cp,cp,cp
dihedral_coeff	 4 bb13    0.87430    1.50100    1.09820  # c,cp,cp,hc
dihedral_coeff	 5 bb13    0.00000    1.50100    1.10100  # cp,c,c,hc
dihedral_coeff	 6 bb13    0.00000    1.50100    1.41700  # cp,c,cp,cp
dihedral_coeff	 7 bb13   53.00000    1.41700    1.41700  # cp,cp,cp,cp
dihedral_coeff	 8 bb13   -6.27410    1.41700    1.09820  # cp,cp,cp,hc
dihedral_coeff	 9 bb13   -2.24360    1.41700    1.37680  # cp,cp,cp,oc
dihedral_coeff	10 bb13   -2.24360    1.41700    1.37680  # cp,cp,cp,oh
dihedral_coeff	11 bb13    0.00000    1.41700    1.72000  # cp,cp,cp,sf
dihedral_coeff	12 bb13    0.00000    1.41700    1.37680  # cp,cp,oc,cp
dihedral_coeff	13 bb13    1.15900    1.41700    0.96500  # cp,cp,oh,ho
dihedral_coeff	14 bb13    0.00000    1.41700    1.72000  # cp,cp,sf,cp
dihedral_coeff	15 bb13    0.00000    1.41700    1.43080  # cp,cp,sf,o=
dihedral_coeff	16 bb13   -1.70770    1.09820    1.09820  # hc,cp,cp,hc
dihedral_coeff	17 bb13    2.05170    1.09820    1.37680  # hc,cp,cp,oc
dihedral_coeff	18 bb13    2.05170    1.09820    1.37680  # hc,cp,cp,oh
dihedral_coeff	19 bb13    0.00000    1.09820    1.72000  # hc,cp,cp,sf

# Improper Coeffs

improper_coeff	 1    0.00000    0.00000  # c,c,c,cp
improper_coeff	 2    0.00000    0.00000  # c,c,cp,cp
improper_coeff	 3    0.00000    0.00000  # c,c,hc,hc
improper_coeff	 4    0.00000    0.00000  # c,hc,hc,hc
improper_coeff	 5    7.81530    0.00000  # cp,c,cp,cp
improper_coeff	 6    4.89120    0.00000  # cp,cp,cp,hc
improper_coeff	 7   13.04210    0.00000  # cp,cp,cp,oc
improper_coeff	 8   13.04210    0.00000  # cp,cp,cp,oh
improper_coeff	 9    0.00000    0.00000  # cp,cp,cp,sf
improper_coeff	10    0.00000    0.00000  # sf,cp,cp,o=
improper_coeff	11    0.00000    0.00000  # sf,cp,o=,o=

# AngleAngle Coeffs

improper_coeff	 1 aa    0.00000    0.00000    0.00000  112.67000  108.40000  108.40000  # c,c,c,cp
improper_coeff	 2 aa    0.00000    0.00000    0.00000  108.40000  108.40000  111.00000  # c,c,cp,cp
improper_coeff	 3 aa    0.27380   -0.48250    0.27380  110.77000  110.77000  107.66000  # c,c,hc,hc
improper_coeff	 4 aa   -0.31570   -0.31570   -0.31570  107.66000  107.66000  107.66000  # c,hc,hc,hc
improper_coeff	 5 aa    0.00000    0.00000    0.00000  120.05000  120.05000  118.90000  # cp,c,cp,cp
improper_coeff	 6 aa    0.00000    0.00000    0.00000  118.90000  117.94000  117.94000  # cp,cp,cp,hc
improper_coeff	 7 aa    0.00000    0.00000    0.00000  118.90000  123.42000  123.42000  # cp,cp,cp,oc
improper_coeff	 8 aa    0.00000    0.00000    0.00000  118.90000  123.42000  123.42000  # cp,cp,cp,oh
improper_coeff	 9 aa    0.00000    0.00000    0.00000  118.90000  120.00000  120.00000  # cp,cp,cp,sf
improper_coeff	10 aa    0.00000    0.00000    0.00000  102.00000  113.10000  113.10000  # sf,cp,cp,o=
improper_coeff	11 aa    0.00000    0.00000    0.00000  113.10000  113.10000  119.32900  # sf,cp,o=,o=


# --- Thermo Output ---
thermo_style custom step time temp press enthalpy etotal ke pe ebond eangle edihed eimp evdwl ecoul elong etail vol lx ly lz density pxx pyy pzz
thermo_modify flush yes
thermo 1000

# --- Trajectory ---
dump dump_npt all custom 1000 npt_prod300.dump id type mol x y z ix iy iz vx vy vz

# --- Restart Checkpointing ---
# No restart checkpointing

# --- Initial Velocities (optional) ---
# Velocities read from data file

# --- SHAKE Constraints ---
# SHAKE disabled

# --- NPT Thermostat + Barostat (Nose-Hoover) ---
# T_damp = 100.0 fs  (heat bath coupling)
# P_damp = 1000.0 fs  (pressure bath coupling, ~10x T_damp typical)
# Ramp: T=300.0->300.0K  P=1.0->1.0atm
timestep 1.0
fix npt_fix all npt temp 300.0 300.0 100.0 iso 1.0 1.0 1000.0

run 2000000
PPPM Kokkos initialization ...
  using 12-bit tables for long-range coulomb
  G vector (1/distance) = 0.30193468
  grid = 36 36 36
  stencil order = 5
  estimated absolute RMS force accuracy = 0.00028845447
  estimated relative force accuracy = 8.6867208e-07
  using double precision cuFFT
  3d grid and FFT values/proc = 79507 46656
Generated 28 of 28 mixed pair_coeff terms from sixthpower/sixthpower mixing rule
Neighbor list info ...
  update: every = 1 steps, delay = 0 steps, check = yes
  max neighbors/atom: 4000, page size: 100000
  master list distance cutoff = 11.5
  ghost atom cutoff = 11.5
  binsize = 11.5, bins = 5 5 5
  1 neighbor lists, perpetual/occasional/extra = 1 0 0
  (1) pair lj/class2/coul/long/kk, perpetual
      attributes: full, newton off, kokkos_device
      pair build: full/bin/kk/device
      stencil: full/bin/3d
      bin: kk/device
Per MPI rank memory allocation (min/avg/max) = 63.61 | 63.61 | 63.61 Mbytes
   Step          Time           Temp          Press         Enthalpy        TotEng         KinEng         PotEng         E_bond        E_angle        E_dihed        E_impro         E_vdwl         E_coul         E_long         E_tail         Volume           Lx             Ly             Lz          Density          Pxx            Pyy            Pzz      
         0   0              303.09421      614.64731      25513.635      24398.651      9770.9878      14627.664      4969.9411      4969.9224      3845.8629      384.04097     -518.37142      8119.2187     -7142.951      -879.04845      124384.59      49.91781       49.91781       49.91781       1.181795       1353.5868      1094.0188     -603.66372    
      1000   1000           302.73236     -414.41174      23691.434      24445.937      9759.3225      14686.614      4918.3319      5050.3742      3932.4191      390.12132     -579.29362      8112.5981     -7137.9367     -875.84355      124839.74      49.978623      49.978623      49.978623      1.1774864      552.21139     -396.90706     -1398.5396    
      2000   2000           299.02457     -376.81805      23651.812      24337.293      9639.7929      14697.5        4945.3344      5026.6299      3853.5452      388.08675     -501.74162      8123.4731     -7137.8273     -876.57888      124735.02      49.964644      49.964644      49.964644      1.1784749     -1090.2305     -420.43054      380.20691    
      3000   3000           299.06994     -259.24809      23658.141      24127.897      9641.2555      14486.642      4903.2722      4900.5533      3869.1689      392.47385     -558.33343      8120.4014     -7140.8942     -880.03092      124245.73      49.899227      49.899227      49.899227      1.1831159      331.41379     -517.27973     -591.87834    
      4000   4000           299.08011      974.36042      25940.56       24168.819      9641.5832      14527.236      4989.584       4982.9127      3718.0147      375.33735     -513.32784      8113.9654     -7139.2501     -876.94971      124682.27      49.9576        49.9576        49.9576        1.1789735      1642.8858     -498.59866      1778.7941    
      5000   5000           297.29676     -700.8254       22944.982      24216.124      9584.0926      14632.032      4985.3094      4958.8747      3924.7527      380.81997     -598.64086      8121.1414     -7140.2257     -879.16612      124367.94      49.915583      49.915583      49.915583      1.1819532     -660.7849      -180.45287     -1261.2384    
      6000   6000           301.0426      -848.82188      22808.789      24361.538      9704.8489      14656.69       4960.0212      5120.808       3746.5152      370.57715     -527.34137      8121.5434     -7135.434      -871.70702      125432.15      50.057553      50.057553      50.057553      1.1719252     -1264.7491     -1511.4646      229.74804    
      7000   7000           300.86755     -291.01605      23811.446      24340.814      9699.2057      14641.608      4901.8608      5041.2574      3909.287       375.50772     -551.0901       8104.8696     -7140.0841     -876.62631      124728.27      49.963743      49.963743      49.963743      1.1785387     -166.33673     -118.29183     -588.4196     
      8000   8000           300.37434     -63.755885      24224.071      24340.328      9683.306       14657.022      4907.1352      5030.52        3866.2481      375.08252     -486.90856      8105.4943     -7140.5501     -874.49702      125031.97      50.004262      50.004262      50.004262      1.1756761     -659.45158      56.237895      411.94603    
      9000   9000           297.06252     -2006.1136      20656.023      24319.985      9576.5415      14743.443      4956.1171      5035.7051      3992.1509      375.25369     -612.64085      8129.347      -7132.4897     -873.09188      125233.19      50.031073      50.031073      50.031073      1.173787      -2280.9568     -2384.1225     -1353.2617    
     10000   10000          298.57326     -171.75972      24021.495      24334.761      9625.2437      14709.518      4858.5269      5091.8581      3860.8364      384.30617     -483.05624      8134.7924     -7137.7462     -874.30563      125059.34      50.00791       50.00791       50.00791       1.1754188     -214.71783     -88.439379     -212.12195    
     11000   11000          305.4217      -890.16695      22755.869      24382.205      9846.0199      14536.185      4824.396       4974.955       3889.1202      387.9687      -540.24464      8134.6991     -7134.7096     -872.80369      125274.54      50.036579      50.036579      50.036579      1.1733996     -516.96731     -1288.5038     -865.0297     
     12000   12000          300.11437     -612.96921      23085.653      24204.194      9674.9251      14529.269      4817.6107      5092.8641      3847.1049      391.20393     -609.11109      8128.2101     -7138.6139     -873.8605       125123.04      50.0164        50.0164        50.0164        1.1748203     -857.6382      -1243.3522      262.08282    
     13000   13000          300.45563      1266.4596      26617.379      24315.523      9685.9264      14629.597      4957.4593      5103.1958      3703.2169      366.85763     -497.48219      8131.2804     -7134.9309     -877.34139      124626.61      49.950165      49.950165      49.950165      1.1795001      1735.3603      832.57375      1231.4447    
     14000   14000          300.29202     -349.3445       23852.816      24492.425      9680.6522      14811.773      5068.3669      5049.006       3811.9584      387.56501     -503.54719      8133.1966     -7134.7727     -870.95289      125540.75      50.071997      50.071997      50.071997      1.1709113     -288.77558      301.55145     -1060.8094    
     15000   15000          292.39498      300.04144      24731.079      24184.1        9426.0718      14758.028      4966.1289      5020.8037      3865.0458      378.75813     -461.38422      8124.5997     -7135.9241     -874.71299      125001.1       50.000146      50.000146      50.000146      1.1759664     -199.4188       643.03328      456.50985    
     16000   16000          301.10528     -585.22761      23308.352      24372.465      9706.8695      14665.595      4873.7474      5152.132       3880.9833      386.3976      -618.32636      8129.0017     -7138.3405     -876.9856       124677.17      49.956919      49.956919      49.956919      1.1790217     -749.22284     -910.76446     -95.695533    
     17000   17000          298.68505      242.5636       24813.444      24373.643      9628.8477      14744.795      4916.8848      5087.6824      3886.6874      385.89809     -506.03447      8111.9697     -7138.2926     -879.47665      124324.03      49.909708      49.909708      49.909708      1.1823707      1059.7694     -238.60498     -93.473625    
     18000   18000          300.46632      238.11383      24839.692      24407.129      9686.2713      14720.858      4877.1751      5028.0671      3948.47        390.41783     -521.5687       8131.958      -7133.6613     -877.78984      124562.94      49.941657      49.941657      49.941657      1.180103      -655.25061      731.10656      638.48555    
     19000   19000          300.70602      421.89664      25010.882      24243.537      9693.9985      14549.539      4881.6977      5036.4338      3789.5985      381.88268     -531.89491      8129.5432     -7137.7223     -876.74013      124712.08      49.961581      49.961581      49.961581      1.1786917     -718.83088      1080.1575      904.36331    
     20000   20000          298.11938     -45.336151      24303.265      24385.71       9610.6119      14775.098      4950.6158      5042.3701      3937.4227      397.65086     -541.53048      8129.3849     -7140.8155     -876.86389      124694.48      49.95923       49.95923       49.95923       1.1788581     -542.55248     -8.2908597      414.83489    
     21000   21000          299.71078      1685.3763      27428.373      24356.248      9661.9146      14694.333      5020.842       4974.104       3808.0045      385.79993     -492.65035      8136.2485     -7138.0153     -874.80905      124987.37      49.998316      49.998316      49.998316      1.1760956      1544.2984      963.72179      2548.1088    
     22000   22000          303.02115      643.49046      25583.445      24415.14       9768.6324      14646.507      4907.9221      5075.4048      3790.05        400.37586     -517.18099      8128.0827     -7138.1473     -878.29594      124491.16      49.932063      49.932063      49.932063      1.1807834      1244.1123      112.12796      574.23111    
     23000   23000          299.32637      804.35197      25879.752      24419.371      9649.5221      14769.849      5085.944       5058.2252      3825.8941      392.50581     -591.07852      8137.579      -7139.221      -878.28459      124492.77      49.932278      49.932278      49.932278      1.1807681      1885.2964     -108.92251      636.68205    
     24000   24000          295.3383      -46.937984      24145.016      24230.299      9520.9568      14709.342      4925.6428      5083.337       3910.9108      386.71664     -588.81814      8130.066      -7138.5132     -877.64391      124583.65      49.944425      49.944425      49.944425      1.1799068      1348.319       106.22766     -1595.3606    
     25000   25000          301.98791     -917.15876      22758.048      24431.206      9735.3235      14695.883      4989.5849      5035.9121      3836.7952      384.41536     -549.85702      8133.6826     -7134.6505     -874.10367      125088.23      50.011761      50.011761      50.011761      1.1751473     -1223.9541     -190.06057     -1337.4616    
     26000   26000          301.31719     -555.70797      23335.939      24347.27       9713.701       14633.569      4811.7798      5077.1738      3949.6314      394.45393     -582.46152      8122.2923     -7139.3011     -876.21083      124787.41      49.971639      49.971639      49.971639      1.1779801     -1056.4465      421.94519     -1032.6226    
     27000   27000          295.0907      -1082.6626      22290.974      24259.063      9512.9749      14746.088      4908.5648      5096.1315      3961.3259      378.02652     -599.48258      8137.3461     -7135.8243     -877.21039      124645.22      49.952651      49.952651      49.952651      1.1793239     -417.94578     -1906.3407     -923.70148    
     28000   28000          297.41611     -568.38524      23233.876      24269.418      9587.9402      14681.478      4886.4991      5087.3681      3843.2614      384.94809     -508.19123      8126.7996     -7139.2072     -875.24616      124924.95      49.989991      49.989991      49.989991      1.1766832      369.49418     -809.20094     -1265.449     
     29000   29000          301.92644      194.90539      24715.233      24360.199      9733.3418      14626.858      4922.4417      5064.2092      3826.9564      383.09183     -578.45832      8139.2402     -7130.6234     -875.40646      124902.07      49.98694       49.98694       49.98694       1.1768987      311.31687      374.49865     -101.09934    
     30000   30000          297.06177     -555.54822      23158.655      24173.983      9576.5172      14597.466      4934.6297      4995.9139      3879.1945      388.82905     -593.56022      8131.2869     -7138.8282     -872.51034      125316.66      50.042186      50.042186      50.042186      1.1730052     -1572.051      -650.27025      555.67656    
     31000   31000          300.70164     -1064.0192      22454.726      24391.207      9693.8573      14697.35       4928.7818      5069.0245      3897.0456      384.75707     -587.27394      8137.4997     -7132.4851     -876.17646      124792.31      49.972292      49.972292      49.972292      1.1779339     -462.62307     -1579.0478     -1150.3868    
     32000   32000          300.07717     -1032.8458      22509.84       24385.699      9673.7259      14711.973      4932.2601      5089.2711      3881.5546      376.41762     -561.55901      8130.161      -7136.1327     -877.99221      124534.23      49.93782       49.93782       49.93782       1.180375      -1370.5434     -211.35503     -1516.6389    
     33000   33000          297.00315      819.70022      25655.679      24168.25       9574.6272      14593.623      4892.1779      5095.1433      3812.7619      383.27848     -568.04432      8113.0858     -7134.7804     -878.7677       124424.33      49.923126      49.923126      49.923126      1.1814176      528.03921      1784.743       146.3184     
     34000   34000          300.22334     -1015.7254      22390.385      24240.583      9678.4382      14562.145      4882.8227      4998.6546      3917.9523      377.81332     -592.98489      8116.0252     -7138.1383     -875.41371      124901.04      49.986802      49.986802      49.986802      1.1769085     -326.47057     -1549.3286     -1171.377     
     35000   35000          300.1576      -320.53183      23687.514      24271.768      9676.3188      14595.449      4988.337       5022.7864      3786.4257      373.81594     -570.6359       8131.1172     -7136.397      -874.83259      124984.01      49.997868      49.997868      49.997868      1.1761272     -472.57298     -242.56055     -246.46195    
     36000   36000          296.74712      392.94499      25012.616      24294.352      9566.3736      14727.979      4933.9011      5068.6508      3838.3945      397.68641     -503.93552      8130.5609     -7137.2796     -872.37529      125336.06      50.044768      50.044768      50.044768      1.1728236      144.62994      1440.0028     -405.79779    
     37000   37000          298.95304     -861.01966      22611.713      24178.937      9637.4868      14541.45       4901.5289      4986.6573      3874.5738      378.62975     -575.7113       8111.9066     -7136.1347     -876.0666       124807.96      49.974381      49.974381      49.974381      1.1777862     -1399.6211     -1396.7449      213.30699    
     38000   38000          301.25767     -236.80511      23821.962      24250.737      9711.7823      14538.955      4926.5618      4849.9029      3966.3697      392.55987     -582.66865      8125.7668     -7139.5379     -880.67679      124154.61      49.887026      49.887026      49.887026      1.1839842      705.59753     -836.90299     -579.10986    
     39000   39000          300.30758      172.90555      24487.267      24173.325      9681.1537      14492.171      4917.2716      4863.3092      3900.9163      398.70277     -561.45806      8115.7981     -7142.3686     -878.24304      124498.66      49.933065      49.933065      49.933065      1.1807122     -275.89773     -61.541152      856.15553    
     40000   40000          300.90801      1159.1418      26473.499      24373.01       9700.51        14672.5        4969.3123      4983.9219      3854.5406      390.79938     -509.95233      8124.508      -7140.6302     -879.97709      124253.33      49.900245      49.900245      49.900245      1.1830435      1058.0224      2863.1423     -443.73943    
     41000   41000          298.96025     -259.08252      23819.854      24291.256      9637.7194      14653.536      4904.4009      5044.6537      3868.9368      388.41756     -539.37604      8122.0572     -7135.5538     -876.39972      124760.52      49.968049      49.968049      49.968049      1.1782341     -141.17336     -312.52761     -323.54657    
     42000   42000          298.17        -486.16097      23247.654      24132.499      9612.2438      14520.255      4840.9549      4961.1757      3889.2601      386.0078      -551.78586      8129.719      -7135.0763     -876.12909      124799.05      49.973193      49.973193      49.973193      1.1778702     -373.29393     -325.14164     -760.04734    
     43000   43000          296.93688     -689.72996      22998.203      24251.472      9572.491       14678.981      4788.1123      5038.1659      3958.0152      377.18165     -462.79518      8118.577      -7138.2764     -877.58679      124591.76      49.945509      49.945509      49.945509      1.17983       -999.50662     -612.98548     -456.69779    
     44000   44000          301.54025      36.254654      24557.559      24491.514      9720.8919      14770.622      5046.4881      5005.1145      3824.0786      400.09196     -495.47152      8127.568      -7137.248      -875.34064      124911.47      49.988193      49.988193      49.988193      1.1768102      10.442512      314.11654     -215.79509    
     45000   45000          299.82997     -634.89511      23156.84       24315.729      9665.7568      14649.972      4910.0593      4989.5196      3933.7127      380.34919     -550.8354       8124.7165     -7137.5494     -873.60555      125159.56      50.021265      50.021265      50.021265      1.1744776     -482.78804     -276.8914      -1145.0059    
     46000   46000          301.71346     -69.894638      24408.423      24535.641      9726.4758      14809.166      4978.5421      5144.8213      3834.3757      385.96371     -534.08772      8132.8971     -7133.3466     -876.08942      124804.7       49.973947      49.973947      49.973947      1.1778169      228.77413      123.1391      -561.59714    
     47000   47000          301.97324     -484.09601      23554          24433.639      9734.8506      14698.789      4782.1743      5007.7725      3996.8102      404.69306     -473.32983      8120.2971     -7139.6289     -877.57122      124593.97      49.945804      49.945804      49.945804      1.179809       670.05495     -1942.4951     -179.84787    
     48000   48000          297.75455      422.17195      24977.798      24209.837      9598.8506      14610.986      4858.2888      5040.4119      3853.3805      381.12301     -514.32267      8123.8923     -7131.7879     -876.6076       124730.93      49.964098      49.964098      49.964098      1.1785135      93.036672      575.48602      597.99317    
     49000   49000          299.93705      1235.0903      26442.718      24194.661      9669.2088      14525.452      4873.2037      5049.5886      3762.6543      365.13593     -514.2583       8123.1963     -7134.068      -876.08608      124805.18      49.974011      49.974011      49.974011      1.1778124      1976.1707      858.97589      870.12422    
     50000   50000          300.28813     -39.522111      24327.552      24399.401      9680.5267      14718.874      4922.6448      5073.2089      3862.1058      373.91949     -505.27266      8127.9253     -7135.6575     -877.15067      124653.71      49.953785      49.953785      49.953785      1.1792437     -214.25953     -944.57969      1040.2729    
     51000   51000          300.00179     -1076.2111      22221.76       24190.228      9671.296       14518.932      4900.6732      4888.0909      3874.3096      376.29594     -510.82956      8127.435      -7137.0436     -871.81538      125416.56      50.055479      50.055479      50.055479      1.1720709     -795.0205      -851.47047     -1582.1424    
     52000   52000          303.75932     -1333.135       21929.212      24368.048      9792.4293      14575.618      4909.8498      4976.383       3899.9969      391.59663     -578.52966      8114.4963     -7138.1747     -871.65962      125438.97      50.05846       50.05846       50.05846       1.1718615     -1160.2551     -1632.8881     -1206.2618    
     53000   53000          297.23663     -636.74125      23083.681      24237.446      9582.1542      14655.292      4892.9071      5040.5797      3912.8547      372.42646     -555.95824      8127.0377     -7134.5557     -880.03726      124244.83      49.899108      49.899108      49.899108      1.1831244     -1239.0076     -1534.7577      863.54158    
     54000   54000          303.27526      578.61161      25481.255      24428.413      9776.8242      14651.589      4862.6851      5004.2847      3841.0221      376.3302      -418.85757      8123.855      -7137.7308     -876.35296      124767.17      49.968937      49.968937      49.968937      1.1781712      877.05576      1046.4904     -187.71137    
     55000   55000          303.29449      118.78705      24610.463      24395.12       9777.4442      14617.676      4947.1098      4976.9471      3851.4792      384.20678     -528.71801      8121.1565     -7134.5058     -879.61486      124304.5       49.907094      49.907094      49.907094      1.1825565      672.5793      -1216.9606      900.74245    
     56000   56000          300.44161      762.77701      25659.652      24273.676      9685.4747      14588.201      4908.0343      5005.0849      3835.6698      369.00426     -505.33746      8113.2613     -7137.5162     -877.60103      124589.74      49.945238      49.945238      49.945238      1.1798491      3.3097959      1568.2417      716.77959    
     57000   57000          302.99419      831.00427      26015.101      24504.44       9767.7633      14736.676      4957.958       5069.0886      3822.4272      384.96343     -479.12237      8122.1938     -7140.8323     -877.18535      124648.78      49.953127      49.953127      49.953127      1.1792903      1032.3106      934.13855      526.56362    
     58000   58000          301.85129     -164.93968      24108.506      24408.383      9730.9191      14677.464      4969.0595      5067.2789      3898.2303      369.34123     -615.97259      8129.02       -7139.4936     -877.07595      124664.33      49.955203      49.955203      49.955203      1.1791432     -422.97615     -1486.3632      1414.5203    
     59000   59000          299.47089     -718.03743      22967.4        24276.873      9654.1811      14622.692      4958.084       5064.4385      3817.0044      382.84144     -589.51221      8126.0702     -7136.234      -874.3913       125047.08      50.006277      50.006277      50.006277      1.175534      -877.70713     -358.61895     -917.7862     
     60000   60000          296.43249      1091.8074      26069.371      24088.477      9556.2308      14532.246      4958.4976      4866.7062      3848.8003      379.39607     -498.95495      8114.151      -7136.3505     -878.90128      124405.42      49.920597      49.920597      49.920597      1.1815972      757.06002      2781.721      -263.3587     
     61000   61000          303.13249      384.00717      25178.847      24481.944      9772.2216      14709.722      4906.16        5119.1433      3824.7772      378.95988     -510.57535      8129.4217     -7138.1644     -878.66313      124439.14      49.925106      49.925106      49.925106      1.181277      -59.127257      783.18875      427.96001    
     62000   62000          300.88467      163.45929      24600.068      24302.264      9699.7578      14602.507      4905.885       4984.502       3864.1764      381.94752     -528.73427      8131.3805     -7136.6505     -875.25693      124923.41      49.989786      49.989786      49.989786      1.1766977      1273.0311     -382.12718     -400.52606    
     63000   63000          297.43366     -484.33325      23444.43       24326.241      9588.5059      14737.735      5026.4502      5090.7223      3810.4184      374.74064     -547.12089      8117.7447     -7135.2202     -875.83809      124840.52      49.978727      49.978727      49.978727      1.177479      -1221.4223     -75.595907     -155.98149    
     64000   64000          302.09247      621.68521      25577.83       24443.96       9738.6941      14705.266      4979.4504      5026.5236      3806.6444      375.79276     -480.31168      8131.3401     -7134.174      -874.30405      125059.56      50.00794       50.00794       50.00794       1.1754166      1199.5634      533.19799      132.29421    
     65000   65000          302.06539     -861.16246      22900.163      24474.511      9737.821       14736.69       4873.9525      5048.91        3963.0759      385.75065     -537.43802      8137.326      -7134.8865     -872.24711      125354.48      50.047219      50.047219      50.047219      1.1726513      61.91331      -953.5222      -1691.8785    
     66000   66000          299.12662      342.46667      24916.485      24292.472      9643.0827      14649.389      4865.0718      4985.2859      3893.7212      378.77813     -466.27261      8130.0335     -7137.2287     -875.1447       124939.43      49.991923      49.991923      49.991923      1.1765468      252.97292      579.48304      194.94407    
     67000   67000          295.49427     -152.75828      23957.587      24236.283      9525.985       14710.298      4951.0397      5024.1838      3857.7099      389.72894     -509.61268      8133.0061     -7135.7575     -874.03553      125097.98      50.013061      50.013061      50.013061      1.1750557      257.22335     -179.49696     -536.00124    
     68000   68000          298.42988      179.32491      24674.397      24349.11       9620.6215      14728.489      4965.8208      5033.7359      3879.861       391.63563     -527.50359      8122.7898     -7137.8508     -879.08132      124379.94      49.917188      49.917188      49.917188      1.1818392      549.68558     -784.01474      772.30391    
     69000   69000          301.55431      171.22102      24623.453      24313.15       9721.3451      14591.805      4911.4254      5007.0509      3873.3218      380.29407     -562.45661      8121.2889     -7139.1196     -879.88702      124266.05      49.901948      49.901948      49.901948      1.1829224     -459.09307      948.05694      24.699179    
     70000   70000          302.52745      390.8372       25052.789      24344.067      9752.7169      14591.35       4963.4642      4991.7641      3837.3195      373.37404     -557.90503      8120.6744     -7137.3413     -879.3769       124338.13      49.911595      49.911595      49.911595      1.1822366      786.51143      37.844106      348.15608    
     71000   71000          303.02528      770.62539      25926.503      24518.911      9768.7655      14750.146      4930.724       5010.4084      3922.6969      387.24681     -489.60606      8129.6126     -7140.9367     -873.01516      125244.2       50.032538      50.032538      50.032538      1.1736839      1600.9993      513.58388      197.29302    
     72000   72000          299.36795     -1054.3242      22369.01       24292.544      9650.8625      14641.681      4818.1833      5032.7813      3979.4486      391.58707     -561.52196      8122.4676     -7141.2647     -874.03695      125097.78      50.013034      50.013034      50.013034      1.1750576      235.52503     -1989.419      -1409.0787    
     73000   73000          298.63081     -779.15561      22913.845      24327.342      9627.099       14700.243      4865.1403      5047.9159      3993.5112      385.52289     -579.17588      8122.3676     -7135.0394     -878.99137      124392.67      49.918891      49.918891      49.918891      1.1817183     -90.326175     -1014.1834     -1232.9573    
     74000   74000          299.58778     -1453.7711      21710.86       24362.417      9657.9491      14704.468      4942.5914      5038.538       3928.7447      374.8611      -581.01936      8136.3983     -7135.6465     -874.27979      125063.03      50.008403      50.008403      50.008403      1.175384      -1840.3609     -879.664       -1641.2885    
     75000   75000          300.85085     -753.83841      22904.888      24279.285      9698.6673      14580.618      4841.9366      5030.7889      3918.6083      382.1092      -573.76893      8116.3876     -7135.4442     -874.62376      125013.85      50.001846      50.001846      50.001846      1.1758465     -979.03599     -1027.295      -255.18424    
     76000   76000          301.53729     -915.73431      22677.969      24334.215      9720.7967      14613.418      4897.0443      4947.7037      3966.8568      375.99495     -559.17268      8121.1286     -7136.1377     -881.65789      124016.45      49.868515      49.868515      49.868515      1.1853032     -1131.6896     -879.56487     -735.94851    
     77000   77000          301.65022      174.96918      24760.43       24442.065      9724.4371      14717.628      4934.8436      5105.5607      3829.3031      385.32292     -542.56272      8136.5855     -7131.4255     -876.37712      124763.73      49.968478      49.968478      49.968478      1.1782037      135.09427      1009.029      -619.21573    
     78000   78000          299.56058      1130.0157      26245.894      24190.584      9657.0724      14533.511      4912.578       4986.8537      3796.2427      383.66748     -551.95976      8138.6348     -7132.5058     -876.72272      124714.55      49.961911      49.961911      49.961911      1.1786683      1105.5267      1920.9054      363.61492    
     79000   79000          303.64518      1025.7697      26183.372      24314.368      9788.7494      14525.619      4930.8852      5023.0837      3756.2859      385.49341     -559.00881      8125.5569     -7136.6777     -875.17487      124935.13      49.991349      49.991349      49.991349      1.1765874      1514.1972      66.56997       1496.542     
     80000   80000          302.33936     -235.34554      23894.238      24322.822      9746.6532      14576.169      4901.6023      5030.1372      3921.2456      367.96345     -637.43179      8128.3349     -7135.6827     -875.63959      124868.82      49.982503      49.982503      49.982503      1.1772121     -917.83467      1054.032      -842.23394    
     81000   81000          298.21148     -2021.599       20586.078      24254.592      9613.5808      14641.011      4981.9072      4965.4087      3928.7868      392.52743     -620.76867      8126.5159     -7133.3663     -878.73933      124428.35      49.923663      49.923663      49.923663      1.1813794     -2296.3606     -1378.8281     -2389.6082    
     82000   82000          300.37288      1401.5172      26947.818      24393.531      9683.2589      14710.272      4952.7856      5081.2314      3782.1293      387.86054     -485.03136      8124.5088     -7133.2123     -874.95159      124967.01      49.995601      49.995601      49.995601      1.1762872      1206.6529      1691.8847      1306.014     
     83000   83000          298.7046       767.94894      25486.154      24089.018      9629.4778      14459.541      4894.4954      5067.2125      3678.5113      366.8544      -536.47868      8126.6302     -7137.6846     -876.49403      124747.09      49.966256      49.966256      49.966256      1.1783609      973.71032      1661.2259     -331.08938    
     84000   84000          299.23653      616.60257      25482.617      24366.039      9646.6257      14719.413      5051.3538      5009.3016      3897.1537      384.61277     -607.22926      8126.0901     -7141.8697     -880.58521      124167.52      49.888755      49.888755      49.888755      1.183861       1052.0947      715.56855      82.144488    
     85000   85000          297.21921      435.61256      25021.293      24230.236      9581.5926      14648.643      4987.8568      5023.1411      3815.2573      400.92155     -576.39998      8135.9884     -7138.122      -878.1082       124517.78      49.935621      49.935621      49.935621      1.180531       670.5423       728.65781     -92.362424    
     86000   86000          301.78961      986.66057      26210.783      24416.509      9728.9306      14687.579      4939.8717      5049.1928      3870.293       392.87501     -537.87886      8114.2609     -7141.0358     -876.86813      124693.87      49.95915       49.95915       49.95915       1.1788638      1234.9619      615.37736      1109.6425    
     87000   87000          300.87004      1957.2182      27873.348      24312.006      9699.286       14612.72       4944.5263      5065.9993      3723.5551      382.43157     -484.98354      8117.0062     -7135.8145     -876.35672      124766.64      49.968866      49.968866      49.968866      1.1781763      2412.8264      1023.4153      2435.4128    
     88000   88000          297.45055      997.75175      25915.587      24110.789      9589.0506      14521.739      4954.0654      4965.4197      3793.5499      372.5635      -548.64929      8123.6773     -7138.8878     -881.55448      124031         49.870465      49.870465      49.870465      1.1851641      1428.8529      314.50072      1249.9016    
     89000   89000          301.2021      -1004.6129      22518.881      24337.581      9709.991       14627.59       4912.5306      4993.2763      3924.3424      387.45953     -570.92122      8121.5929     -7140.6902     -880.83149      124132.8       49.884105      49.884105      49.884105      1.1841922     -1602.2727     -2277.4622      865.89615    
     90000   90000          297.10693      243.50408      24648.174      24205.533      9577.9728      14627.56       4919.6095      5092.2645      3819.6577      393.17746     -583.82535      8123.7523     -7137.0762     -877.22261      124643.48      49.952419      49.952419      49.952419      1.1793404      1325.8259     -929.69742      334.38374    
     91000   91000          297.05633     -224.24927      23822.97       24228.926      9576.3417      14652.584      4910.0205      5056.8318      3937.1478      393.35778     -625.06831      8120.6678     -7140.3732     -880.86164      124128.55      49.883536      49.883536      49.883536      1.1842327      1365.9887     -1062.2834     -976.45311    
     92000   92000          300.57428     -241.61357      23899.598      24338.833      9689.7517      14649.081      4936.9383      5077.5638      3833.9557      387.4099      -562.28405      8115.6138     -7140.1166     -877.16325      124651.92      49.953546      49.953546      49.953546      1.1792606      685.76029     -606.37045     -804.23056    
     93000   93000          297.48924      973.88146      25965.185      24196.429      9590.2975      14606.131      4946.6642      5058.2344      3795.4882      372.21683     -558.73994      8128.4692     -7136.2018     -877.99746      124533.48      49.93772       49.93772       49.93772       1.1803821      1775.7448      685.79588      460.10374    
     94000   94000          303.99763     -266.23886      24060.563      24543.129      9800.1116      14743.017      5003.7887      5088.8483      3840.1375      385.87036     -546.37004      8112.7066     -7141.9642     -879.77145      124282.37      49.904132      49.904132      49.904132      1.182767      -721.5514      -292.57642      215.41124    
     95000   95000          300.78087     -1263.9348      22024.192      24326.825      9696.4114      14630.414      4924.8637      5063.6805      3863.8486      381.52812     -585.61068      8119.9916     -7137.8882     -875.29661      124917.75      49.989031      49.989031      49.989031      1.1767511     -908.11966     -1474.824      -1408.8609    
     96000   96000          295.62263      324.01116      24801.273      24213.093      9530.1231      14682.97       4972.8309      5046.984       3869.2636      368.77342     -554.22958      8122.3155     -7142.9683     -878.4258       124472.76      49.929602      49.929602      49.929602      1.1809579      620.78374      894.25081     -543.00107    
     97000   97000          301.02657      35.057757      24291.18       24227.515      9704.3321      14523.183      4960.5249      5046.9603      3777.7181      385.47801     -630.08188      8122.2032     -7139.62       -878.0817       124521.54      49.936123      49.936123      49.936123      1.1804953     -1104.2823      1020.0329      189.42269    
     98000   98000          300.42914      98.526485      24575.841      24396.253      9685.0727      14711.18       4993.8277      5097.5921      3826.6529      396.7117      -587.57306      8123.9566     -7139.988      -874.84416      124982.35      49.997647      49.997647      49.997647      1.1761428     -293.85068      405.0087       184.42143    
     99000   99000          299.59573      149.15276      24668.946      24397.725      9658.2055      14739.52       5040.128       5132.7272      3772.847       377.01046     -565.08709      8120.7747     -7138.8806     -876.92864      124685.27      49.958         49.958         49.958         1.1789452     -887.00986     -163.07131      1497.5394    
    100000   100000         301.83194      852.03171      25702.157      24154.331      9730.2954      14424.036      4896.0014      4971.0388      3799.6941      380.1793      -606.31159      8121.6139     -7138.1802     -877.78661      124563.4       49.941718      49.941718      49.941718      1.1800986      552.64385      444.50758      1558.9437    
    101000   101000         301.44321     -633.37902      23221.843      24373.182      9717.7637      14655.418      5076.1265      5059.9142      3758.9024      390.59525     -613.9845       8120.2466     -7136.3825     -877.23481      124641.75      49.952188      49.952188      49.952188      1.1793568     -1318.0446     -1219.2509      637.15847    
    102000   102000         297.41359     -265.12524      23800.432      24282.09       9587.8588      14694.232      4975.2264      5032.8654      3824.6246      385.17786     -528.99498      8138.9045     -7133.5722     -877.7427       124569.63      49.942551      49.942551      49.942551      1.1800396      236.31685     -80.790339     -950.90225    
    103000   103000         296.48351     -180.74909      23852.581      24181.423      9557.8755      14623.547      5034.7037      5010.1831      3783.8652      391.95516     -584.12215      8124.9383     -7137.9763     -876.48565      124748.29      49.966415      49.966415      49.966415      1.1783496     -762.24531     -814.66536      1034.6634    
    104000   104000         299.46664     -639.78131      23106.947      24268.231      9654.0439      14614.188      4935.1118      5056.9205      3841.6652      373.98437     -572.72646      8117.7682     -7138.536      -878.51305      124460.4       49.927949      49.927949      49.927949      1.1810752     -1117.7246      436.25757     -1237.877     
    105000   105000         298.58034      536.61136      25379.806      24406.465      9625.4719      14780.993      5088.6408      5114.9357      3739.9151      385.18928     -534.65547      8123.8613     -7136.8935     -879.12376      124373.94      49.916385      49.916385      49.916385      1.1818963      944.54977      656.28027      9.0040391    
    106000   106000         302.57825     -609.85911      23323.526      24434.247      9754.3546      14679.893      4954.131       5051.1433      3891.7493      373.17654     -596.91419      8138.293      -7131.6863     -875.54735      124881.98      49.984258      49.984258      49.984258      1.1770881     -1294.6745      179.46828     -714.37107    
    107000   107000         300.60275     -458.87068      23561.922      24394.942      9690.6693      14704.273      4910.6926      5088.2389      3780.5368      381.93956     -454.62299      8130.0023     -7132.5144     -878.39578      124477.01      49.930171      49.930171      49.930171      1.1809176     -413.26547     -807.13092     -156.21566    
    108000   108000         295.98559      787.8274       25624.337      24199.327      9541.8237      14657.504      5004.5095      5071.7832      3761.0998      386.76883     -532.43651      8105.7364     -7139.9575     -881.59411      124025.42      49.869717      49.869717      49.869717      1.1852174      763.62917      995.58463      604.26838    
    109000   109000         301.12659      651.53432      25544.178      24361.389      9707.5567      14653.832      5019.0858      4954.7593      3809.8066      385.70162     -499.47538      8121.3092     -7137.355      -878.38578      124478.43      49.93036       49.93036       49.93036       1.1809041      765.16689     -95.897376      1285.3334    
    110000   110000         298.10679     -824.88912      22731.023      24228.844      9610.2059      14618.639      4898.6127      5033.5696      3874.2982      375.93126     -550.64051      8124.3502     -7137.483      -878.19499      124505.47      49.933976      49.933976      49.933976      1.1806476     -2030.9014      445.60615     -889.37215    
    111000   111000         301.43912      571.44194      25408.92       24370.77       9717.6318      14653.138      4928.6064      5082.3132      3797.4835      379.59776     -523.80991      8124.323      -7135.3759     -877.74238      124569.67      49.942557      49.942557      49.942557      1.1800391      467.8529       582.44783      664.0251     
    112000   112000         298.32316     -578.90142      23064.386      24119.533      9617.1812      14502.352      4796.0435      5004.5109      3874.9485      375.08186     -531.32278      8121.1989     -7138.1091     -874.87736      124977.61      49.997015      49.997015      49.997015      1.1761874     -298.70969     -1421.1144     -16.88022     
    113000   113000         300.02075      591.23707      25449.008      24380.694      9671.9072      14708.786      5004.1764      5101.056       3809.7918      385.96257     -586.79783      8128.3669     -7133.7694     -882.50664      123897.18      49.852522      49.852522      49.852522      1.1864442      1586.3526      29.504786      157.8538     
    114000   114000         298.35094      284.05762      24714.884      24200.423      9618.0766      14582.346      4887.2302      5018.9636      3866.0927      370.38377     -541.57069      8118.4066     -7137.1597     -880.45901      124185.32      49.891139      49.891139      49.891139      1.1836914      442.61653     -309.82378      719.38009    
    115000   115000         301.20078      23.913483      24414.756      24371.22       9709.9482      14661.272      4965.3304      5062.9198      3859.1631      386.25635     -587.93689      8118.2623     -7142.723      -875.89329      124832.65      49.977677      49.977677      49.977677      1.1775532      450.39475      334.21447     -712.86877    
    116000   116000         299.61445     -160.0429       24066.774      24357.775      9658.8091      14698.966      4954.8409      5107.3274      3853.3791      383.0468      -572.14986      8111.7811     -7139.2595     -876.99442      124675.92      49.956751      49.956751      49.956751      1.1790336     -406.64295     -351.73442      278.24867    
    117000   117000         299.67377      650.5077       25573.744      24394.595      9660.7213      14733.874      4963.9023      5069.8526      3827.0376      395.27323     -507.82211      8121.5197     -7135.8895     -879.70893      124291.2       49.905315      49.905315      49.905315      1.182683       2033.9276     -705.00388      622.59935    
    118000   118000         297.67098     -241.53469      24023.6        24464.939      9596.1565      14868.783      5066.0547      5049.6451      3956.0042      391.23172     -571.80292      8114.0206     -7136.3706     -872.69493      125290.15      50.038657      50.038657      50.038657      1.1732533      75.730676      975.04966     -1775.3844    
    119000   119000         299.37399      347.35453      24939.207      24306.963      9651.0574      14655.905      4840.4636      5104.7282      3853.5155      391.15748     -520.97006      8124.0047     -7136.9941     -876.0793       124806.15      49.97414       49.97414       49.97414       1.1778033      990.58134      621.26893     -569.78669    
    120000   120000         300.36736      977.49392      26114.95       24335.934      9683.0811      14652.853      4884.7662      5070.6434      3867.1245      380.18835     -535.42849      8121.3325     -7135.7736     -876.17218      124792.92      49.972374      49.972374      49.972374      1.1779282      837.84347      338.83951      1755.7988    
    121000   121000         300.59484     -312.95752      23784.207      24353.72       9690.4144      14663.305      4928.928       5073.6766      3800.697       375.33506     -501.9775       8124.0476     -7137.4016     -876.26816      124779.25      49.970549      49.970549      49.970549      1.1780572     -959.22725      332.58931     -312.23463    
    122000   122000         296.19344     -1187.1561      22121.196      24279.714      9548.5244      14731.19       4887.7351      5086.4773      3953.0389      397.11        -586.24921      8129.3915     -7136.3139     -877.01587      124672.87      49.956344      49.956344      49.956344      1.1790624     -532.99216     -811.47109     -2217.0049    
    123000   123000         300.90301      287.84056      24892.165      24367.519      9700.349       14667.17       4929.2284      5086.8616      3778.5918      386.15925     -506.28096      8126.3413     -7133.7316     -874.86431      124979.48      49.997263      49.997263      49.997263      1.1761699      1512.582      -1040.0177      390.95738    
    124000   124000         300.637        15.378109      24382.273      24354.259      9691.7733      14662.485      4956.3546      5018.6816      3830.1147      374.05906     -527.38249      8142.1777     -7131.5197     -875.3565       124909.2       49.987891      49.987891      49.987891      1.1768316      871.66554     -588.37376     -237.15745    
    125000   125000         305.39439     -1314.2544      22021.51       24418.784      9845.1397      14573.644      4945.2853      4974.5903      3826.9782      390.82725     -546.79824      8119.2484     -7136.487      -874.21253      125072.66      50.009685      50.009685      50.009685      1.1752936     -1029.4047     -1178.3628     -1734.9958    
    126000   126000         303.0674       276.48045      24851.262      24348.355      9770.1235      14578.231      4910.535       5047.1686      3762.8205      373.62415     -510.27764      8125.1618     -7130.8012     -876.66038      124723.42      49.963096      49.963096      49.963096      1.1785845      592.72412     -681.9051       918.62233    
    127000   127000         298.72875      707.53165      25473.584      24184.891      9630.2562      14554.635      4959.3622      5017.3379      3710.0405      372.88462     -502.93977      8130.9655     -7133.0163     -875.49067      124890.06      49.985337      49.985337      49.985337      1.1770119      1416.8483      59.779089      645.96759    
    128000   128000         300.03756     -334.6073       23782.363      24391.539      9672.449       14719.09       4896.1018      5108.7753      3872.5509      386.00013     -530.47165      8121.4528     -7135.3194     -875.88655      124833.61      49.977805      49.977805      49.977805      1.1775442      217.42034     -444.92388     -776.31834    
    129000   129000         303.7919      -745.9512       23080.257      24435.003      9793.4795      14641.523      4901.4606      5082.983       3831.8994      373.99096     -536.01231      8123.5519     -7136.3503     -878.02709      124529.28      49.937158      49.937158      49.937158      1.1804219     -733.90982     -1619.5871      115.64335    
    130000   130000         298.56053      582.65151      25389.957      24329.773      9624.8334      14704.94       4965.4297      5201.1683      3687.6385      380.23815     -515.06397      8124.1556     -7138.6265     -876.3613       124765.99      49.968779      49.968779      49.968779      1.1781824     -516.88438      695.1799       1569.659     
    131000   131000         298.43044     -509.05485      23393.793      24317.625      9620.6395      14696.985      4930.7146      5083.6367      3895.5277      387.61185     -600.01075      8133.9692     -7134.4641     -878.67265      124437.79      49.924926      49.924926      49.924926      1.1812898     -1257.9487      313.13065     -582.34651    
    132000   132000         299.72066      113.68426      24497.699      24290.649      9662.2331      14628.416      4988.6505      4980.7613      3808.7697      385.66949     -545.38179      8144.3481     -7134.4016     -875.54878      124881.77      49.984231      49.984231      49.984231      1.1770901      2448.9539     -969.60189     -1138.2993    
    133000   133000         301.34974     -645.3577       23079.77       24250.857      9714.7505      14536.106      4880.7131      5030.8123      3825.8034      374.77994     -552.78493      8118.0609     -7141.2785     -878.7527       124426.45      49.92341       49.92341       49.92341       1.1813974      689.75767     -1191.3887     -1434.4421    
    134000   134000         304.9388      -276.06524      24117.38       24617.664      9830.4524      14787.211      4893.1596      5117.5652      3968.5904      390.58196     -575.0838       8129.8985     -7137.5006     -879.9351       124259.26      49.901039      49.901039      49.901039      1.182987       500.51259     -1407.1243      78.415971    
    135000   135000         299.53471      539.28522      25208.872      24230.634      9656.2384      14574.395      4924.0387      5074.4505      3739.8305      367.60696     -529.13378      8133.5877     -7135.9853     -879.08132      124379.94      49.917188      49.917188      49.917188      1.1818392      711.38741      471.00199      435.46625    
    136000   136000         303.23008      319.15868      25027.311      24446.987      9775.3677      14671.619      4993.2502      5021.2104      3809.7407      379.79591     -515.18169      8120.2636     -7137.4602     -876.98249      124677.61      49.956978      49.956978      49.956978      1.1790176      931.41568      389.99358     -363.93321    
    137000   137000         297.58465      1445.3016      26885.435      24261.544      9593.3733      14668.171      4938.3292      5130.9236      3725.4311      388.37574     -507.97685      8130.8792     -7137.7914     -878.35082      124483.38      49.931023      49.931023      49.931023      1.1808571      2377.0572      904.39442      1054.4531    
    138000   138000         297.84457      207.86206      24545.573      24167.438      9601.7526      14565.686      4833.25        4960.2651      3894.2154      390.06787     -506.32784      8129.5704     -7135.3551     -876.56576      124736.88      49.964893      49.964893      49.964893      1.1784573     -325.06552     -172.23383      1120.8855    
    139000   139000         299.75524     -105.92234      24135.933      24328.852      9663.3478      14665.504      4903.6117      5104.9013      3789.9005      368.18289     -487.50216      8124.6265     -7138.2166     -875.52312      124885.43      49.984719      49.984719      49.984719      1.1770556      797.1237      -777.00492     -337.88581    
    140000   140000         303.79577     -144.97189      24107.432      24372.217      9793.6043      14578.612      4948.2751      4973.8437      3821.9759      372.27971     -537.8997       8132.7506     -7132.6129     -873.06247      125237.41      50.031635      50.031635      50.031635      1.1737475     -151.35904     -158.8348      -124.72185    
    141000   141000         296.35031     -249.94028      23699.516      24155.282      9553.5815      14601.7        4838.2415      5097.8599      3841.0038      384.40071     -562.6514       8133.8798     -7131.0339     -874.4796       125034.46      50.004594      50.004594      50.004594      1.1756527     -96.108665     -371.58882     -282.12335    
    142000   142000         296.07925     -1191.996       22228.486      24394.918      9544.843       14850.074      4956.7669      5133.9205      3922.5919      396.0793      -554.15321      8129.1877     -7134.3186     -877.37453      124621.9       49.949536      49.949536      49.949536      1.1795446     -909.67378     -956.00596     -1710.3082    
    143000   143000         298.80151     -216.60108      23754.995      24148.164      9632.602       14515.562      4852.5539      4952.7506      3920.4588      388.33282     -592.62367      8131.9456     -7137.8566     -878.49051      124463.59      49.928376      49.928376      49.928376      1.1810449      3.6426991     -1283.1047      629.65878    
    144000   144000         299.78695      43.490837      24300.251      24221.365      9664.3699      14556.995      4927.8157      4940.511       3835.7996      387.7953      -521.38854      8121.4034     -7134.9418     -879.12785      124373.36      49.916308      49.916308      49.916308      1.1819018      224.03859     -17.916415     -75.649667    
    145000   145000         299.68586      793.03412      25744.375      24301.729      9661.1111      14640.618      4900.9799      5067.9132      3882.245       389.06922     -589.55745      8130.1484     -7140.18       -876.57156      124736.06      49.964783      49.964783      49.964783      1.1784651      1511.5792     -549.79416      1417.3174    
    146000   146000         296.54483     -799.41748      22766.982      24220.526      9559.8522      14660.673      4910.2734      4977.7086      3981.0801      384.43958     -578.01572      8123.7123     -7138.5249     -877.00257      124674.76      49.956596      49.956596      49.956596      1.1790445     -3002.5968     -1110.1536      1714.4979    
    147000   147000         301.20652      811.79593      25917.443      24441.882      9710.1333      14731.749      4940.3601      5077.6069      3827.9425      406.14172     -513.0099       8130.0089     -7137.301      -877.29399      124633.34      49.951064      49.951064      49.951064      1.1794363     -17.542835      779.36999      1673.5606    
    148000   148000         298.5115       571.60891      25379.143      24342.01       9623.2528      14718.758      5011.2148      5192.5034      3699.5193      380.99872     -554.38381      8126.3906     -7137.4854     -878.86066      124411.17      49.921366      49.921366      49.921366      1.1815426      620.32928      307.92779      786.56966    
    149000   149000         296.34004      592.50097      25173.574      24098.799      9553.2503      14545.548      4956.0572      5026.3198      3740.8835      375.41379     -532.94315      8116.4947     -7136.6776     -879.07609      124380.68      49.917287      49.917287      49.917287      1.1818322      2137.7859     -551.13255      190.84956    
    150000   150000         300.77197     -184.71921      24077.41       24413.082      9696.1246      14716.958      5031.6613      5001.4786      3809.2802      383.68752     -489.83018      8116.696      -7136.0159     -877.50913      124602.79      49.946982      49.946982      49.946982      1.1797256     -679.59055      337.90996     -212.47705    
    151000   151000         295.68074     -810.39526      22632.658      24106.613      9531.9964      14574.616      4863.8928      5027.0277      3845.0981      382.92292     -538.03764      8130.0184     -7136.3058     -876.73427      124712.91      49.961692      49.961692      49.961692      1.1786838     -1483.7017     -500.20376     -447.28035    
    152000   152000         301.60999      84.829499      24533.206      24379.517      9723.1402      14656.377      4892.4521      5005.6327      3905.1606      398.92275     -542.91946      8129.3417     -7132.2132     -880.15831      124227.75      49.89682       49.89682       49.89682       1.1832871      398.57588      85.383166     -229.47055    
    153000   153000         305.51765     -478.59918      23718.047      24589.852      9849.1133      14740.738      4898.3481      5111.1052      3899.5166      391.31997     -564.41484      8142.4829     -7137.6197     -875.40338      124902.51      49.986998      49.986998      49.986998      1.1768946     -2243.9687      130.64982      677.52136    
    154000   154000         302.23191     -889.81853      22861.393      24482.168      9743.1894      14738.978      4961.042       4999.1218      3962.9855      385.96089     -560.79342      8128.7276     -7138.066      -875.45551      124895.08      49.986006      49.986006      49.986006      1.1769647     -116.91393     -2068.7353     -483.80636    
    155000   155000         301.70028     -440.37507      23405.166      24205.673      9726.0511      14479.622      4859.4588      5058.9412      3786.7677      383.50738     -601.97399      8126.7918     -7133.8706     -877.22874      124642.61      49.952303      49.952303      49.952303      1.1793486     -515.10272      127.57781     -933.6003     
    156000   156000         302.48632     -985.24969      22681.148      24474.18       9751.3909      14722.789      4898.3571      5121.9906      3945.8028      374.99438     -610.88821      8125.3009     -7132.7684     -876.22053      124786.03      49.971454      49.971454      49.971454      1.1779932     -1863.0802     -319.02964     -773.63928    
[...]
   1955000   1955000        302.12902     -118.40874      24216.031      24431.586      9739.8725      14691.714      4897.4065      5162.1703      3841.0607      388.05942     -567.24058      8110.2497     -7139.9921     -875.95226      124824.25      49.976555      49.976555      49.976555      1.1776325      349.9865      -300.31731     -404.89541    
   1956000   1956000        298.23739      634.04287      25375.375      24227.664      9614.416       14613.248      4844.8835      5102.3681      3807.8286      382.84732     -508.12238      8123.1566     -7139.7133     -880.93047      124118.86      49.882237      49.882237      49.882237      1.1843252      582.10517      478.60772      841.41572    
   1957000   1957000        304.17856      326.49325      25042.774      24448.499      9805.9443      14642.555      4835.9091      5066.521       3844.8227      387.71888     -478.90657      8126.7855     -7140.2957     -876.07698      124806.48      49.974184      49.974184      49.974184      1.1778002      106.24319      421.01921      452.21736    
   1958000   1958000        296.44157      467.11319      25144.416      24295.501      9556.5233      14738.978      4995.7231      5063.8188      3858.6821      394.96457     -570.35458      8131.2793     -7135.1355     -877.43174      124613.78      49.94845       49.94845       49.94845       1.1796215      771.20022     -828.44281      1458.5822    
   1959000   1959000        299.50265      1455.1154      26863.593      24221.837      9655.2049      14566.632      4906.3121      5001.9887      3811.4727      389.25467     -524.33134      8122.3658     -7140.4303     -878.33476      124485.66      49.931327      49.931327      49.931327      1.1808355      1253.06        1822.4535      1289.8326    
   1960000   1960000        301.49629      418.68442      25257.614      24499.635      9719.4747      14780.16       5000.7658      5095.9683      3909.1494      385.3666      -595.94256      8122.9345     -7138.0822     -880.81545      124135.06      49.884408      49.884408      49.884408      1.1841706      1035.3933     -131.01231      351.67226    
   1961000   1961000        293.80402      1397.735       26668.1        24144.744      9471.4954      14673.249      5003.5325      5049.1634      3790.4981      390.74259     -539.31555      8115.7437     -7137.116      -883.28648      123787.79      49.837847      49.837847      49.837847      1.1874927      1930.8002      1545.2619      717.1428     
   1962000   1962000        299.21399      1061.0527      26173.153      24250.674      9645.8993      14604.774      5043.4615      5107.1144      3662.3007      366.26856     -561.16853      8127.5941     -7140.7963     -880.09711      124236.38      49.897976      49.897976      49.897976      1.1832049      2274.3722      341.58804      567.19773    
   1963000   1963000        300.91592     -111.64878      24051.084      24253.945      9700.7651      14553.18       4935.0053      5074.634       3763.4135      367.54828     -561.72072      8114.3026     -7140.0034     -877.6304       124585.57      49.944681      49.944681      49.944681      1.1798886      224.76545     -527.73183     -31.979948    
   1964000   1964000        302.26867      218.84602      24770.1        24372.813      9744.3745      14628.438      4950.9574      5014.8108      3894.1162      377.83798     -576.33412      8108.3331     -7141.2834     -878.39259      124477.46      49.930231      49.930231      49.930231      1.1809133     -35.362693      267.72649      424.17428    
   1965000   1965000        300.10816      936.69         25926.02       24219.372      9674.7251      14544.647      4950.3535      5083.1056      3709.5481      375.62097     -536.62236      8105.081      -7142.4402     -875.19997      124931.54      49.990871      49.990871      49.990871      1.1766211      1552.3434      218.70029      1039.0263    
   1966000   1966000        300.3758       667.759        25575.439      24359.413      9683.353       14676.06       4907.8185      5081.312       3843.0493      384.96243     -526.88185      8122.4497     -7136.6496     -875.65343      124866.85      49.98224       49.98224       49.98224       1.1772308      1166.4523      139.83315      696.99155    
   1967000   1967000        301.72165      234.69494      24860.107      24433.692      9726.74        14706.952      5033.8927      5041.2362      3823.782       387.56948     -554.02548      8114.9112     -7140.4145     -877.6587       124581.55      49.944144      49.944144      49.944144      1.1799267     -175.2362      -182.10303      1061.4241    
   1968000   1968000        299.43067     -347.15325      23736.82       24364.569      9652.8843      14711.685      4885.7845      5047.3274      3971.1141      398.29428     -574.60898      8125.24       -7141.4662     -881.84056      123990.76      49.865071      49.865071      49.865071      1.1855487     -936.85543     -575.81745      471.21313    
   1969000   1969000        299.36049     -733.65207      23025.726      24361.917      9650.6219      14711.295      4960.6324      4999.6447      3933.5679      402.19805     -572.37007      8125.8121     -7138.1899     -875.54207      124882.73      49.984359      49.984359      49.984359      1.177081      -259.53055     -952.07524     -989.35041    
   1970000   1970000        298.80818     -177.28852      23800.416      24123.974      9632.8171      14491.157      4822.8233      4991.1754      3824.2269      376.41329     -505.26905      8116.8114     -7135.0239     -873.74063      125140.21      50.018687      50.018687      50.018687      1.1746592      443.61475     -254.32587     -721.15443    
   1971000   1971000        299.37501      12.410195      24306.928      24284.344      9651.09        14633.254      4946.4263      5092.1725      3825.8751      388.65899     -597.09543      8115.0712     -7137.8548     -876.27255      124778.62      49.970466      49.970466      49.970466      1.1780631      583.55645     -841.95379      295.62792    
   1972000   1972000        301.97819     -668.24601      23172.923      24386.53       9735.01        14651.52       4894.4094      4946.8464      3975.4266      388.87978     -523.11315      8111.4157     -7142.3445     -878.03831      124527.69      49.936946      49.936946      49.936946      1.180437      -284.04792     -787.90869     -932.78142    
   1973000   1973000        296.67515     -840.17709      22643.824      24169.978      9564.0536      14605.925      4981.5004      5060.6921      3775.9444      377.41936     -564.69952      8109.7292     -7134.6615     -877.86523      124552.24      49.940227      49.940227      49.940227      1.1802043     -559.35064     -1886.7657     -74.41494     
   1974000   1974000        302.71383      482.63697      25249.343      24370.413      9758.7251      14611.688      4954.2983      4992.4447      3853.2928      379.57735     -553.08497      8122.1194     -7136.96       -875.63146      124869.98      49.982658      49.982658      49.982658      1.1772012      813.79549      504.32341      129.79202    
   1975000   1975000        296.73329     -94.711808      24131.855      24304.212      9565.9278      14738.284      5065.3604      5032.3737      3853.7968      388.37585     -584.92485      8119.6077     -7136.3055     -876.25738      124780.78      49.970754      49.970754      49.970754      1.1780427     -621.72665     -821.62153      1159.2128    
   1976000   1976000        294.82982      286.15841      24701.308      24181.43       9504.5649      14676.865      5003.839       5036.8835      3796.7475      391.36669     -528.05543      8115.6352     -7139.5516     -877.72838      124571.66      49.942823      49.942823      49.942823      1.1800203      902.87949      72.21506      -116.61932    
   1977000   1977000        298.9661       1053.486       26240.299      24334.055      9637.9079      14696.147      4948.6088      5067.427       3849.2186      382.64229     -524.34484      8114.833      -7142.2374     -881.26337      124071.97      49.875955      49.875955      49.875955      1.1847728      1137.2869      742.41581      1280.7555    
   1978000   1978000        301.84396      483.89163      25285.911      24404.392      9730.6828      14673.71       4949.7052      5101.6131      3823.1236      379.28044     -558.2963       8119.6654     -7141.3819     -875.33052      124912.91      49.988385      49.988385      49.988385      1.1767966      783.01327     -141.66264      810.32427    
   1979000   1979000        301.26458      526.21607      25310.021      24352.138      9712.0051      14640.133      4934.8798      5059.4633      3818.0653      399.11388     -558.54151      8124.7524     -7137.6        -876.00596      124816.6       49.975534      49.975534      49.975534      1.1777047      1005.7492     -84.86558       657.76462    
   1980000   1980000        301.72986     -697.5223       23144.954      24407.304      9727.0044      14680.299      4998.7287      5119.1154      3799.5858      379.04086     -585.92748      8109.7784     -7140.0225     -881.11761      124092.49      49.878705      49.878705      49.878705      1.1845768     -873.24338     -284.74419     -934.57934    
   1981000   1981000        303.50281     -228.75694      23891.512      24308.47       9784.1601      14524.309      4886.8137      5049.9354      3753.4192      374.16827     -510.12673      8111.4817     -7141.3819     -874.85835      124980.33      49.997377      49.997377      49.997377      1.1761619      550.67894     -1560.094       323.14421    
   1982000   1982000        302.48682      531.34906      25412.095      24448.704      9751.4071      14697.297      4977.3576      5077.3212      3862.8893      380.31696     -582.70341      8119.2783     -7137.1627     -879.49338      124321.67      49.909391      49.909391      49.909391      1.1823932      1514.9739     -125.48785      204.56115    
   1983000   1983000        299.42871     -894.45074      22715.557      24337.254      9652.8214      14684.432      4914.8404      5105.3136      3898.7472      378.08517     -598.56216      8124.8191     -7138.8111     -879.51263      124318.94      49.909027      49.909027      49.909027      1.1824191     -159.09582     -1032.887      -1491.3694    
   1984000   1984000        297.5264      -126.65501      23940.515      24171.125      9591.4956      14579.629      4935.6328      5045.3855      3795.4185      383.07247     -571.22417      8127.613      -7136.2687     -875.78772      124847.7       49.979685      49.979685      49.979685      1.1774113      760.86958     -883.28351     -257.55108    
   1985000   1985000        301.99907     -387.41578      23673.835      24375.668      9735.6833      14639.985      4900.8428      5047.8475      3915.8246      391.60858     -597.95285      8119.2481     -7137.4335     -880.23468      124216.97      49.895377      49.895377      49.895377      1.1833898     -768.23105     -875.45282      481.43653    
   1986000   1986000        298.24192      688.34849      25556.761      24303.751      9614.5621      14689.189      4901.1843      4999.596       3902.8955      396.92388     -494.57075      8121.7488     -7138.5888     -876.00992      124816.03      49.975459      49.975459      49.975459      1.17771        713.05904      205.794        1146.1924    
   1987000   1987000        298.59857      1162.2108      26451.775      24338.911      9626.0598      14712.851      4898.5523      5006.364       3903.6564      394.34104     -465.31262      8116.1735     -7140.9233     -877.13966      124655.27      49.953994      49.953994      49.953994      1.1792288      1339.9407      2040.2346      106.45697    
   1988000   1988000        301.1485      -1010.3201      22378.186      24214.305      9708.2628      14506.043      4831.0655      5072.3439      3876.7149      394.76053     -657.95146      8125.3002     -7136.191      -877.43173      124613.78      49.948451      49.948451      49.948451      1.1796215     -873.06506     -1675.9453     -481.94979    
   1989000   1989000        302.01728      492.47101      25278.854      24383.991      9736.2703      14647.721      4962.9123      5034.352       3840.1325      386.75898     -563.00846      8123.9801     -7137.4066     -877.56538      124594.8       49.945915      49.945915      49.945915      1.1798012      1507.9179      889.05985     -919.56476    
   1990000   1990000        296.6238       252.44269      24664.409      24206.267      9562.3981      14643.868      4966.7636      5049.495       3815.981       397.04673     -565.95684      8118.355      -7137.816      -878.65326      124440.54      49.925293      49.925293      49.925293      1.1812637      222.81486      118.13715      416.37605    
   1991000   1991000        299.42291     -199.38478      23932.672      24295.428      9652.6342      14642.794      4908.4235      5134.6132      3861.6386      381.38748     -615.70726      8111.3483     -7138.9103     -876.4613       124751.75      49.966878      49.966878      49.966878      1.1783169      578.96753     -937.83224     -239.28964    
   1992000   1992000        302.55503      839.79399      26051.009      24520.736      9753.6059      14767.13       5054.379       5153.196       3725.8762      373.18796     -520.22348      8122.0745     -7141.3605     -875.10252      124945.45      49.992726      49.992726      49.992726      1.1764901      1485.7214      395.18499      638.47559    
   1993000   1993000        299.19852     -57.614561      24164.528      24269.406      9645.4004      14624.006      4920.6736      5083.5908      3829.8126      376.50459     -561.46277      8110.8437     -7135.9569     -875.99554      124818.08      49.975732      49.975732      49.975732      1.1776907      68.39094      -670.02123      428.78661    
   1994000   1994000        297.55297      126.43882      24475.249      24245.664      9592.3523      14653.311      4921.2405      5142.0854      3749.2022      370.59556     -487.97943      8097.3365     -7139.1694     -878.19457      124505.53      49.933984      49.933984      49.933984      1.1806471     -220.4481       516.43494      83.329634    
   1995000   1995000        303.22402      908.96023      26074.642      24424.45       9775.1726      14649.277      4952.8595      5071.0749      3781.3995      380.74409     -517.32872      8118.6274     -7138.0993     -878.34582      124484.09      49.931117      49.931117      49.931117      1.1808504      1347.1716      667.62672      712.08233    
   1996000   1996000        302.4821       679.277        25659.742      24425.552      9751.2548      14674.298      5014.1664      5061.8043      3766.4701      371.36861     -506.10524      8108.1773     -7141.5839     -877.64794      124583.08      49.944349      49.944349      49.944349      1.1799122      1978.39       -562.86717      622.30815    
   1997000   1997000        299.85671      8.3451781      24417.213      24402.057      9666.619       14735.438      4996.635       5113.5876      3854.9029      391.36688     -607.56835      8123.5436     -7137.03       -877.99835      124533.36      49.937703      49.937703      49.937703      1.1803833     -205.38416     -277.91754      508.33723    
   1998000   1998000        300.9223      -739.82072      23024.978      24372.059      9700.9708      14671.089      4980.3437      5084.7749      3869.8091      385.78138     -635.82549      8128.3127     -7142.1076     -875.76539      124850.88      49.98011       49.98011       49.98011       1.1773813     -319.05614     -1403.6964     -496.70958    
   1999000   1999000        297.28326     -145.34639      23909.631      24174.647      9583.6573      14590.99       4907.3284      4999.4542      3903.3628      387.3052      -581.84961      8116.4557     -7141.0671     -874.55447      125023.75      50.003167      50.003167      50.003167      1.1757533     -575.93197     -319.5399       459.43271    
   2000000   2000000        300.42777     -301.99747      23818.97       24368.387      9685.0283      14683.359      4989.2685      5082.0707      3839.0734      380.4107      -588.70181      8118.566      -7137.3288     -876.51014      124744.8       49.96595       49.96595       49.96595       1.1783825     -511.41719     -595.51225      200.93703    
Loop time of 10925.3 on 1 procs for 2000000 steps with 10816 atoms

Performance: 15.816 ns/day, 1.517 hours/ns, 183.061 timesteps/s, 1.980 Matom-step/s
99.8% CPU use with 1 MPI tasks x 1 OpenMP threads

MPI task timing breakdown:
Section |  min time  |  avg time  |  max time  |%varavg| %total
---------------------------------------------------------------
Pair    | 5658.6     | 5658.6     | 5658.6     |   0.0 | 51.79
Bond    | 1607.6     | 1607.6     | 1607.6     |   0.0 | 14.71
Kspace  | 2048.4     | 2048.4     | 2048.4     |   0.0 | 18.75
Neigh   | 566.6      | 566.6      | 566.6      |   0.0 |  5.19
Comm    | 89.897     | 89.897     | 89.897     |   0.0 |  0.82
Output  | 43.738     | 43.738     | 43.738     |   0.0 |  0.40
Modify  | 629.28     | 629.28     | 629.28     |   0.0 |  5.76
Other   |            | 281.2      |            |       |  2.57

Nlocal:          10816 ave       10816 max       10816 min
Histogram: 1 0 0 0 0 0 0 0 0 0
Nghost:          22816 ave       22816 max       22816 min
Histogram: 1 0 0 0 0 0 0 0 0 0
Neighs:              0 ave           0 max           0 min
Histogram: 1 0 0 0 0 0 0 0 0 0
FullNghs:  5.96333e+06 ave 5.96333e+06 max 5.96333e+06 min
Histogram: 1 0 0 0 0 0 0 0 0 0

Total # of neighbors = 5963330
Ave neighs/atom = 551.34338
Ave special neighs/atom = 5.7707101
Neighbor list builds = 66442
Dangerous builds = 0

# --- Cleanup ---
unfix npt_fix

undump dump_npt

# --- Write Output ---
write_dump all custom npt_prod300_last.dump id type mol x y z xu yu zu vx vy vz modify sort id
write_data /home/arz2/PolyJarvis/data/PSU4/lammps/equil/npt_prod300/npt_prod300_out.data
System init for write_data ...
PPPM Kokkos initialization ...
  using 12-bit tables for long-range coulomb
  G vector (1/distance) = 0.30185545
  grid = 36 36 36
  stencil order = 5
  estimated absolute RMS force accuracy = 0.00028929117
  estimated relative force accuracy = 8.7119176e-07
  using double precision cuFFT
  3d grid and FFT values/proc = 79507 46656
Generated 28 of 28 mixed pair_coeff terms from sixthpower/sixthpower mixing rule

print "STAGE COMPLETE: NPT T=300.0->300.0K P=1.0->1.0atm steps=2000000"
STAGE COMPLETE: NPT T=300.0->300.0K P=1.0->1.0atm steps=2000000
quit
|       |  2.57

Nlocal:          10816 ave       10816 max       10816 min
Histogram: 1 0 0 0 0 0 0 0 0 0
Nghost:          22816 ave       22816 max       22816 min
Histogram: 1 0 0 0 0 0 0 0 0 0
Neighs:              0 ave           0 max           0 min
Histogram: 1 0 0 0 0 0 0 0 0 0
FullNghs:  5.96333e+06 ave 5.96333e+06 max 5.96333e+06 min
Histogram: 1 0 0 0 0 0 0 0 0 0

Total # of neighbors = 5963330
Ave neighs/atom = 551.34338
Ave special neighs/atom = 5.7707101
Neighbor list builds = 66442
Dangerous builds = 0
System init for write_data ...
PPPM Kokkos initialization ...
  using 12-bit tables for long-range coulomb
  G vector (1/distance) = 0.30185545
  grid = 36 36 36
  stencil order = 5
  estimated absolute RMS force accuracy = 0.00028929117
  estimated relative force accuracy = 8.7119176e-07
  using double precision cuFFT
  3d grid and FFT values/proc = 79507 46656
Generated 28 of 28 mixed pair_coeff terms from sixthpower/sixthpower mixing rule
STAGE COMPLETE: NPT T=300.0->300.0K P=1.0->1.0atm steps=2000000
