LAMMPS data file via write_data, version 22 Jul 2025, timestep = 2000000, units = real

10816 atoms
8 atom types
11608 bonds
10 bond types
19600 angles
16 angle types
29184 dihedrals
19 dihedral types
8000 impropers
11 improper types

5.963345787624515 55.92929600235853 xlo xhi
5.963345787624515 55.92929600235853 ylo yhi
5.963345787624515 55.92929600235853 zlo zhi

Masses

1 12.01115
2 12.01115
3 1.00797
4 1.00797
5 15.9994
6 15.9994
7 15.9994
8 32.064

Pair Coeffs # lj/class2/coul/long/kk

1 0.054 4.01
2 0.064 4.01
3 0.02 2.995
4 0.013 1.098
5 0.06 3.535
6 0.24 3.535
7 0.24 3.535
8 0.25 4.027

Bond Coeffs # class2/kk

1 1.53 299.67 -501.77 679.81
2 1.501 321.902 -521.821 572.163
3 1.101 345 -691.89 844.6
4 1.417 470.836 -627.618 1327.63
5 1.0982 372.825 -803.453 894.317
6 1.3768 428.88 -738.235 1114.97
7 1.3768 428.88 -738.235 1114.97
8 1.72 239.802 0 0
9 0.965 532.506 -1282.9 2004.77
10 1.4308 743.76 0 0

Angle Coeffs # class2/kk

1 112.67 39.516 -7.443 -9.5583
2 108.4 43.9594 -8.3924 -9.3379
3 110.77 41.453 -10.604 5.129
4 120.05 44.7148 -22.7352 0
5 111 44.3234 -9.4454 0
6 118.9 61.0226 -34.9931 0
7 117.94 35.1558 -12.4682 0
8 123.42 73.6781 -21.6787 0
9 123.42 73.6781 -21.6787 0
10 120 60 0 0
11 109.5 60 0 0
12 108.19 53.125 -8.5016 0
13 102 58 0 0
14 113.1 42.3 0 0
15 107.66 39.641 -12.921 -2.4318
16 119.329 135 0 0

BondBond Coeffs

1 0 1.53 1.53
2 0 1.53 1.501
3 3.3872 1.53 1.101
4 12.0676 1.501 1.417
5 0 1.501 1.501
6 68.2856 1.417 1.417
7 1.0795 1.417 1.0982
8 48.4754 1.417 1.3768
9 48.4754 1.417 1.3768
10 0 1.417 1.72
11 0 1.3768 1.3768
12 20.6577 1.3768 0.965
13 0 1.72 1.72
14 0 1.72 1.4308
15 5.3316 1.101 1.101
16 40 1.4308 1.4308

BondAngle Coeffs

1 8.016 8.016 1.53 1.53
2 0 0 1.53 1.501
3 20.754 11.421 1.53 1.101
4 47.0579 31.0771 1.501 1.417
5 0 0 1.501 1.501
6 28.8708 28.8708 1.417 1.417
7 20.0033 24.2183 1.417 1.0982
8 58.479 107.681 1.417 1.3768
9 58.479 107.681 1.417 1.3768
10 0 0 1.417 1.72
11 0 0 1.3768 1.3768
12 53.8614 23.9224 1.3768 0.965
13 0 0 1.72 1.72
14 0 0 1.72 1.4308
15 18.103 18.103 1.101 1.101
16 0 0 1.4308 1.4308

Dihedral Coeffs # class2/kk

1 0 0 0.0316 0 -0.1681 0
2 -0.2802 0 -0.0678 0 -0.0122 0
3 0 0 4.4072 0 0 0
4 0 0 1.559 0 0 0
5 -0.0228 0 0.028 0 -0.1863 0
6 -0.2802 0 -0.0678 0 -0.0122 0
7 8.3667 0 1.1932 0 0 0
8 0 0 3.9661 0 0 0
9 0 0 4.8498 0 0 0
10 0 0 4.8498 0 0 0
11 0 0 3 0 0 0
12 0 0 1.8 0 0 0
13 -0.69 0 0.5097 0 0.0095 0
14 0 0 1.5 0 0 0
15 0 0 1.5 0 0 0
16 0 0 1.8769 0 0 0
17 0 0 1.7234 0 0 0
18 0 0 1.7234 0 0 0
19 0 0 3 0 0 0

AngleAngleTorsion Coeffs

1 -16.164 112.67 110.77
2 0 108.4 120.05
3 -14.4097 120.05 118.9
4 4.4444 120.05 117.94
5 0 108.4 110.77
6 0 111 120.05
7 0 118.9 118.9
8 -4.8141 118.9 117.94
9 -21.0247 118.9 123.42
10 -21.0247 118.9 123.42
11 0 118.9 120
12 0 123.42 109.5
13 -4.6072 123.42 108.19
14 0 120 102
15 0 120 113.1
16 0.3598 117.94 117.94
17 4.2296 117.94 123.42
18 4.2296 117.94 123.42
19 0 117.94 120

EndBondTorsion Coeffs

1 0.2486 0.2422 -0.0925 0.0814 0.0591 0.2219 1.53 1.101
2 0 0 0 0 0 0 1.53 1.417
3 0 0.2421 0 0 -0.6918 0 1.501 1.417
4 0 -1.797 0 0 -0.4879 0 1.501 1.0982
5 0 0 0 0 0 0 1.501 1.101
6 0 0 0 0 0 0 1.501 1.417
7 -0.1185 6.3204 0 -0.1185 6.3204 0 1.417 1.417
8 0 -6.8958 0 0 -0.4669 0 1.417 1.0982
9 0 0.2655 0 0 4.8905 0 1.417 1.3768
10 0 0.2655 0 0 4.8905 0 1.417 1.3768
11 0 0 0 0 0 0 1.417 1.72
12 0 0 0 0 0 0 1.417 1.3768
13 0.9 -1.3456 1.19 3.4132 0.5873 -0.1323 1.417 0.965
14 0 0 0 0 0 0 1.417 1.72
15 0 0 0 0 0 0 1.417 1.4308
16 0 -0.689 0 0 -0.689 0 1.0982 1.0982
17 0 -1.5867 0 0 4.2641 0 1.0982 1.3768
18 0 -1.5867 0 0 4.2641 0 1.0982 1.3768
19 0 0 0 0 0 0 1.0982 1.72

MiddleBondTorsion Coeffs

1 -14.879 -3.6581 -0.3138 1.53
2 0 0 0 1.501
3 0 9.1792 0 1.417
4 0 3.9421 0 1.417
5 0 0 0 1.53
6 0 0 0 1.501
7 27.5989 -2.312 0 1.417
8 0 -1.1521 0 1.417
9 0 4.8255 0 1.417
10 0 4.8255 0 1.417
11 0 0 0 1.417
12 0 0 0 1.3768
13 1.158 3.2697 3.5132 1.3768
14 0 0 0 1.72
15 0 0 0 1.72
16 0 4.8228 0 1.417
17 0 5.5432 0 1.417
18 0 5.5432 0 1.417
19 0 0 0 1.417

BondBond13 Coeffs

1 0 1.53 1.101
2 0 1.53 1.417
3 2.5085 1.501 1.417
4 0.8743 1.501 1.0982
5 0 1.501 1.101
6 0 1.501 1.417
7 53 1.417 1.417
8 -6.2741 1.417 1.0982
9 -2.2436 1.417 1.3768
10 -2.2436 1.417 1.3768
11 0 1.417 1.72
12 0 1.417 1.3768
13 1.159 1.417 0.965
14 0 1.417 1.72
15 0 1.417 1.4308
16 -1.7077 1.0982 1.0982
17 2.0517 1.0982 1.3768
18 2.0517 1.0982 1.3768
19 0 1.0982 1.72

AngleTorsion Coeffs

1 -0.2454 0 -0.1136 0.3113 0.4516 -0.1988 112.67 110.77
2 0 0 0 0 0 0 108.4 120.05
3 0 -4.4683 0 0 3.8987 0 120.05 118.9
4 0 -0.1242 0 0 3.4601 0 120.05 117.94
5 0 0 0 0 0 0 108.4 110.77
6 0 0 0 0 0 0 111 120.05
7 1.9767 1.0239 0 1.9767 1.0239 0 118.9 118.9
8 0 2.5014 0 0 2.7147 0 118.9 117.94
9 0 10.0155 0 0 1.7404 0 118.9 123.42
10 0 10.0155 0 0 1.7404 0 118.9 123.42
11 0 0 0 0 0 0 118.9 120
12 0 0 0 0 0 0 123.42 109.5
13 -5.136 -1.0122 0 4.6852 0.023 -0.598 123.42 108.19
14 0 0 0 0 0 0 120 102
15 0 0 0 0 0 0 120 113.1
16 0 2.4501 0 0 2.4501 0 117.94 117.94
17 0 1.8729 0 0 2.5706 0 117.94 123.42
18 0 1.8729 0 0 2.5706 0 117.94 123.42
19 0 0 0 0 0 0 117.94 120

Improper Coeffs # class2/kk

1 0 0
2 0 0
3 0 0
4 0 0
5 7.8153 0
6 4.8912 0
7 13.0421 0
8 13.0421 0
9 0 0
10 0 0
11 0 0

AngleAngle Coeffs

1 0 0 0 112.67 108.4 108.4
2 0 0 0 108.4 108.4 111
3 0.2738 -0.4825 0.2738 110.77 110.77 107.66
4 -0.3157 -0.3157 -0.3157 107.66 107.66 107.66
5 0 0 0 120.05 120.05 118.9
6 0 0 0 118.9 117.94 117.94
7 0 0 0 118.9 123.42 123.42
8 0 0 0 118.9 123.42 123.42
9 0 0 0 118.9 120 120
10 0 0 0 102 113.1 113.1
11 0 0 0 113.1 113.1 119.329

Atoms # full/kk

9458 7 3 0.1268 6.216686951798677 11.815359524706185 9.275630801375437 1 1 0
9805 8 2 0 11.109749898358304 11.788202754522619 11.954575676701023 0 1 0
7110 6 3 0.1268 7.488398356736018 11.324130765815207 6.795418467496957 1 1 1
9800 8 3 0.053 10.141709047957914 10.227058528413682 9.749319219407587 0 1 0
9455 7 2 -0.1268 6.341803904900579 9.698894061664404 8.916396167821718 1 1 0
9456 7 3 0.1268 7.4037022848468474 9.628946516208437 9.238123959582717 1 1 0
7107 6 6 -0.053 10.019167466631302 10.897945354268858 6.189671235408648 1 1 1
9433 7 2 -0.1268 6.808930057490194 7.0069859958402345 6.675199900627682 1 1 0
9431 7 6 -0.053 6.288889812119052 7.242304703275531 8.997996261603594 1 1 0
9799 8 3 0.053 9.870683097212613 9.218041506691842 11.130614998907856 0 1 0
9797 8 1 -0.159 10.668086244205547 9.702304835477367 10.528605788390772 0 1 0
9798 8 3 0.053 11.13752094511064 8.77608596285238 10.103824916477503 0 1 0
9432 7 2 0.0265 7.1297500041099795 6.763779646467368 8.00173351563928 1 1 0
9796 8 1 0 11.772365580346085 10.520409705768056 11.31976298489211 0 1 0
5694 5 3 0.053 6.534728133417874 8.00855194917457 11.492278355893871 1 0 0
5693 5 3 0.053 8.006437508188402 8.317334454808915 12.049855031268748 1 0 0
9803 8 3 0.053 12.518405406437736 11.764025028531734 9.531413408782322 0 1 0
9802 8 3 0.053 13.686743775740158 11.686514253053296 10.906960178633248 0 1 0
7132 6 3 0.1268 12.283588382668489 9.611868251425603 6.898935137853473 1 1 1
7131 6 2 -0.1268 12.381405528662146 10.453341611680404 6.186693482054118 1 1 1
7005 6 2 0.0732 16.971507065918168 7.901095893635452 8.096881164392057 1 1 1
7003 6 2 -0.1268 15.894807946006257 6.966131708989615 8.093064950864145 1 1 1
7007 6 5 -0.1143 16.37049002538936 8.741141620443546 10.368156092531397 1 1 1
7004 6 3 0.1268 15.425968445651167 6.698969302577951 9.082057029892221 1 1 1
7006 6 8 0.0822 17.465138295034556 8.749946891259915 9.472134589334706 1 1 1
7001 6 2 -0.1268 15.489478685181037 6.208094963889222 6.973049355503266 1 1 1
7008 6 5 -0.1143 17.887358596260924 10.06062880350705 8.988958870381033 1 1 1
9801 8 1 -0.159 12.860579707729002 11.136365444228762 10.34837162698921 0 1 0
9804 8 3 0.053 13.42565663686064 10.266282970609838 9.867829577625553 0 1 0
9840 8 3 0.1268 14.466056955043658 9.960787560669734 12.00973093426908 0 1 0
7019 6 2 -0.1268 17.707553571255545 8.036923032839692 6.90896972390515 1 1 1
7134 6 3 0.1268 14.543795367450485 10.125594934455787 6.201807095945307 1 1 1
7017 6 2 -0.1268 18.80709762668721 6.493956598300602 10.63103190072938 1 1 1
7009 6 2 0.0732 18.770275603846688 7.856035845096184 10.16916250297731 1 1 1
7020 6 3 0.1268 18.534844841708363 8.751172225868048 6.888934373357151 1 1 1
7015 6 2 -0.1268 19.80710927834002 6.049940376460011 11.510083873639225 1 1 1
6057 5 6 -0.053 21.661275560105274 8.873456879096626 6.935850021631627 1 0 0
7011 6 3 0.1268 20.05049379019887 9.707493054121274 10.121295820202963 1 1 1
6042 5 3 0.1268 20.173876598938644 10.993315900192854 6.24645890357887 1 0 0
6110 5 3 0.1268 23.01647995095754 7.536864809580715 8.718120098309827 1 0 0
6058 5 2 0.0265 21.51818794001152 7.526812156910695 7.054520983907845 1 0 0
7010 6 2 -0.1268 19.922385274012825 8.617674969520513 10.51501565595975 1 1 1
7012 6 2 -0.1268 20.90682643064698 8.162014524838469 11.335093626454208 1 1 1
7014 6 2 0.0265 20.89299867704677 6.875638975835617 11.87100381158055 1 1 1
7013 6 3 0.1268 21.744971189383506 8.887685202494755 11.549624111597133 1 1 1
6109 5 2 -0.1268 22.230325090370048 6.936233227244329 8.126431161855763 1 0 0
6059 5 2 -0.1268 20.66294989809292 6.703128412970409 6.266398935168379 1 0 0
356 1 5 -0.1143 24.058963716100003 9.185975360820269 10.280177940672056 0 0 1
355 1 5 -0.1143 24.081065412645106 10.627652534973711 8.319168041467018 0 0 1
358 1 2 -0.1268 26.60444208308053 12.115620543729017 9.724721052838056 0 0 1
354 1 8 0.0822 24.842301502531825 9.997189837298148 9.411960098533417 0 0 1
352 1 3 0.1268 25.149139227160653 7.055536884302308 9.461359585086873 0 0 1
357 1 2 0.0732 25.806577633559936 11.130851867971494 10.394991040288243 0 0 1
368 1 3 0.1268 27.0880937246364 10.473946786344964 7.725062019357581 0 0 1
367 1 2 -0.1268 27.128191630822073 9.430490021450543 8.042482580817378 0 0 1
351 1 2 -0.1268 26.042514907385964 7.535521786857283 8.949622125665408 0 0 1
353 1 2 0.0732 26.02957601509899 8.934950548377207 8.6975073527926 0 0 1
369 1 2 -0.1268 28.261456118141204 8.699172245744476 7.797193184066303 0 0 1
348 1 2 0.0265 28.400238504369238 7.350653925855589 8.196032655527276 0 0 1
349 1 2 -0.1268 27.241802559270344 6.775628600405568 8.750291031440895 0 0 1
370 1 3 0.1268 29.0918135603135 9.201334819206249 7.233842762013267 0 0 1
9607 8 3 0.1268 28.097664238212033 6.710301229780292 11.149198046110309 0 1 0
347 1 6 -0.053 29.559093976955626 6.665852804667918 7.975461400944741 0 0 1
365 1 2 -0.1268 25.906282750760017 11.083000811520902 11.771774423618169 0 0 1
346 1 2 0.0265 30.589880203767308 7.1893558211163135 7.227167528623358 0 0 1
9609 8 3 0.1268 28.158649889898374 8.903203208033627 11.941934003336367 0 1 0
8481 7 2 -0.1268 32.23540647421805 6.664110951085673 12.010664035938383 0 1 0
8482 7 3 0.1268 31.315061205474546 6.118544404557937 11.637705492981787 0 1 0
342 1 2 -0.1268 32.94852501442031 7.666564954649688 6.917498730230055 0 0 1
344 1 2 -0.1268 31.91241824891837 7.2653930979751555 7.723530573074704 0 0 1
8480 7 3 0.1268 32.17077863540198 8.399123451837124 10.683926565575474 0 1 0
876 1 3 0.053 36.124298670944555 9.429803061641618 9.109864711436348 0 1 1
343 1 3 0.1268 33.990072152345704 7.883223039583505 7.294265389619488 0 0 1
875 1 3 0.053 35.292444846010255 10.937298469955934 8.63706252647851 0 1 1
8467 7 5 -0.1143 33.38842100622746 10.443095847673789 10.321256505593663 0 1 0
874 1 3 0.053 35.52012687395579 9.610572094905343 7.395145482346076 0 1 1
879 1 3 0.053 36.29700196191472 11.695952108310411 6.331661175838844 0 1 1
873 1 1 -0.159 35.98581285217252 10.065916729874106 8.253357721556528 0 1 1
345 1 3 0.1268 32.141112802652856 7.177085556291302 8.784563796037036 0 0 1
8468 7 5 -0.1143 35.45522609862289 10.085473417034084 11.656276327271144 0 1 0
8466 7 8 0.0822 34.028955934217834 10.170311860422501 11.594239677444095 0 1 0
8479 7 2 -0.1268 32.59138579510591 7.948882115373825 11.645518635085343 0 1 0
8478 7 3 0.1268 31.511602930114133 11.77858318389482 12.100410220300633 0 1 0
5398 4 3 0.1268 36.77234374382718 6.974302924045979 11.006208978967752 0 1 1
5397 4 2 -0.1268 36.986038250816506 5.994148805573957 10.549918207218795 0 1 1
878 1 3 0.053 37.942704936780395 12.067667440566359 6.230823510106234 0 1 1
5374 4 2 0.0265 39.189241930236946 6.974288734806229 12.132027903361124 0 1 1
5373 4 3 0.1268 40.689862069756046 8.432374253698384 11.76822870473147 0 1 1
912 1 3 0.1268 39.716761874562906 11.935696010202655 11.809672796173228 0 1 1
877 1 1 -0.159 37.280645295226265 11.24298550628226 6.461977664756841 0 1 1
881 1 2 0 37.810160772924725 11.667742636319527 8.950438325526214 0 1 1
872 1 1 0 37.37202053189749 10.663531898091822 7.886945586511114 0 1 1
916 1 3 0.1268 37.42235697242107 7.800447526018873 7.782641865263854 0 1 1
866 1 2 0.0265 40.78850292296639 7.7887396017600565 7.64997971712506 0 1 1
869 1 2 -0.1268 39.87954730081391 10.00824219475465 7.595741535395855 0 1 1
871 1 2 0 38.56520852454287 9.628590738039302 7.809295270261182 0 1 1
915 1 2 -0.1268 38.36866078581615 8.251223196618838 7.738707284514496 0 1 1
913 1 2 -0.1268 38.61123079514364 11.284658858078943 10.054488721994495 0 1 1
5635 5 3 0.053 42.86814547457821 10.996767130572803 9.477142093480975 0 0 0
914 1 3 0.1268 39.04945285894536 10.203337780985683 10.047835668336099 0 1 1
868 1 3 0.1268 42.040639928635 9.610707794957701 7.5192147669722305 0 1 1
917 1 2 -0.1268 39.44491091938829 7.367265661494249 7.599671528916144 0 1 1
870 1 3 0.1268 40.0004397660541 11.124025400663998 7.604385140851539 0 1 1
867 1 2 -0.1268 40.95954369706482 9.203881759941062 7.673449643196146 0 1 1
865 1 6 -0.053 41.93956217241241 6.993370858112415 7.7527564129234845 0 1 1
5375 4 6 -0.053 39.35648968685476 6.339801860242178 10.880921668906886 0 1 1
5506 5 3 0.1268 42.842948451895964 7.010187394242296 11.731302337055965 0 0 0
918 1 3 0.1268 39.136596493741195 6.305327487548969 7.559403898221238 0 1 1
5629 5 2 -0.1268 43.202478865106315 11.757275475869307 6.728974666404468 0 0 0
1711 2 3 0.1268 46.12204227347455 11.512044538089325 7.41536656211064 0 0 0
5496 5 2 -0.1268 44.84939284113514 7.614444130463448 9.325518290435465 0 0 0
5634 5 3 0.053 44.64017102585723 11.112390384269261 9.305412820260761 0 0 0
5497 5 3 0.1268 44.28521494180214 8.478147326853545 9.719929215057437 0 0 0
1710 2 2 -0.1268 47.00542230146593 10.888438040069937 7.251339290768439 0 0 0
5633 5 1 -0.159 43.71745357802219 11.604821615986609 9.591590162037413 0 0 0
5499 5 3 0.1268 44.295228985402844 7.726852665364575 7.23404114078828 0 0 0
1712 2 2 -0.1268 47.338697430355865 10.100262279314366 8.343038207272235 0 0 0
5495 5 2 0.0732 45.689583384961495 7.005491636237371 10.263804036020758 0 0 0
1732 2 2 0.0265 49.540676135080005 7.393418506659201 9.374149037741738 0 0 0
1783 2 2 -0.1268 49.468480188789755 6.595987276293856 8.240437711090614 0 0 0
1714 2 2 0.0265 48.53503043315651 9.356515402862433 8.348110050008232 0 0 0
5498 5 2 -0.1268 44.97178754963025 7.248484656486947 7.973539255302487 0 0 0
5636 5 3 0.053 43.7625302026747 11.712827081693089 10.720387004052789 0 0 0
1709 2 2 0.0732 47.78704526168502 11.013943646171693 6.0932831322344105 0 0 0
1713 2 3 0.1268 46.60428958401488 10.122917647424865 9.164560865974016 0 0 0
5630 5 3 0.1268 44.00145754119124 11.15181787310592 7.141895600221372 0 0 0
1731 2 6 -0.053 48.78604681972864 8.597222464294418 9.463857646169705 0 0 0
1715 2 2 -0.1268 49.38602912152052 9.472369213976497 7.238326477565783 0 0 0
1784 2 3 0.1268 48.937244430558806 6.9322444993980845 7.291058626775136 0 0 0
1717 2 2 -0.1268 48.999012897621796 10.279449976738395 6.1217065170007015 0 0 0
5492 5 8 0.0822 45.73918283721281 7.408835163346691 11.950002099358036 0 0 0
5493 5 5 -0.1143 45.225385763175794 8.731717490258111 11.981442219293795 0 0 0
9409 7 6 -0.053 48.492501035435694 12.063813636822095 11.288309927134847 0 1 0
5500 5 2 0.0265 45.818487775774344 6.132503332688969 7.621850776010292 0 0 0
1734 2 3 0.1268 50.22462801135178 7.637037266921364 11.424938378282713 0 0 0
9429 7 3 0.1268 53.71332067204419 7.592143790422745 8.349557133898044 0 1 0
9428 7 2 -0.1268 54.24202444683549 8.549666511451878 8.492601267121996 0 1 0
9423 7 3 0.053 52.90238151435152 11.947118622702007 6.503570274421853 0 1 0
9410 7 2 0.0265 49.71871620483613 12.165143327626197 10.63552195527788 0 1 0
1716 2 3 0.1268 50.28399945818782 8.788812856745423 7.219267208754126 0 0 0
9426 7 2 -0.1268 53.58119287698503 9.823052533487102 8.471814302966257 0 1 0
9427 7 3 0.1268 52.49610410480834 9.822980549721198 8.24814759224135 0 1 0
9425 7 2 0 54.27741647974783 11.055745166509155 8.641709449100619 0 1 0
9459 7 2 -0.1268 52.13138096289087 12.165823806152233 10.542760273144264 0 1 0
1733 2 2 -0.1268 50.13702313148583 6.942969966363157 10.566429030994202 0 0 0
9461 7 2 -0.1268 50.96497413684709 11.9124841586083 11.234013108403762 0 1 0
9460 7 3 0.1268 53.07231161099082 11.94798418947619 11.06947437069803 0 1 0
9457 7 2 -0.1268 55.60178157389262 10.924155077880934 8.998670112496328 0 1 0
9430 7 2 0.0265 55.63286840514877 8.45431291120841 8.723975945351855 0 1 0
9434 7 3 0.1268 55.888646795533035 7.588476410867687 6.364493715189574 0 1 0
5732 5 3 0.1268 55.14593961354828 12.13791778764936 12.068500621687223 0 0 0
5730 5 3 0.1268 55.30828901819264 9.727158950442515 12.138313914937383 0 0 0
43 1 2 -0.1268 6.302363847859298 16.521361589597312 7.126589373866903 0 0 0
9807 8 3 0.1268 9.54730771663666 12.376179983684775 10.535954400099772 0 1 0
31 1 5 -0.1143 6.932750994944838 16.507247277837052 10.00561184811202 0 0 0
32 1 5 -0.1143 7.885879176122103 14.224968298675549 9.661200900665012 0 0 0
28 1 3 0.1268 8.649429617706375 14.087861069564486 6.931162493550156 0 0 0
27 1 2 -0.1268 7.803779437528054 14.78148675185898 6.707476212800452 0 0 0
30 1 8 0.0822 7.776372434383622 15.59202364918382 9.27846164522939 0 0 0
33 1 2 0.0732 9.331834763897241 16.23237500389296 9.137143780632366 0 0 0
29 1 2 0.0732 7.304512074586864 15.653943154844345 7.6058474462046375 0 0 0
42 1 3 0.1268 10.32454612288627 14.37556728779099 8.808120239777299 0 0 0
41 1 2 -0.1268 10.522921880415204 15.456905679287097 9.063062956267991 0 0 0
34 1 2 -0.1268 9.53601774403271 17.58098023847124 9.350388403485303 0 0 0
36 1 2 -0.1268 10.858948375707826 18.102745424805402 9.502421078751102 0 0 0
44 1 3 0.1268 5.99265280037055 17.304921330346893 7.81355970112749 0 0 0
35 1 3 0.1268 8.770923215195781 18.339783875777567 9.391518444030446 0 0 0
9806 8 2 -0.1268 9.990758778353063 12.523664344768815 11.513014242451447 0 1 0
39 1 2 -0.1268 11.83472070437354 15.915554860558224 9.258633338806893 0 0 0
38 1 2 0.0265 11.956222369447286 17.274796929653803 9.552591199626763 0 0 0
9809 8 3 0.1268 8.47950092046187 14.024856861710246 12.03490542917782 0 1 0
72 1 2 -0.1268 17.044786904494067 13.208408915309487 12.184468993902788 0 0 0
40 1 3 0.1268 12.65014356431898 15.198863904325767 9.122411552915523 0 0 0
73 1 3 0.1268 16.73725138312278 13.312003482005341 11.153168613169951 0 0 0
7138 6 3 0.1268 15.702787992816424 15.246045040616323 8.023404038911673 1 1 1
7137 6 2 -0.1268 16.233763746613448 14.921486497399629 7.078076893685867 1 1 1
59 1 2 -0.1268 16.65536457441013 17.001008660684263 10.2936236755047 0 0 0
56 1 2 0.0265 14.210966818074626 17.184470042642715 10.339469481041995 0 0 0
57 1 2 -0.1268 15.47989068668956 17.584021800710566 9.897989287775022 0 0 0
55 1 6 -0.053 13.167854279655362 17.920392697810463 9.844180766981957 0 0 0
107 1 2 -0.1268 14.222051246749848 16.14912937934531 11.274364133273908 0 0 0
61 1 2 0 16.69030164914257 16.074341597472042 11.370373894939839 0 0 0
108 1 3 0.1268 13.25192837887008 15.765592805808792 11.819158155481528 0 0 0
7135 6 2 -0.1268 15.585634798696276 13.8735290580263 6.354317937337701 1 1 1
58 1 3 0.1268 15.53582077789302 18.354608688303287 9.160690703472945 0 0 0
105 1 2 -0.1268 15.406182772598719 15.693090568393943 11.81270176064445 0 0 0
7086 6 2 0.0265 17.484575973330827 15.406312211506771 6.6617777983389495 1 1 1
60 1 3 0.1268 17.641167137668745 17.33016059562297 9.89076125006674 0 0 0
62 1 1 0 17.96254272870114 15.509507580594226 12.045357773267922 0 0 0
7085 6 6 -0.053 18.14426904974919 16.408209791660866 7.365172163181181 1 1 1
7136 6 3 0.1268 14.622650308118956 13.553761466062177 6.827884765934299 1 1 1
70 1 3 0.053 20.022170220597896 14.91988030527091 11.858696245932967 0 0 0
69 1 3 0.053 19.103611021615603 14.517304250059947 10.34533526826358 0 0 0
7070 6 3 0.1268 19.606405021021203 14.089981816279666 7.275856857770354 1 1 1
68 1 3 0.053 19.688488097564324 16.22275411327996 10.567493191494783 0 0 0
7068 6 2 0.0265 19.486920156798774 16.24378776519145 7.6777501092973495 1 1 1
7067 6 3 0.1268 19.765114646348117 18.2410327264356 8.28162019905363 1 1 1
7059 6 2 0.0732 23.397824910160235 15.411561477220602 10.812530153792839 1 1 1
7069 6 2 -0.1268 20.094487041525866 14.97761670306898 7.686819750331982 1 1 1
7057 6 2 -0.1268 23.57927133844869 16.425298536675804 11.6975242180726 1 1 1
7073 6 2 -0.1268 22.706078316614803 14.280276457941822 11.324482801555115 1 1 1
7071 6 2 -0.1268 21.425665795580947 14.734952115758137 7.999377223220852 1 1 1
7060 6 8 0.0822 23.743853925751747 15.60449479861069 9.095285415692858 1 1 1
7066 6 2 -0.1268 20.246950249556754 17.3149279336714 8.186783778061516 1 1 1
7063 6 2 0.0732 22.200243039257785 15.81095114983071 8.469819128830514 1 1 1
7065 6 3 0.1268 22.08084708130863 17.891011213379514 9.152605109076104 1 1 1
7064 6 2 -0.1268 21.540356390080724 17.0425835185262 8.610169059922388 1 1 1
67 1 1 -0.159 19.227846757805395 15.29582561958071 11.150808206194855 0 0 0
7058 6 3 0.1268 23.912883764142734 17.427831813915475 11.255960854313498 1 1 1
7074 6 3 0.1268 22.413487309393343 13.406662947994423 10.62444360805857 1 1 1
7072 6 3 0.1268 21.864974649349172 13.722520587445125 7.9987944505635244 1 1 1
7061 6 5 -0.1143 24.3361528979674 14.358079312968371 8.738899290929636 1 1 1
7062 6 5 -0.1143 24.58822897443216 16.774933239214302 8.943680595679073 1 1 1
3732 3 2 0.0265 24.12806233376846 18.17243835537907 6.098264729071166 1 -1 0
3745 3 3 0.053 22.71116749774304 13.439834651388892 6.038145220625992 1 -1 0
381 1 2 -0.1268 29.618952970245935 15.718849692766707 11.965202090892623 0 0 1
380 1 2 0.0265 28.413715624557323 15.029437955108241 11.988318952763885 0 0 1
432 1 3 0.1268 26.251015684468747 15.19882831796628 11.758224715896388 0 0 1
383 1 2 -0.1268 29.575814704238994 17.035546043043688 11.680493713994816 0 0 1
384 1 3 0.1268 30.540990174197365 17.585315203345083 11.675117143927379 0 0 1
3784 3 3 0.1268 26.16450424428881 17.48599859623754 6.247577496056076 1 -1 0
362 1 2 0.0265 27.531419232252382 12.908118435796403 11.738242582658506 0 0 1
429 1 2 -0.1268 27.2447471392293 17.072268009097684 11.340299697860297 0 0 1
385 1 2 0 28.44473914159952 17.780536266764194 11.299332732524787 0 0 1
430 1 3 0.1268 26.326471313359665 17.542912587626322 11.022435347081142 0 0 1
4579 4 3 0.1268 29.275630712905627 16.883711459455178 6.2335086951068 0 0 1
360 1 2 -0.1268 27.483989829431085 12.927095446371167 10.384124180675782 0 0 1
361 1 3 0.1268 28.11861010007355 13.66194073635575 9.810105385307443 0 0 1
10748 8 3 0.1268 28.58931205110489 13.649495385985167 6.992322381684598 -1 1 0
10747 8 2 -0.1268 29.646620895331793 13.296737545510629 6.785114895635718 -1 1 0
431 1 2 -0.1268 27.198103996939878 15.736338277174555 11.704254309061284 0 0 1
359 1 3 0.1268 26.355690501449814 12.236136008013725 8.655113567732679 0 0 1
10746 8 3 0.1268 30.226736789128978 13.351458678591644 8.894425391940972 -1 1 0
10745 8 2 -0.1268 30.601225123880173 13.279405492282724 7.84463034304481 -1 1 0
393 1 3 0.053 28.668329643262982 18.443537963752604 8.821182026106962 0 0 1
10812 8 3 0.1268 35.16581880517704 14.282342378768785 12.123433727058453 -1 1 0
10771 8 3 0.053 36.38396113447084 17.289198420774326 11.469139501484268 -1 1 0
7590 6 2 -0.1268 35.92790639105175 15.697345289106185 6.319198827871661 0 0 2
10767 8 2 0 34.01858385021637 15.99508581389375 11.345685936124966 -1 1 0
10811 8 2 -0.1268 34.4602290902521 14.686077850846672 11.360495674842452 -1 1 0
883 1 3 0.1268 36.54917227712909 13.233473032066712 8.238029658265882 0 1 1
10766 8 3 0.1268 32.77023725033549 17.321387802466475 10.069246667495333 -1 1 0
10764 8 3 0.1268 32.08744541924361 15.802303648787182 8.570384854843708 -1 1 0
10762 8 2 0.0265 33.1606919513312 14.037144708017692 9.420743047097659 -1 1 0
10763 8 2 -0.1268 32.65905392507927 15.330553166626666 9.386069561355049 -1 1 0
10813 8 2 -0.1268 34.09476970111699 13.753177391470128 10.428752357072515 -1 1 0
10742 8 2 -0.1268 32.39292680810935 12.874169362601132 6.2917655737262885 -1 1 0
10765 8 2 -0.1268 33.189534312196805 16.275257911411366 10.23106775476516 -1 1 0
10744 8 2 0.0265 31.971571908009132 13.11610554652028 7.57778244924377 -1 1 0
10814 8 3 0.1268 34.60483590914236 12.769196722792007 10.405803607897257 -1 1 0
10761 8 6 -0.053 32.855633920276574 12.996306798519278 8.58152776262396 -1 1 0
7591 6 3 0.1268 35.627414362440085 15.572022946229723 7.320345443594626 0 0 2
10743 8 3 0.1268 33.45747973909543 12.673365330479013 6.008192009015477 -1 1 0
885 1 3 0.1268 37.01109178496367 14.794884344861824 9.91693223266383 0 1 1
4600 4 3 0.1268 33.14523064999436 17.75381257544292 6.705452305695192 0 0 1
5640 5 3 0.053 42.71470305691072 13.671150575007893 10.885757643355713 0 0 0
5639 5 3 0.053 41.48864731665351 13.107779369821507 9.85620782464983 0 0 0
5675 5 2 -0.1268 42.06471645318936 13.917335314579264 6.991738424685908 0 0 0
7593 6 6 -0.053 38.188174152200745 15.453264142617154 6.8979926080571214 0 0 2
7595 6 2 -0.1268 39.78518871382832 16.57187413746522 8.232886904510666 0 0 2
7594 6 2 0.0265 38.86800869829743 16.619765235105 7.160913087510402 0 0 2
887 1 6 -0.053 38.612057309580976 14.414487784511373 12.00841924182605 0 1 1
886 1 2 0.0265 38.3795534238443 13.472191398130903 11.068813973682447 0 1 1
7597 6 2 -0.1268 40.57990162523738 17.647525500484438 8.499306143319872 0 0 2
7598 6 3 0.1268 41.34486883963463 17.576320454829713 9.345223575990081 0 0 2
7596 6 3 0.1268 40.06395462321835 15.611091034803055 8.657183939003989 0 0 2
884 1 2 -0.1268 37.476590052584186 13.792267438416452 10.051578372668486 0 1 1
5638 5 3 0.053 42.173000158449625 14.743473888210973 9.659084002820535 0 0 0
5676 5 3 0.1268 41.950951215526814 14.919921754414375 7.427701113235532 0 0 0
5637 5 1 -0.159 42.42253775128542 13.684020947597379 9.841772073355132 0 0 0
911 1 2 -0.1268 39.02610507562345 12.22521804188725 10.99331130789589 0 1 1
882 1 2 -0.1268 37.23647208880067 12.93298483439526 9.007925669248436 0 1 1
5631 5 2 0 42.77137946598316 12.843803546944613 7.579559166585003 0 0 0
7615 6 2 -0.1268 38.80121528898792 17.807479018424196 6.39468821844601 0 0 2
9412 7 3 0.1268 48.725316981304545 12.93021856166027 8.805565847479004 0 1 0
5643 5 3 0.1268 45.52382166673864 13.308902020651749 10.751734975817161 0 0 0
5632 5 1 0 43.44351655887536 12.992787103364275 8.905542152150346 0 0 0
5649 5 2 -0.1268 48.42795018710372 17.168489328658268 11.047814526409024 0 0 0
5642 5 2 -0.1268 45.67705700115967 13.957645415648148 9.852468963610473 0 0 0
5645 5 3 0.1268 47.451966820394446 14.883757039731115 10.80117474658584 0 0 0
5674 5 3 0.1268 44.18374642664793 14.93091597517079 6.934413788011641 0 0 0
5644 5 2 -0.1268 46.69259416896635 14.886089348513396 9.939820392033079 0 0 0
5671 5 2 -0.1268 46.03334157312446 15.60602568239068 7.761787893169133 0 0 0
5673 5 2 -0.1268 44.9097939043435 14.7894888762386 7.749841264733847 0 0 0
5646 5 2 0.0265 46.89502282622615 15.740999048362015 8.870849623812813 0 0 0
5672 5 3 0.1268 46.202385182168825 16.245750641472785 6.91339947475466 0 0 0
5641 5 2 0 44.68540836981906 13.908826502723539 8.796157054574003 0 0 0
5647 5 6 -0.053 47.993435994950616 16.533184791138368 8.743911748846843 0 0 0
5648 5 2 0.0265 48.86582477492013 16.681063412665793 9.797842044695944 0 0 0
1704 2 3 0.1268 48.04400401542196 14.75365272338317 5.986999701098856 0 0 0
5650 5 3 0.1268 47.39193263378702 17.597588634739015 10.986966479346059 0 0 0
5653 5 2 0.0732 50.585046195107466 16.89137033201283 12.086521037627511 0 0 0
9415 7 2 0 52.11968220501052 12.35791837843831 9.172087925360566 0 1 0
1702 2 3 0.1268 49.756265551563104 16.12866829362884 5.9723581271988175 0 0 0
9411 7 2 -0.1268 49.71750449171499 12.603204036781918 9.313787197903716 0 1 0
9424 7 3 0.053 54.478194862483164 12.893797828891522 6.674102624044593 0 1 0
9413 7 2 -0.1268 50.90068321233893 12.530451672160229 8.565116330759045 0 1 0
9416 7 1 0 53.58349593871124 12.403633600920848 8.615801075697076 0 1 0
9418 7 3 0.053 55.18074313319042 13.852023790029254 8.860556555083843 0 1 0
9414 7 3 0.1268 50.954232444769985 12.860292949310356 7.551490316082087 0 1 0
5668 5 3 0.1268 52.12373328623582 16.231402680275266 10.674517525934451 0 0 0
5667 5 2 -0.1268 51.069359587163035 16.493861845163707 10.807820991559609 0 0 0
9420 7 3 0.053 54.57544708682079 13.099998901156155 10.260852102929837 0 1 0
5669 5 2 -0.1268 50.20846034120045 16.33436325785599 9.688303118117098 0 0 0
5670 5 3 0.1268 50.600604900275286 16.0485840912064 8.681974734722868 0 0 0
1724 2 3 0.1268 52.85296899646903 15.67438592076 7.70803976300912 0 0 0
1723 2 2 -0.1268 52.63185713118564 16.66289832731644 7.1365993826749605 0 0 0
9419 7 3 0.053 53.617456508345896 14.48118604114818 9.530716701973821 0 1 0
9421 7 1 -0.159 53.453241154403585 12.74403998233511 7.06492504167037 0 1 0
9417 7 1 -0.159 54.25966096498108 13.555080926889564 9.342958266825542 0 1 0
9422 7 3 0.053 53.042344882311156 13.748941679447256 6.871213140468052 0 1 0
1725 2 2 -0.1268 52.65735937814573 17.829154188559905 7.950006407988603 0 0 0
1726 2 3 0.1268 52.98106242698202 17.626396573630892 8.965118916938847 0 0 0
9819 8 5 -0.1143 7.256949846454432 20.0479687797423 12.00306212436481 0 1 0
6748 5 3 0.1268 6.0195020224835645 19.97904560478809 6.677138652545529 1 0 0
37 1 3 0.1268 11.02672197273439 19.168115209368565 9.612893564937432 0 0 0
6750 5 3 0.1268 6.689252876328448 20.94025540155494 8.974276288287328 1 0 0