LAMMPS data file via write_data, version 22 Jul 2025, timestep = 1000000, units = real

6420 atoms
4 atom types
6810 bonds
8 bond types
12000 angles
15 angle types
19110 dihedrals
24 dihedral types
5600 impropers
14 improper types

3.956494565624915 46.778190464361316 xlo xhi
3.956494565624915 46.778190464361316 ylo yhi
3.956494565624915 46.778190464361316 zlo zhi

Masses

1 12.01115
2 12.01115
3 12.01115
4 1.00797

Pair Coeffs # lj/class2/coul/long/gpu

1 0.054 4.01
2 0.054 4.01
3 0.064 4.01
4 0.02 2.995

Bond Coeffs # class2

1 1.53 299.67 -501.77 679.81
2 1.53 299.67 -501.77 679.81
3 1.501 321.902 -521.821 572.163
4 1.101 345 -691.89 844.6
5 1.501 321.902 -521.821 572.163
6 1.101 345 -691.89 844.6
7 1.417 470.836 -627.618 1327.63
8 1.0982 372.825 -803.453 894.317

Angle Coeffs # class2

1 112.67 39.516 -7.443 -9.5583
2 108.4 43.9594 -8.3924 -9.3379
3 110.77 41.453 -10.604 5.129
4 112.67 39.516 -7.443 -9.5583
5 108.4 43.9594 -8.3924 -9.3379
6 110.77 41.453 -10.604 5.129
7 120.05 44.7148 -22.7352 0
8 112.67 39.516 -7.443 -9.5583
9 110.77 41.453 -10.604 5.129
10 120.05 44.7148 -22.7352 0
11 111 44.3234 -9.4454 0
12 111 44.3234 -9.4454 0
13 118.9 61.0226 -34.9931 0
14 117.94 35.1558 -12.4682 0
15 107.66 39.641 -12.921 -2.4318

BondBond Coeffs

1 0 1.53 1.53
2 0 1.53 1.501
3 3.3872 1.53 1.101
4 0 1.53 1.53
5 0 1.53 1.501
6 3.3872 1.53 1.101
7 12.0676 1.501 1.417
8 0 1.53 1.53
9 3.3872 1.53 1.101
10 12.0676 1.501 1.417
11 2.9168 1.501 1.101
12 2.9168 1.501 1.101
13 68.2856 1.417 1.417
14 1.0795 1.417 1.0982
15 5.3316 1.101 1.101

BondAngle Coeffs

1 8.016 8.016 1.53 1.53
2 0 0 1.53 1.501
3 20.754 11.421 1.53 1.101
4 8.016 8.016 1.53 1.53
5 0 0 1.53 1.501
6 20.754 11.421 1.53 1.101
7 47.0579 31.0771 1.501 1.417
8 8.016 8.016 1.53 1.53
9 20.754 11.421 1.53 1.101
10 47.0579 31.0771 1.501 1.417
11 26.4608 11.7717 1.501 1.101
12 26.4608 11.7717 1.501 1.101
13 28.8708 28.8708 1.417 1.417
14 20.0033 24.2183 1.417 1.0982
15 18.103 18.103 1.101 1.101

Dihedral Coeffs # class2

1 0 0 0.0514 0 -0.143 0
2 0 0 0 0 0.158 180
3 0 0 0.0316 0 -0.1681 0
4 -0.2802 0 -0.0678 0 -0.0122 0
5 0 0 0.0514 0 -0.143 0
6 0 0 0.0316 0 -0.1681 0
7 -0.2802 0 -0.0678 0 -0.0122 0
8 0 0 4.4072 0 0 0
9 0 0 1.559 0 0 0
10 0 0 0 0 0.158 180
11 0 0 0.0316 0 -0.1681 0
12 0 0 0 0 0.158 180
13 0 0 0.0316 0 -0.1681 0
14 0 0 4.4072 0 0 0
15 0 0 1.559 0 0 0
16 -0.0228 0 0.028 0 -0.1863 0
17 -0.0228 0 0.028 0 -0.1863 0
18 -0.2801 0 -0.0678 0 -0.0122 0
19 -0.2801 0 -0.0678 0 -0.0122 0
20 8.3667 0 1.1932 0 0 0
21 0 0 3.9661 0 0 0
22 -0.1432 0 0.0617 0 -0.1083 0
23 -0.1432 0 0.0617 0 -0.1083 0
24 0 0 1.8769 0 0 0

AngleAngleTorsion Coeffs

1 -22.045 112.67 112.67
2 0 112.67 108.4
3 -16.164 112.67 110.77
4 0 108.4 120.05
5 -22.045 112.67 112.67
6 -16.164 112.67 110.77
7 0 108.4 120.05
8 -14.4097 120.05 118.9
9 4.4444 120.05 117.94
10 0 112.67 108.4
11 -16.164 112.67 110.77
12 0 112.67 108.4
13 -16.164 112.67 110.77
14 -14.4097 120.05 118.9
15 4.4444 120.05 117.94
16 0 108.4 110.77
17 0 108.4 110.77
18 -5.8888 120.05 111
19 -5.8888 120.05 111
20 0 118.9 118.9
21 -4.8141 118.9 117.94
22 -12.564 110.77 110.77
23 -12.564 110.77 110.77
24 0.3598 117.94 117.94

EndBondTorsion Coeffs

1 -0.0732 0 0 -0.0732 0 0 1.53 1.53
2 0 0 0 0 0 0 1.53 1.501
3 0.2486 0.2422 -0.0925 0.0814 0.0591 0.2219 1.53 1.101
4 0 0 0 0 0 0 1.53 1.417
5 -0.0732 0 0 -0.0732 0 0 1.53 1.53
6 0.2486 0.2422 -0.0925 0.0814 0.0591 0.2219 1.53 1.101
7 0 0 0 0 0 0 1.53 1.417
8 0 0.2421 0 0 -0.6918 0 1.501 1.417
9 0 -1.797 0 0 -0.4879 0 1.501 1.0982
10 0 0 0 0 0 0 1.53 1.501
11 0.2486 0.2422 -0.0925 0.0814 0.0591 0.2219 1.53 1.101
12 0 0 0 0 0 0 1.53 1.501
13 0.2486 0.2422 -0.0925 0.0814 0.0591 0.2219 1.53 1.101
14 0 0.2421 0 0 -0.6918 0 1.501 1.417
15 0 -1.797 0 0 -0.4879 0 1.501 1.0982
16 0 0 0 0 0 0 1.501 1.101
17 0 0 0 0 0 0 1.501 1.101
18 -0.5835 1.122 0.3978 1.3997 0.7756 0 1.417 1.101
19 -0.5835 1.122 0.3978 1.3997 0.7756 0 1.417 1.101
20 -0.1185 6.3204 0 -0.1185 6.3204 0 1.417 1.417
21 0 -6.8958 0 0 -0.4669 0 1.417 1.0982
22 0.213 0.312 0.0777 0.213 0.312 0.0777 1.101 1.101
23 0.213 0.312 0.0777 0.213 0.312 0.0777 1.101 1.101
24 0 -0.689 0 0 -0.689 0 1.0982 1.0982

MiddleBondTorsion Coeffs

1 -17.787 -7.1877 0 1.53
2 0 0 0 1.53
3 -14.879 -3.6581 -0.3138 1.53
4 0 0 0 1.501
5 -17.787 -7.1877 0 1.53
6 -14.879 -3.6581 -0.3138 1.53
7 0 0 0 1.501
8 0 9.1792 0 1.417
9 0 3.9421 0 1.417
10 0 0 0 1.53
11 -14.879 -3.6581 -0.3138 1.53
12 0 0 0 1.53
13 -14.879 -3.6581 -0.3138 1.53
14 0 9.1792 0 1.417
15 0 3.9421 0 1.417
16 0 0 0 1.53
17 0 0 0 1.53
18 -5.5679 1.4083 0.301 1.501
19 -5.5679 1.4083 0.301 1.501
20 27.5989 -2.312 0 1.417
21 0 -1.1521 0 1.417
22 -14.261 -0.5322 -0.4864 1.53
23 -14.261 -0.5322 -0.4864 1.53
24 0 4.8228 0 1.417

BondBond13 Coeffs

1 0 1.53 1.53
2 0 1.53 1.501
3 0 1.53 1.101
4 0 1.53 1.417
5 0 1.53 1.53
6 0 1.53 1.101
7 0 1.53 1.417
8 2.5085 1.501 1.417
9 0.8743 1.501 1.0982
10 0 1.53 1.501
11 0 1.53 1.101
12 0 1.53 1.501
13 0 1.53 1.101
14 2.5085 1.501 1.417
15 0.8743 1.501 1.0982
16 0 1.501 1.101
17 0 1.501 1.101
18 -3.4826 1.417 1.101
19 -3.4826 1.417 1.101
20 53 1.417 1.417
21 -6.2741 1.417 1.0982
22 0 1.101 1.101
23 0 1.101 1.101
24 -1.7077 1.0982 1.0982

AngleTorsion Coeffs

1 0.3886 -0.3139 0.1389 0.3886 -0.3139 0.1389 112.67 112.67
2 0 0 0 0 0 0 112.67 108.4
3 -0.2454 0 -0.1136 0.3113 0.4516 -0.1988 112.67 110.77
4 0 0 0 0 0 0 108.4 120.05
5 0.3886 -0.3139 0.1389 0.3886 -0.3139 0.1389 112.67 112.67
6 -0.2454 0 -0.1136 0.3113 0.4516 -0.1988 112.67 110.77
7 0 0 0 0 0 0 108.4 120.05
8 0 -4.4683 0 0 3.8987 0 120.05 118.9
9 0 -0.1242 0 0 3.4601 0 120.05 117.94
10 0 0 0 0 0 0 112.67 108.4
11 -0.2454 0 -0.1136 0.3113 0.4516 -0.1988 112.67 110.77
12 0 0 0 0 0 0 112.67 108.4
13 -0.2454 0 -0.1136 0.3113 0.4516 -0.1988 112.67 110.77
14 0 -4.4683 0 0 3.8987 0 120.05 118.9
15 0 -0.1242 0 0 3.4601 0 120.05 117.94
16 0 0 0 0 0 0 108.4 110.77
17 0 0 0 0 0 0 108.4 110.77
18 0.2251 0.6548 0.1237 4.6266 0.1632 0.0461 120.05 111
19 0.2251 0.6548 0.1237 4.6266 0.1632 0.0461 120.05 111
20 1.9767 1.0239 0 1.9767 1.0239 0 118.9 118.9
21 0 2.5014 0 0 2.7147 0 118.9 117.94
22 -0.8085 0.5569 -0.2466 -0.8085 0.5569 -0.2466 110.77 110.77
23 -0.8085 0.5569 -0.2466 -0.8085 0.5569 -0.2466 110.77 110.77
24 0 2.4501 0 0 2.4501 0 117.94 117.94

Improper Coeffs # class2

1 0 0
2 0 0
3 0 0
4 0 0
5 0 0
6 0 0
7 0 0
8 0 0
9 0 0
10 0 0
11 0 0
12 7.8153 0
13 7.8153 0
14 4.8912 0

AngleAngle Coeffs

1 2.0403 -1.8202 1.0827 108.4 110.77 111
2 0.1184 -1.3199 -1.3199 110.77 112.67 110.77
3 1.0827 -1.8202 2.0403 110.77 108.4 111
4 0.2738 -0.4825 0.2738 110.77 110.77 107.66
5 -1.3199 -1.3199 0.1184 112.67 110.77 110.77
6 0.2738 -0.4825 0.2738 110.77 110.77 107.66
7 2.3794 3.0118 2.3794 111 111 107.66
8 -0.3157 -0.3157 -0.3157 107.66 107.66 107.66
9 0 0 0 112.67 108.4 108.4
10 -1.3199 -1.3199 0.1184 112.67 110.77 110.77
11 2.0403 -1.8202 1.0827 108.4 110.77 111
12 0 0 0 120.05 120.05 118.9
13 0 0 0 120.05 120.05 118.9
14 0 0 0 118.9 117.94 117.94

Atoms # full

5061 8 3 -0.1268 7.643956470758185 9.145380775180206 7.449375162520616 0 1 0
5062 8 4 0.1268 7.446209965890899 8.66903240429594 6.449747372690019 0 1 0
1249 2 3 -0.1268 6.204125230946813 24.87583647992212 23.6616380477968 0 0 0
485 1 4 0.053 31.99529975245655 5.350373450621801 24.81866262807769 0 0 0
5064 8 4 0.1268 5.4475528758586025 8.95858626783266 7.898258270045121 0 1 0
5063 8 3 -0.1268 6.513398022066914 9.33751857239844 8.180344261590989 0 1 0
2008 4 4 0.053 41.24586458776737 4.178112133435498 17.32898075775821 0 0 0
4588 8 4 0.1268 7.290175485448452 6.548611106673555 4.22107381566196 0 1 1
4586 8 4 0.1268 8.964962939750103 4.9681319618887585 5.493483184992733 0 1 1
4585 8 3 -0.1268 9.002465125044383 5.055589269245692 4.435731643882722 0 1 1
5055 8 1 -0.106 10.49465696691048 7.673106489946168 6.8784935540224375 0 1 0
5057 8 4 0.053 11.209092268223674 7.598352667184368 5.9668898307229945 0 1 0
5046 8 4 0.1268 12.09999712736512 4.857028448596977 7.009815356126346 0 1 0
5045 8 3 -0.1268 11.426106948948979 4.64105719078494 7.813530940183117 0 1 0
5042 8 2 -0.053 11.125007565252801 7.065627044850281 8.13635522363736 0 1 0
5056 8 4 0.053 9.593718589609622 7.2380078475733125 6.4401008001016535 0 1 0
5044 8 3 0 10.676072014789543 5.632188977525735 8.375749020632787 0 1 0
5040 8 4 0.053 13.15691701256033 6.6424121874824 7.481806500893515 0 1 0
5041 8 4 0.053 12.87885712011566 8.276052114381027 8.083766978186148 0 1 0
1244 2 4 0.1268 46.56499821754894 22.552599502160973 21.86580271261519 -1 0 0
6053 10 4 0.053 18.75425982151789 12.75829971705821 4.439160536253847 0 1 0
5060 8 3 0 8.965481838481033 9.402962502550517 7.8901955160764095 0 1 0
5058 8 2 -0.053 10.120136706503288 9.177908435146403 6.984144821587974 0 1 0
57 1 3 -0.1268 4.883835086950875 7.890914492909184 3.987838007476842 1 0 0
2034 4 4 0.1268 45.73600550499089 5.447134697268422 22.428159702471255 0 0 0
1207 2 4 0.053 8.5716948453383 23.78859316493461 25.101438791999442 0 0 0
5877 10 4 0.053 22.057655720093827 5.097200848583032 24.915668987095476 0 1 0
6033 10 3 -0.1268 20.277956765611457 8.062836610943044 3.978958798255039 0 1 0
746 2 4 0.1268 41.55903626522261 25.100424530541652 8.66373229014851 0 0 0
5051 8 3 -0.1268 9.069233641175707 3.996328502875432 9.366281644688627 0 1 0
6025 10 3 -0.1268 19.037974503292 8.258969379609747 6.045732936150701 0 1 0
6024 10 3 0 20.098752105070588 8.688316117029025 5.161764855082771 0 1 0
6027 10 3 -0.1268 18.150333630283022 7.334038605792392 5.5804542595758315 0 1 0
6029 10 3 -0.1268 18.3271416096497 6.708276322267018 4.306070404783082 0 1 0
6026 10 4 0.1268 18.8065793170491 8.879169441744784 7.001375094004969 0 1 0
4554 8 4 0.1268 14.890818089710574 6.906198549213322 3.972060936805846 0 1 1
31 1 3 -0.1268 39.80916323553857 11.842737029492364 4.604319146680018 0 0 0
6017 10 3 -0.1268 23.625598844929957 6.876779149739308 5.102429706352616 0 1 0
2193 4 3 -0.1268 5.792534879922338 4.1157954694098215 24.033720468014923 1 0 0
6018 10 4 0.1268 22.953854778729962 6.006722637609172 5.4989253665082645 0 1 0
2456 4 4 0.053 34.17186669908202 25.308069522790777 24.969674179808823 1 0 0
6023 10 4 0.053 21.938912487645144 9.65284199857264 4.952663184898292 0 1 0
6011 10 3 -0.1268 25.353570235492857 8.991162473586309 4.474911602670733 0 1 0
6007 10 4 0.053 22.085503104747715 7.531172404227022 7.2930972331350326 0 1 0
6008 10 3 0 23.694037720607554 8.052911799558338 5.95398062354336 0 1 0
6009 10 3 -0.1268 24.65784750499603 9.082547247010051 5.623422607856681 0 1 0
6006 10 2 -0.053 22.769687737760318 8.332129265996135 7.245725374996586 0 1 0
6010 10 4 0.1268 24.81306941360472 9.949247446148416 6.280013604117138 0 1 0
6003 10 1 -0.106 23.65784987802896 8.621303411634608 8.561324201295955 0 1 0
6019 10 1 -0.106 21.835884728271513 9.488039620587491 7.153974155265106 0 1 0
6004 10 4 0.053 24.599212482782065 9.217226347612716 8.281745199387128 0 1 0
5991 10 4 0.053 23.630800846077786 6.39523319663518 9.159420840472475 0 1 0
6022 10 2 -0.053 21.121592019748192 9.74716855760313 5.719619675190108 0 1 0
5990 10 2 -0.053 24.234460849352686 7.3117792540012125 9.498326066957054 0 1 0
4556 8 4 0.1268 12.401982816263292 7.448344614336252 4.065227466617944 0 1 1
5662 9 4 0.1268 30.972140560455003 5.480455152511469 6.9504179815038345 -1 1 0
334 1 4 0.1268 29.241444248050655 8.89684142613564 8.078301670878549 0 0 0
5664 9 4 0.1268 31.66773764975053 5.509049577584897 4.539025767310287 -1 1 0
5994 10 4 0.1268 25.53745019548396 5.989161678257818 7.5449863392548515 0 1 0
5993 10 3 -0.1268 26.207697239856365 6.392345210931159 8.383997766458908 0 1 0
2031 4 3 -0.1268 43.75616580253132 4.881316158880932 21.66226044596579 0 0 0
468 1 2 -0.053 34.96142309208247 4.554557786077185 25.024344992667327 0 0 0
5878 10 2 -0.053 24.2109446063999 5.782720835690279 24.93468674123061 0 1 0
12 1 4 0.1268 36.417280970010914 8.413423754301668 5.8764442143890125 0 0 0
10 1 4 0.1268 37.86407456370774 8.090119519659535 7.574367228389713 0 0 0
11 1 3 -0.1268 37.415649259161185 8.225260504061687 5.481509862972793 0 0 0
9 1 3 -0.1268 38.28086708114064 8.132995363099784 6.573734908897158 0 0 0
822 2 2 -0.053 42.612022081693766 25.29954794759749 18.843252299485634 0 0 0
37 1 4 0.053 45.00898745845914 10.55228125485299 4.31697587403433 0 0 0
2618 5 4 0.053 34.142968590656174 25.18835392421121 9.962369278288271 0 0 1
627 1 4 0.053 34.22392965401933 4.550759931606014 10.050812656879906 0 0 0
7 1 3 -0.1268 39.64840922856155 8.201382293898012 6.519752469269035 0 0 0
5 1 4 0.053 42.07822366363317 8.324043876656884 6.108644237403887 0 0 0
4 1 2 -0.053 41.77641179256195 8.36678331509737 5.0914298475347675 0 0 0
6 1 3 0 40.23085197684866 8.35769822646067 5.17915805499454 0 0 0
2583 5 3 -0.1268 35.63418480116769 25.364841198590394 18.071127689112203 0 0 1
1 1 1 -0.159 42.47539437034896 7.040176011976023 4.494531480096016 0 0 0
4337 7 4 0.053 22.96044613974616 24.622773530051084 18.78834287962959 0 0 1
1955 4 3 -0.1268 45.26571763428443 7.306754537303713 9.338488382034027 0 0 0
1954 4 4 0.1268 45.19170548417853 9.36821506271219 9.632400962946484 0 0 0
1953 4 3 -0.1268 45.47650788107245 8.443757497830507 10.099547929034664 0 0 0
1951 4 3 -0.1268 45.63092872441899 8.328066982336512 11.432687542328157 0 0 0
1948 4 3 0 45.9102950402304 6.039600523804456 11.267348978756075 0 0 0
1956 4 4 0.1268 45.14252711333849 7.3542636083784725 8.273457239309174 0 0 0
1957 4 3 -0.1268 45.47607320968828 6.085503180171482 9.923850624740659 0 0 0
1958 4 4 0.1268 45.545130492237384 5.300281594649677 9.199534948880343 0 0 0
5086 8 4 0.1268 9.559342776346531 11.842058888216176 4.9875547156810525 0 1 0
42 1 4 0.1268 45.63947397349158 11.76711480885416 8.971376935997824 0 0 0
43 1 3 -0.1268 46.609042532748944 13.318675100121824 7.894678956519412 0 0 0
5099 8 3 -0.1268 8.521826822680572 16.13750848527475 8.410201694900099 0 1 0
5100 8 4 0.1268 7.976538228797028 16.995914100460517 7.909068248265193 0 1 0
5292 9 4 0.1268 20.650372618041768 21.729893814513535 5.1280711506277035 0 0 0
5059 8 4 0.053 9.67206602927552 9.487848909337204 5.9709393316051385 0 1 0
4335 7 4 0.053 25.24875829925608 25.120676440207 20.559532472683355 0 0 1
5072 8 4 0.053 11.867040275754306 9.990693621591667 8.117145460644263 0 1 0
5073 8 4 0.053 12.106796106550823 9.666440191217932 6.400669384879315 0 1 0
5075 8 4 0.053 10.106114170766332 11.720282902118221 7.180906868685135 0 1 0
5085 8 3 -0.1268 10.50359338382966 12.043208319112209 4.606611937638691 0 1 0
5071 8 1 -0.106 11.441025142301982 10.051490814905414 7.138747287511693 0 1 0
5076 8 3 0 11.494528604928593 12.090164316202932 5.5300101167522495 0 1 0
5074 8 2 -0.053 11.225963022599435 11.652965274396003 7.012347181643373 0 1 0
5091 8 4 0.053 11.973244339249094 14.46867809422597 7.169880043736134 0 1 0
5087 8 1 -0.106 12.00647305255829 12.472588544732185 8.153933284209826 0 1 0
5088 8 4 0.053 13.132437182534057 12.228728623597965 7.929267862419497 0 1 0
5090 8 2 -0.053 11.863805101358377 14.092814497234412 8.17658013755662 0 1 0
5092 8 3 0 10.461887391080634 14.582438908927207 8.600711662891213 0 1 0
5077 8 3 -0.1268 12.800975773797404 12.351467274085245 5.10958531436491 0 1 0
5078 8 4 0.1268 13.67202643967124 12.348259928610199 5.728112520365331 0 1 0
5107 8 4 0.053 14.340780843264644 14.025251978402649 8.128743852219202 0 1 0
5305 9 3 -0.1268 11.281843644871675 20.199790115861894 4.173694816948977 0 0 0
5110 8 4 0.1268 14.3827314553203 15.194552208123 5.971309445073166 0 1 0
454 1 3 0 35.7099884468293 7.593335337491645 24.968507623320892 0 0 0
5102 8 4 0.1268 10.369399667506887 16.554420712037775 7.589189866996929 0 1 0
5101 8 3 -0.1268 9.811175344597837 15.78329454610964 8.137916703623661 0 1 0
6052 10 4 0.053 20.010965292038797 13.88374579216199 4.9993533690073715 0 1 0
6036 10 4 0.053 19.355102086755103 10.874486396085235 5.574415406801037 0 1 0
6035 10 1 -0.106 20.431146874342662 11.059263753824219 5.515679215255575 0 1 0
6037 10 4 0.053 20.634507434081716 11.881858322432592 6.267054339626884 0 1 0
3256 6 4 0.1268 18.959258428998012 15.83329452661531 5.406989535280195 0 1 1
1710 3 4 0.1268 4.631687942138752 25.107342067847707 13.312710430804069 1 0 0
5132 8 4 0.1268 18.609187074076054 12.437886387366246 7.385674186317807 0 1 0
5661 9 3 -0.1268 31.572060367761484 4.750201059964824 6.599905867274738 -1 1 0
6020 10 4 0.053 22.560583964908652 10.279001872945855 7.209911008099368 0 1 0
6005 10 4 0.053 23.04608965470184 9.283915063186338 9.216564849191315 0 1 0
4383 7 4 0.053 22.357613407884003 25.132836525294987 15.784480852799422 0 0 1
2292 4 4 0.1268 20.46726199547374 11.079824554218742 25.07062610419536 1 0 0
6047 10 3 -0.1268 24.02106273095122 13.781370924397674 4.668624970787294 0 1 0
6021 10 4 0.053 21.10700459448117 9.486051232160898 8.016007624250191 0 1 0
330 1 4 0.1268 27.303351804362777 12.838701419702891 7.400700008371128 0 0 0
6050 10 4 0.1268 22.188898518871806 13.920661797143397 5.650855691113809 0 1 0
6049 10 3 -0.1268 22.697765982941196 13.387575814659053 4.823118958598363 0 1 0
6048 10 4 0.1268 24.46261821175637 14.617009410559026 5.272726304449155 0 1 0
3288 6 4 0.1268 27.87141128591843 16.033058199905454 8.978148584776418 0 1 1
3242 6 4 0.1268 21.126037531276992 14.170947944886022 8.710359254344194 0 1 1
3240 6 4 0.1268 22.20965562399906 12.589143541676744 7.477430762799893 0 1 1
3239 6 3 -0.1268 22.86377213941397 13.135536334659191 8.110709484599479 0 1 1
3238 6 4 0.1268 24.530542965515277 11.908823276005347 7.926971399017341 0 1 1
4407 7 3 -0.1268 23.520618678063784 25.296856836254946 8.844848521449041 0 0 1
332 1 4 0.1268 27.366034865732562 10.341291977290066 6.845275064300546 0 0 0
331 1 3 -0.1268 28.091842588390964 10.852138246120978 7.6637609180358695 0 0 0
329 1 3 -0.1268 28.073826986015984 12.26286100537752 7.799144904864048 0 0 0
309 1 4 0.053 32.36079106827783 13.11566077695218 7.61417053347439 0 0 0
328 1 4 0.1268 28.738964162330205 13.911943904484147 8.858672155651735 0 0 0
327 1 3 -0.1268 28.987639429059737 12.815139237779839 8.742566798437526 0 0 0
308 1 2 -0.053 32.90085965621293 13.345356723529823 8.57400779011821 0 0 0
333 1 3 -0.1268 29.145952126989393 10.082313450649377 8.279840864001143 0 0 0
307 1 4 0.053 33.12117933276536 15.453898654851798 8.614782449896829 0 0 0
304 1 4 0.1268 32.07390453978141 16.257700763187444 6.818027074824357 0 0 0
323 1 4 0.053 31.31610331300213 14.610798907552084 9.414924894715607 0 0 0
335 1 3 -0.1268 29.926558609360608 10.635970500337358 9.280864339003866 0 0 0
326 1 3 0 29.854176785909402 12.061295929370074 9.467438576981188 0 0 0
301 1 3 -0.1268 31.274247073081455 15.585105871864588 4.927777497348478 0 0 0
336 1 4 0.1268 30.74034666495535 10.114657241394566 9.798444248411464 0 0 0
303 1 3 -0.1268 32.230510458207384 15.543748229219357 5.9631767464686956 0 0 0
320 1 4 0.1268 32.51049569163166 11.288587388335893 7.163332392979624 0 0 0
310 1 3 0 33.583397508031325 12.021075659899264 8.869527194678852 0 0 0
305 1 1 -0.106 33.839175629295035 14.535216052960681 8.542645577242713 0 0 0
319 1 3 -0.1268 33.237423980185255 10.976604865928914 7.97894238969279 0 0 0
296 1 4 0.1268 34.44945878988248 13.289358275795458 4.695131239550173 0 0 0
295 1 3 -0.1268 33.59289406330374 13.934215396694311 4.75525695811992 0 0 0
294 1 3 0 33.454341901545035 14.802648930776849 5.895548821988079 0 0 0
293 1 4 0.053 35.11786163226283 13.834765478167323 6.932640561293752 0 0 0
292 1 2 -0.053 34.3865850530714 14.673526812965445 7.123190884354388 0 0 0
291 1 4 0.053 35.94467734501882 15.956807289277714 6.077714459155352 0 0 0
289 1 1 -0.106 35.44781062401088 15.930496860316952 7.088008856415735 0 0 0
290 1 4 0.053 36.26562901158565 15.528586689273991 7.695932165540194 0 0 0
306 1 4 0.053 34.60422958429385 14.492118503300322 9.274744265263372 0 0 0
1102 2 4 0.1268 11.486403126659418 13.863666988302123 25.176738804079953 0 0 0
27 1 3 -0.1268 38.4918770454031 12.882147921307645 6.320378562439007 0 0 0
236 1 4 0.1268 42.00012108836453 12.307287531258646 9.889915048104779 0 0 0
24 1 4 0.1268 41.7629141533884 12.45514458203608 7.1647538835118345 0 0 0
8 1 4 0.1268 40.27759400742023 8.339159278766953 7.511255990496895 0 0 0
23 1 3 -0.1268 40.8002323192515 12.492582852797906 6.567486957198778 0 0 0
235 1 3 -0.1268 41.91517942769964 13.371555781076694 10.102175949449933 0 0 0
25 1 3 -0.1268 39.635654781882366 13.039596241821624 7.094352907091459 0 0 0
26 1 4 0.1268 39.379221950135985 13.594913523325877 7.973658840772936 0 0 0
21 1 4 0.053 42.65366573480416 10.971870768200937 6.105429658908326 0 0 0
22 1 3 0 40.91609447475194 11.707377085005337 5.372027049733157 0 0 0
33 1 1 -0.106 43.40294582373529 12.010786390321993 4.25064440837511 0 0 0
233 1 3 -0.1268 41.42794051214123 13.745522332609054 11.387421839318993 0 0 0
234 1 4 0.1268 40.95423640309045 13.047830677847106 12.107963382200547 0 0 0
20 1 2 -0.053 42.3095837041248 11.099822001255163 5.023885408147784 0 0 0
35 1 4 0.053 43.07729808926422 13.022960743172534 4.478532253985922 0 0 0
5875 10 1 -0.106 23.084341919739472 4.7026677819020275 24.905827515444614 0 1 0
17 1 1 -0.106 42.30470566325962 9.622147853171027 4.406657079595035 0 0 0
38 1 3 0 45.58725879689051 12.213360412099178 5.525450076215183 0 0 0
39 1 3 -0.1268 45.413607184290015 11.607954959372417 6.8322641010343865 0 0 0
41 1 3 -0.1268 45.83397167325635 12.205230685026326 7.988305921406515 0 0 0
40 1 4 0.1268 44.92376316914341 10.62687754641991 6.877633229345134 0 0 0
36 1 2 -0.053 44.92067249323188 11.640327050318948 4.354658735369533 0 0 0
5220 9 2 -0.053 11.310625726904469 25.307320910809754 9.682322260343355 0 0 0
47 1 3 -0.1268 46.26894789058132 13.41654727597593 5.527996384816094 0 0 0
48 1 4 0.1268 46.27490312315103 13.913168946214066 4.5927251149490385 0 0 0
75 1 3 -0.1268 7.021745435958119 15.168546419315456 4.053788586094 1 0 0
44 1 4 0.1268 4.01810097239437 13.78924263211421 8.881985199592188 1 0 0
46 1 4 0.1268 4.4000091002057635 14.993051034416222 6.729971300026049 1 0 0
5196 9 4 0.1268 5.850474665567971 19.449387823051538 7.506110976852386 0 0 0
5194 9 4 0.1268 7.994177971782424 19.773131866736932 6.404920074254843 0 0 0
5246 9 4 0.1268 9.476594920111218 20.221891339202653 9.38165594511363 0 0 0
5245 9 3 -0.1268 10.154309951605732 20.772245286475936 10.047556585995459 0 0 0
5195 9 3 -0.1268 6.241174564733171 20.466083390158758 7.181970695431761 0 0 0
5193 9 3 -0.1268 7.4493681990244385 20.697630351685035 6.6149100984888225 0 0 0
602 1 4 0.1268 28.249229631542597 4.190638236016849 11.916034390087184 0 0 0
76 1 4 0.1268 7.546213619541504 15.583050611673976 4.848349468927932 1 0 0
30 1 4 0.1268 37.70831919737135 12.506329316579484 4.388578736259321 0 0 0
5879 10 4 0.053 25.13564458294114 5.269040814141885 24.669383618299978 0 1 0
4942 8 4 0.1268 7.7061968640667775 4.047904130306382 19.134535563549978 0 1 0
5116 8 4 0.1268 14.49318457783449 19.494888229636338 8.262213738686587 0 1 0
5109 8 3 -0.1268 14.474872713166192 16.090224603618026 6.500981716780704 0 1 0
5108 8 3 0 14.407913691987314 16.160560587567932 7.933247210737074 0 1 0
5106 8 2 -0.053 14.206444203329701 14.893527022570602 8.725335655506044 0 1 0
5247 9 3 -0.1268 10.947017811449337 21.765972036724982 9.428801501430456 0 0 0
5251 9 4 0.053 14.140761772629228 21.74214655709919 9.021953112905393 0 0 0
5117 8 3 -0.1268 14.41032342203161 17.33961784897044 8.636751091583559 0 1 0
5118 8 4 0.1268 14.246819839472558 17.43559218936977 9.763588479100058 0 1 0
5115 8 3 -0.1268 14.569625237018768 18.50243934294665 7.819652243053428 0 1 0
5113 8 3 -0.1268 14.541265276731925 18.471646555239566 6.420279394423362 0 1 0
5184 9 4 0.1268 46.08047083900307 24.784851764689346 4.909242421407889 -1 0 0
5248 9 4 0.1268 10.813200330636109 21.928619068248693 8.421207591049939 0 0 0
5112 8 4 0.1268 14.52478817862486 17.12434601496036 4.653726023611909 0 1 0
5111 8 3 -0.1268 14.53469879854395 17.261845207600484 5.74855869202677 0 1 0
5114 8 4 0.1268 14.494223147338255 19.319573342119167 5.776669342355729 0 1 0
508 1 4 0.1268 27.70944800172336 7.9524836185110725 23.239780318791524 0 0 0
1739 3 3 -0.1268 14.144353705020796 25.093384552832624 13.822798001858445 1 0 0
3253 6 3 -0.1268 18.176971090860384 16.751910200945094 7.2691615457214525 0 1 1
3254 6 4 0.1268 17.19835058667021 16.259071490399897 7.183579884030577 0 1 1
3255 6 3 -0.1268 19.167349064608604 16.497031533458312 6.28131995073818 0 1 1
5287 9 3 -0.1268 17.382938098417625 20.78029812376952 4.685285531045534 0 0 0
5289 9 3 -0.1268 18.712330094392644 20.79862623705512 5.193063419078101 0 0 0
3251 6 3 -0.1268 18.617522435087583 17.479340810215383 8.355309053264996 0 1 1
3252 6 4 0.1268 18.001077401416698 17.457666858487578 9.26928260652599 0 1 1
3249 6 3 -0.1268 19.89333190749327 17.90696996926414 8.584919838243025 0 1 1
3250 6 4 0.1268 20.12562876811162 18.412851161461784 9.49688124869639 0 1 1
5290 9 4 0.1268 18.932076906794613 19.983974232695196 5.803212634014147 0 0 0
5288 9 4 0.1268 16.678637249350192 19.96467577423972 5.133186887048183 0 0 0
5164 9 4 0.1268 4.573507153765475 19.049295609034047 4.289165036158554 0 0 0
3257 6 3 -0.1268 20.45418215240379 17.043962424145242 6.478631829401692 0 1 1
3248 6 3 0 20.872443842651528 17.555798002185544 7.718328790676384 0 1 1
3258 6 4 0.1268 21.34506989211829 16.782473999175792 5.860337054266958 0 1 1
3279 6 4 0.053 26.163864357586153 19.28210569092422 4.809620015330733 0 1 1
3247 6 4 0.053 22.857720252733365 17.123949947921048 7.366897875633152 0 1 1
3277 6 4 0.053 23.86299022233619 18.572365665659778 4.652356066501222 0 1 1
3276 6 4 0.053 24.30011410426265 17.33855478628695 5.742255718479997 0 1 1
3260 6 4 0.053 21.749496458299557 19.41813490052442 6.7210631446771085 0 1 1
3246 6 2 -0.053 22.37374553565876 17.875152020319916 7.990693128872215 0 1 1
3275 6 1 -0.106 24.480752426740533 18.35134682451624 5.567765519323734 0 1 1
3263 6 4 0.053 24.545193842464094 19.080003455885524 7.725932047794721 0 1 1
3259 6 1 -0.106 22.621491110113695 19.304856880437548 7.351460734211008 0 1 1
3262 6 2 -0.053 24.035131393196824 19.372836277580312 6.760263439253292 0 1 1
3261 6 4 0.053 22.48376569899744 20.019261006386873 8.161077112231423 0 1 1
3264 6 3 0 24.52855672012504 20.76147120458575 6.305936499513711 0 1 1
3278 6 2 -0.053 25.92645542101608 18.255161274064235 5.135861894851618 0 1 1
3266 6 4 0.1268 24.715276930111923 21.170314158034905 8.190782376661389 0 1 1
3290 6 4 0.1268 26.12816307592071 16.16149961338592 7.119523594385131 0 1 1
4351 7 4 0.053 25.058952093505265 25.1069565642658 16.824596611164036 0 0 1
3274 6 4 0.1268 23.556973340876215 20.808985192144345 4.311176776605233 0 1 1
3293 6 4 0.053 25.658532193105767 16.192930678544023 4.051904606332044 0 1 1
3289 6 3 -0.1268 27.018057459403416 16.804150395879287 7.041510570592564 0 1 1
3280 6 3 0 27.098050917482258 17.899024679203265 6.0923044518203895 0 1 1
3287 6 3 -0.1268 27.99266525949692 16.592070302096158 8.000943415394481 0 1 1
3882 7 4 0.1268 21.136866540885848 25.147216039064688 6.085843442062083 0 0 1
3285 6 3 -0.1268 29.10996475241883 17.389191799847296 8.03698295040779 0 1 1
3283 6 3 -0.1268 29.36150307514318 18.371376476536334 7.059517590196583 0 1 1
3281 6 3 -0.1268 28.341869450619296 18.57638678701026 6.100822707033162 0 1 1
3284 6 4 0.1268 30.27813543388663 18.92699899678194 7.006549481794259 0 1 1
3282 6 4 0.1268 28.519528680293263 19.49951416740597 5.499142104394654 0 1 1
3286 6 4 0.1268 29.94397440504109 17.16721909900592 8.669982914580103 0 1 1
2258 4 4 0.1268 19.965645663249134 6.424369576423419 24.28767076658507 1 0 0
3368 6 4 0.1268 30.028171533284276 21.640854653986136 5.640788541993416 0 1 1
282 1 4 0.1268 32.510131073865516 20.545270156463612 5.279803883079784 0 0 0
280 1 4 0.1268 32.979970871427525 19.212101781275507 7.2708772132954 0 0 0
283 1 3 -0.1268 34.30814997600524 19.98329436144066 4.265880919759277 0 0 0
274 1 4 0.053 37.12177037347983 17.592690690624984 8.115616375427978 0 0 0
288 1 4 0.1268 36.56299361914553 17.983270304912086 5.710755650758817 0 0 0
276 1 2 -0.053 35.01663987385497 17.363308222331018 7.64344461925206 0 0 0
278 1 3 0 34.73238401031729 18.287169725428278 6.542622666463842 0 0 0
287 1 3 -0.1268 35.63962760354575 18.293274517203976 5.459973199631957 0 0 0
273 1 1 -0.106 36.13665689693719 18.00263977697382 8.60173702261605 0 0 0
277 1 4 0.053 34.05763708642774 17.181748558881523 8.102618753607073 0 0 0
279 1 3 -0.1268 33.62074122518961 19.050628173758902 6.463996790069295 0 0 0
275 1 4 0.053 36.279472384563455 19.055364962564113 8.490244508189324 0 0 0
281 1 3 -0.1268 33.4147972964866 19.891032111639326 5.353746133870625 0 0 0
285 1 3 -0.1268 35.36536627850164 19.011648190377297 4.302329433562208 0 0 0
172 1 4 0.1268 38.65596727719348 17.917675316571728 6.659811669636989 0 0 0
2609 5 3 -0.1268 38.253866116891814 23.96911899496339 9.654423364363744 0 0 1
164 1 2 -0.053 43.58415482214875 17.48556197202955 4.554420218302523 0 0 0
2260 4 4 0.1268 19.488888763633614 8.87561473901471 24.56265228441418 1 0 0
240 1 4 0.1268 41.80992389929708 16.41481746554028 8.52038710301457 0 0 0
239 1 3 -0.1268 41.74442479767071 15.656028996535936 9.397595447262997 0 0 0
237 1 3 -0.1268 42.05357209173934 14.324817756725004 9.151770449345968 0 0 0
238 1 4 0.1268 42.40032155801468 14.077044506303388 8.161464036207656 0 0 0
171 1 3 -0.1268 39.55889552371827 17.83126038321237 6.219543599212507 0 0 0
173 1 3 -0.1268 40.30754886031657 16.67392150911883 6.525395116997386 0 0 0
181 1 4 0.053 43.58233990472511 17.831679508792206 7.572070592745096 0 0 0
184 1 4 0.1268 42.10063426282852 19.38921000880729 7.504152707507005 0 0 0
180 1 2 -0.053 44.4304691588564 18.28844762843686 7.048660324581552 0 0 0
182 1 3 0 43.99111731402415 19.737922320152368 6.718944526739389 0 0 0
176 1 4 0.1268 42.21095172180355 15.77666377007638 6.130418171036215 0 0 0
175 1 3 -0.1268 41.60680878502046 16.552318126874926 5.890692732805945 0 0 0
166 1 3 0 42.07084560125997 17.59370345351064 5.133949793995818 0 0 0
174 1 4 0.1268 39.742890110032135 15.947123606441421 7.172462323797278 0 0 0