units real
atom_style full
boundary p p p

# --- Force Field Styles ---
pair_style lj/class2/coul/long 9.5 9.5
kspace_style pppm 1e-6
dielectric 1.000000
bond_style class2
angle_style class2
dihedral_style class2
improper_style class2
special_bonds lj/coul 0 0 1
pair_modify mix sixthpower tail yes
neighbor 2.0 bin
neigh_modify delay 0 every 1 check yes
neigh_modify one 4000
# KOKKOS: package loaded via -pk kokkos on the command line

read_data /home/alexzhao/PolyJarvis/data/PS4/lammps/equil/npt_cool/npt_cool_out.data
Reading data file ...
  orthogonal box = (4.0185867 4.0185867 4.0185867) to (46.716098 46.716098 46.716098)
  1 by 1 by 1 MPI processor grid
  reading atoms ...
  6420 atoms
  reading velocities ...
  6420 velocities
  scanning bonds ...
  4 = max bonds/atom
  scanning angles ...
  14 = max angles/atom
  scanning dihedrals ...
  34 = max dihedrals/atom
  scanning impropers ...
  11 = max impropers/atom
  orthogonal box = (4.0185867 4.0185867 4.0185867) to (46.716098 46.716098 46.716098)
  1 by 1 by 1 MPI processor grid
  reading bonds ...
  6810 bonds
  reading angles ...
  12000 angles
  reading dihedrals ...
  19110 dihedrals
  reading impropers ...
  5600 impropers
Finding 1-2 1-3 1-4 neighbors ...
  special bond factors lj:    0        0        1       
  special bond factors coul:  0        0        1       
     4 = max # of 1-2 neighbors
     8 = max # of 1-3 neighbors
    12 = max # of special neighbors
  special bonds CPU = 0.004 seconds
  read_data CPU = 0.412 seconds
include /home/alexzhao/PolyJarvis/data/PS4/lammps/equil/emc_build.params
# LAMMPS parameters created by EMC v9.4.4, build Jul 31 2025 20:33:44

# Variables

variable	seed		index	472913
variable	ntotal		index	6420
variable	fshape		index	1
variable	output		index	emc_build
variable	field		index	pcff/pcff
variable	location1	index	~/emc/field/
variable	nav		index	0.6022141179
variable	temperature	index	300
variable	radius		index	5
variable	nrelax		index	100
variable	weight_nonbond	index	0.0001
variable	weight_bond	index	0.0001
variable	weight_focus	index	1
variable	cutoff		index	9.5
variable	charge_cutoff	index	9.5
variable	kappa		index	4
variable	density1	index	0.53
variable	lprevious	index	0
variable	lphase		index	50.7346850343
variable	f_poly		index	10
variable	chem_repeat	index	*CC(c1ccccc1)*
variable	chem_cap	index	*[H]
variable	lg_repeat	index	16
variable	lg_cap		index	1
variable	norm_poly	index	100
variable	l_poly		index	642
variable	mg_repeat	index	92.14181
variable	mg_cap		index	1.00797
variable	m_poly		index	3687.68834
variable	n_poly		index	10
variable	mtotal		index	41681.3434
variable	nphase1		index	6420
variable	mphase1		index	41681.3434
variable	vphase1		index	130591.498627
variable	lbox		index	50.7346850343
variable	lphase1		index	50.7346850343
variable	lxx		index	50.7346850343
variable	lyy		index	50.7346850343
variable	lzz		index	50.7346850343
variable	lzy		index	0
variable	lzx		index	0
variable	lyx		index	0
variable	vtotal		index	130591.498627
variable	nl_poly		index	10

# Types

variable	type_c		index	1
variable	type_c1		index	2
variable	type_cp		index	3
variable	type_hc		index	4

variable	type_bond_c_c	index	1
variable	type_bond_c_c1	index	2
variable	type_bond_c_cp	index	3
variable	type_bond_c_hc	index	4
variable	type_bond_c1_cp	index	5
variable	type_bond_c1_hc	index	6
variable	type_bond_cp_cp	index	7
variable	type_bond_cp_hc	index	8

variable	type_angle_c_c_c1 index	1
variable	type_angle_c_c_cp index	2
variable	type_angle_c_c_hc index	3
variable	type_angle_c_c1_c index	4
variable	type_angle_c_c1_cp index	5
variable	type_angle_c_c1_hc index	6
variable	type_angle_c_cp_cp index	7
variable	type_angle_c1_c_c1 index	8
variable	type_angle_c1_c_hc index	9
variable	type_angle_c1_cp_cp index	10
variable	type_angle_cp_c_hc index	11
variable	type_angle_cp_c1_hc index	12
variable	type_angle_cp_cp_cp index	13
variable	type_angle_cp_cp_hc index	14
variable	type_angle_hc_c_hc index	15

# Clusters

variable	n0_poly		index	1
variable	n1_poly		index	10
variable	nl_poly		index	10

# Flags

variable	flag_charged	index	1

# Masses

mass		1    12.01115  # c
mass		2    12.01115  # c1
mass		3    12.01115  # cp
mass		4     1.00797  # hc

# Potentials

pair_modify	mix sixthpower tail yes
special_bonds	lj/coul 0 0 1

# Pair Coeffs

pair_coeff	 1  1    0.05400    4.01000  # c,c
pair_coeff	 2  2    0.05400    4.01000  # c1,c1
pair_coeff	 3  3    0.06400    4.01000  # cp,cp
pair_coeff	 4  4    0.02000    2.99500  # hc,hc

# Bond Coeffs

bond_coeff	1    1.53000  299.67000 -501.77000  679.81000  # c,c
bond_coeff	2    1.53000  299.67000 -501.77000  679.81000  # c,c1
bond_coeff	3    1.50100  321.90210 -521.82080  572.16280  # c,cp
bond_coeff	4    1.10100  345.00000 -691.89000  844.60000  # c,hc
bond_coeff	5    1.50100  321.90210 -521.82080  572.16280  # c1,cp
bond_coeff	6    1.10100  345.00000 -691.89000  844.60000  # c1,hc
bond_coeff	7    1.41700  470.83610 -627.61790 1327.63450  # cp,cp
bond_coeff	8    1.09820  372.82510 -803.45260  894.31730  # cp,hc

# Angle Coeffs

angle_coeff	 1  112.67000   39.51600   -7.44300   -9.55830  # c,c,c1
angle_coeff	 2  108.40000   43.95940   -8.39240   -9.33790  # c,c,cp
angle_coeff	 3  110.77000   41.45300  -10.60400    5.12900  # c,c,hc
angle_coeff	 4  112.67000   39.51600   -7.44300   -9.55830  # c,c1,c
angle_coeff	 5  108.40000   43.95940   -8.39240   -9.33790  # c,c1,cp
angle_coeff	 6  110.77000   41.45300  -10.60400    5.12900  # c,c1,hc
angle_coeff	 7  120.05000   44.71480  -22.73520    0.00000  # c,cp,cp
angle_coeff	 8  112.67000   39.51600   -7.44300   -9.55830  # c1,c,c1
angle_coeff	 9  110.77000   41.45300  -10.60400    5.12900  # c1,c,hc
angle_coeff	10  120.05000   44.71480  -22.73520    0.00000  # c1,cp,cp
angle_coeff	11  111.00000   44.32340   -9.44540    0.00000  # cp,c,hc
angle_coeff	12  111.00000   44.32340   -9.44540    0.00000  # cp,c1,hc
angle_coeff	13  118.90000   61.02260  -34.99310    0.00000  # cp,cp,cp
angle_coeff	14  117.94000   35.15580  -12.46820    0.00000  # cp,cp,hc
angle_coeff	15  107.66000   39.64100  -12.92100   -2.43180  # hc,c,hc

# BondBond Coeffs

angle_coeff	 1 bb    0.00000    1.53000    1.53000  # c,c,c1
angle_coeff	 2 bb    0.00000    1.53000    1.50100  # c,c,cp
angle_coeff	 3 bb    3.38720    1.53000    1.10100  # c,c,hc
angle_coeff	 4 bb    0.00000    1.53000    1.53000  # c,c1,c
angle_coeff	 5 bb    0.00000    1.53000    1.50100  # c,c1,cp
angle_coeff	 6 bb    3.38720    1.53000    1.10100  # c,c1,hc
angle_coeff	 7 bb   12.06760    1.50100    1.41700  # c,cp,cp
angle_coeff	 8 bb    0.00000    1.53000    1.53000  # c1,c,c1
angle_coeff	 9 bb    3.38720    1.53000    1.10100  # c1,c,hc
angle_coeff	10 bb   12.06760    1.50100    1.41700  # c1,cp,cp
angle_coeff	11 bb    2.91680    1.50100    1.10100  # cp,c,hc
angle_coeff	12 bb    2.91680    1.50100    1.10100  # cp,c1,hc
angle_coeff	13 bb   68.28560    1.41700    1.41700  # cp,cp,cp
angle_coeff	14 bb    1.07950    1.41700    1.09820  # cp,cp,hc
angle_coeff	15 bb    5.33160    1.10100    1.10100  # hc,c,hc

# BondAngle Coeffs

angle_coeff	 1 ba    8.01600    8.01600    1.53000    1.53000  # c,c,c1
angle_coeff	 2 ba    0.00000    0.00000    1.53000    1.50100  # c,c,cp
angle_coeff	 3 ba   20.75400   11.42100    1.53000    1.10100  # c,c,hc
angle_coeff	 4 ba    8.01600    8.01600    1.53000    1.53000  # c,c1,c
angle_coeff	 5 ba    0.00000    0.00000    1.53000    1.50100  # c,c1,cp
angle_coeff	 6 ba   20.75400   11.42100    1.53000    1.10100  # c,c1,hc
angle_coeff	 7 ba   47.05790   31.07710    1.50100    1.41700  # c,cp,cp
angle_coeff	 8 ba    8.01600    8.01600    1.53000    1.53000  # c1,c,c1
angle_coeff	 9 ba   20.75400   11.42100    1.53000    1.10100  # c1,c,hc
angle_coeff	10 ba   47.05790   31.07710    1.50100    1.41700  # c1,cp,cp
angle_coeff	11 ba   26.46080   11.77170    1.50100    1.10100  # cp,c,hc
angle_coeff	12 ba   26.46080   11.77170    1.50100    1.10100  # cp,c1,hc
angle_coeff	13 ba   28.87080   28.87080    1.41700    1.41700  # cp,cp,cp
angle_coeff	14 ba   20.00330   24.21830    1.41700    1.09820  # cp,cp,hc
angle_coeff	15 ba   18.10300   18.10300    1.10100    1.10100  # hc,c,hc

# Dihedral Coeffs

dihedral_coeff	 1    0.00000    0.00000    0.05140    0.00000   -0.14300    0.00000  # c,c,c1,c
dihedral_coeff	 2    0.00000    0.00000    0.00000    0.00000    0.15800  180.00000  # c,c,c1,cp
dihedral_coeff	 3    0.00000    0.00000    0.03160    0.00000   -0.16810    0.00000  # c,c,c1,hc
dihedral_coeff	 4   -0.28020    0.00000   -0.06780    0.00000   -0.01220    0.00000  # c,c,cp,cp
dihedral_coeff	 5    0.00000    0.00000    0.05140    0.00000   -0.14300    0.00000  # c,c1,c,c1
dihedral_coeff	 6    0.00000    0.00000    0.03160    0.00000   -0.16810    0.00000  # c,c1,c,hc
dihedral_coeff	 7   -0.28020    0.00000   -0.06780    0.00000   -0.01220    0.00000  # c,c1,cp,cp
dihedral_coeff	 8    0.00000    0.00000    4.40720    0.00000    0.00000    0.00000  # c,cp,cp,cp
dihedral_coeff	 9    0.00000    0.00000    1.55900    0.00000    0.00000    0.00000  # c,cp,cp,hc
dihedral_coeff	10    0.00000    0.00000    0.00000    0.00000    0.15800  180.00000  # c1,c,c,cp
dihedral_coeff	11    0.00000    0.00000    0.03160    0.00000   -0.16810    0.00000  # c1,c,c,hc
dihedral_coeff	12    0.00000    0.00000    0.00000    0.00000    0.15800  180.00000  # c1,c,c1,cp
dihedral_coeff	13    0.00000    0.00000    0.03160    0.00000   -0.16810    0.00000  # c1,c,c1,hc
dihedral_coeff	14    0.00000    0.00000    4.40720    0.00000    0.00000    0.00000  # c1,cp,cp,cp
dihedral_coeff	15    0.00000    0.00000    1.55900    0.00000    0.00000    0.00000  # c1,cp,cp,hc
dihedral_coeff	16   -0.02280    0.00000    0.02800    0.00000   -0.18630    0.00000  # cp,c,c,hc
dihedral_coeff	17   -0.02280    0.00000    0.02800    0.00000   -0.18630    0.00000  # cp,c1,c,hc
dihedral_coeff	18   -0.28010    0.00000   -0.06780    0.00000   -0.01220    0.00000  # cp,cp,c,hc
dihedral_coeff	19   -0.28010    0.00000   -0.06780    0.00000   -0.01220    0.00000  # cp,cp,c1,hc
dihedral_coeff	20    8.36670    0.00000    1.19320    0.00000    0.00000    0.00000  # cp,cp,cp,cp
dihedral_coeff	21    0.00000    0.00000    3.96610    0.00000    0.00000    0.00000  # cp,cp,cp,hc
dihedral_coeff	22   -0.14320    0.00000    0.06170    0.00000   -0.10830    0.00000  # hc,c,c,hc
dihedral_coeff	23   -0.14320    0.00000    0.06170    0.00000   -0.10830    0.00000  # hc,c,c1,hc
dihedral_coeff	24    0.00000    0.00000    1.87690    0.00000    0.00000    0.00000  # hc,cp,cp,hc

# MiddleBondTorsion Coeffs

dihedral_coeff	 1 mbt  -17.78700   -7.18770    0.00000    1.53000  # c,c,c1,c
dihedral_coeff	 2 mbt    0.00000    0.00000    0.00000    1.53000  # c,c,c1,cp
dihedral_coeff	 3 mbt  -14.87900   -3.65810   -0.31380    1.53000  # c,c,c1,hc
dihedral_coeff	 4 mbt    0.00000    0.00000    0.00000    1.50100  # c,c,cp,cp
dihedral_coeff	 5 mbt  -17.78700   -7.18770    0.00000    1.53000  # c,c1,c,c1
dihedral_coeff	 6 mbt  -14.87900   -3.65810   -0.31380    1.53000  # c,c1,c,hc
dihedral_coeff	 7 mbt    0.00000    0.00000    0.00000    1.50100  # c,c1,cp,cp
dihedral_coeff	 8 mbt    0.00000    9.17920    0.00000    1.41700  # c,cp,cp,cp
dihedral_coeff	 9 mbt    0.00000    3.94210    0.00000    1.41700  # c,cp,cp,hc
dihedral_coeff	10 mbt    0.00000    0.00000    0.00000    1.53000  # c1,c,c,cp
dihedral_coeff	11 mbt  -14.87900   -3.65810   -0.31380    1.53000  # c1,c,c,hc
dihedral_coeff	12 mbt    0.00000    0.00000    0.00000    1.53000  # c1,c,c1,cp
dihedral_coeff	13 mbt  -14.87900   -3.65810   -0.31380    1.53000  # c1,c,c1,hc
dihedral_coeff	14 mbt    0.00000    9.17920    0.00000    1.41700  # c1,cp,cp,cp
dihedral_coeff	15 mbt    0.00000    3.94210    0.00000    1.41700  # c1,cp,cp,hc
dihedral_coeff	16 mbt    0.00000    0.00000    0.00000    1.53000  # cp,c,c,hc
dihedral_coeff	17 mbt    0.00000    0.00000    0.00000    1.53000  # cp,c1,c,hc
dihedral_coeff	18 mbt   -5.56790    1.40830    0.30100    1.50100  # cp,cp,c,hc
dihedral_coeff	19 mbt   -5.56790    1.40830    0.30100    1.50100  # cp,cp,c1,hc
dihedral_coeff	20 mbt   27.59890   -2.31200    0.00000    1.41700  # cp,cp,cp,cp
dihedral_coeff	21 mbt    0.00000   -1.15210    0.00000    1.41700  # cp,cp,cp,hc
dihedral_coeff	22 mbt  -14.26100   -0.53220   -0.48640    1.53000  # hc,c,c,hc
dihedral_coeff	23 mbt  -14.26100   -0.53220   -0.48640    1.53000  # hc,c,c1,hc
dihedral_coeff	24 mbt    0.00000    4.82280    0.00000    1.41700  # hc,cp,cp,hc

# EndBondTorsion Coeffs

dihedral_coeff	 1 ebt   -0.07320    0.00000    0.00000   -0.07320    0.00000    0.00000    1.53000    1.53000  # c,c,c1,c
dihedral_coeff	 2 ebt    0.00000    0.00000    0.00000    0.00000    0.00000    0.00000    1.53000    1.50100  # c,c,c1,cp
dihedral_coeff	 3 ebt    0.24860    0.24220   -0.09250    0.08140    0.05910    0.22190    1.53000    1.10100  # c,c,c1,hc
dihedral_coeff	 4 ebt    0.00000    0.00000    0.00000    0.00000    0.00000    0.00000    1.53000    1.41700  # c,c,cp,cp
dihedral_coeff	 5 ebt   -0.07320    0.00000    0.00000   -0.07320    0.00000    0.00000    1.53000    1.53000  # c,c1,c,c1
dihedral_coeff	 6 ebt    0.24860    0.24220   -0.09250    0.08140    0.05910    0.22190    1.53000    1.10100  # c,c1,c,hc
dihedral_coeff	 7 ebt    0.00000    0.00000    0.00000    0.00000    0.00000    0.00000    1.53000    1.41700  # c,c1,cp,cp
dihedral_coeff	 8 ebt    0.00000    0.24210    0.00000    0.00000   -0.69180    0.00000    1.50100    1.41700  # c,cp,cp,cp
dihedral_coeff	 9 ebt    0.00000   -1.79700    0.00000    0.00000   -0.48790    0.00000    1.50100    1.09820  # c,cp,cp,hc
dihedral_coeff	10 ebt    0.00000    0.00000    0.00000    0.00000    0.00000    0.00000    1.53000    1.50100  # c1,c,c,cp
dihedral_coeff	11 ebt    0.24860    0.24220   -0.09250    0.08140    0.05910    0.22190    1.53000    1.10100  # c1,c,c,hc
dihedral_coeff	12 ebt    0.00000    0.00000    0.00000    0.00000    0.00000    0.00000    1.53000    1.50100  # c1,c,c1,cp
dihedral_coeff	13 ebt    0.24860    0.24220   -0.09250    0.08140    0.05910    0.22190    1.53000    1.10100  # c1,c,c1,hc
dihedral_coeff	14 ebt    0.00000    0.24210    0.00000    0.00000   -0.69180    0.00000    1.50100    1.41700  # c1,cp,cp,cp
dihedral_coeff	15 ebt    0.00000   -1.79700    0.00000    0.00000   -0.48790    0.00000    1.50100    1.09820  # c1,cp,cp,hc
dihedral_coeff	16 ebt    0.00000    0.00000    0.00000    0.00000    0.00000    0.00000    1.50100    1.10100  # cp,c,c,hc
dihedral_coeff	17 ebt    0.00000    0.00000    0.00000    0.00000    0.00000    0.00000    1.50100    1.10100  # cp,c1,c,hc
dihedral_coeff	18 ebt   -0.58350    1.12200    0.39780    1.39970    0.77560    0.00000    1.41700    1.10100  # cp,cp,c,hc
dihedral_coeff	19 ebt   -0.58350    1.12200    0.39780    1.39970    0.77560    0.00000    1.41700    1.10100  # cp,cp,c1,hc
dihedral_coeff	20 ebt   -0.11850    6.32040    0.00000   -0.11850    6.32040    0.00000    1.41700    1.41700  # cp,cp,cp,cp
dihedral_coeff	21 ebt    0.00000   -6.89580    0.00000    0.00000   -0.46690    0.00000    1.41700    1.09820  # cp,cp,cp,hc
dihedral_coeff	22 ebt    0.21300    0.31200    0.07770    0.21300    0.31200    0.07770    1.10100    1.10100  # hc,c,c,hc
dihedral_coeff	23 ebt    0.21300    0.31200    0.07770    0.21300    0.31200    0.07770    1.10100    1.10100  # hc,c,c1,hc
dihedral_coeff	24 ebt    0.00000   -0.68900    0.00000    0.00000   -0.68900    0.00000    1.09820    1.09820  # hc,cp,cp,hc

# AngleTorsion Coeffs

dihedral_coeff	 1 at    0.38860   -0.31390    0.13890    0.38860   -0.31390    0.13890  112.67000  112.67000  # c,c,c1,c
dihedral_coeff	 2 at    0.00000    0.00000    0.00000    0.00000    0.00000    0.00000  112.67000  108.40000  # c,c,c1,cp
dihedral_coeff	 3 at   -0.24540    0.00000   -0.11360    0.31130    0.45160   -0.19880  112.67000  110.77000  # c,c,c1,hc
dihedral_coeff	 4 at    0.00000    0.00000    0.00000    0.00000    0.00000    0.00000  108.40000  120.05000  # c,c,cp,cp
dihedral_coeff	 5 at    0.38860   -0.31390    0.13890    0.38860   -0.31390    0.13890  112.67000  112.67000  # c,c1,c,c1
dihedral_coeff	 6 at   -0.24540    0.00000   -0.11360    0.31130    0.45160   -0.19880  112.67000  110.77000  # c,c1,c,hc
dihedral_coeff	 7 at    0.00000    0.00000    0.00000    0.00000    0.00000    0.00000  108.40000  120.05000  # c,c1,cp,cp
dihedral_coeff	 8 at    0.00000   -4.46830    0.00000    0.00000    3.89870    0.00000  120.05000  118.90000  # c,cp,cp,cp
dihedral_coeff	 9 at    0.00000   -0.12420    0.00000    0.00000    3.46010    0.00000  120.05000  117.94000  # c,cp,cp,hc
dihedral_coeff	10 at    0.00000    0.00000    0.00000    0.00000    0.00000    0.00000  112.67000  108.40000  # c1,c,c,cp
dihedral_coeff	11 at   -0.24540    0.00000   -0.11360    0.31130    0.45160   -0.19880  112.67000  110.77000  # c1,c,c,hc
dihedral_coeff	12 at    0.00000    0.00000    0.00000    0.00000    0.00000    0.00000  112.67000  108.40000  # c1,c,c1,cp
dihedral_coeff	13 at   -0.24540    0.00000   -0.11360    0.31130    0.45160   -0.19880  112.67000  110.77000  # c1,c,c1,hc
dihedral_coeff	14 at    0.00000   -4.46830    0.00000    0.00000    3.89870    0.00000  120.05000  118.90000  # c1,cp,cp,cp
dihedral_coeff	15 at    0.00000   -0.12420    0.00000    0.00000    3.46010    0.00000  120.05000  117.94000  # c1,cp,cp,hc
dihedral_coeff	16 at    0.00000    0.00000    0.00000    0.00000    0.00000    0.00000  108.40000  110.77000  # cp,c,c,hc
dihedral_coeff	17 at    0.00000    0.00000    0.00000    0.00000    0.00000    0.00000  108.40000  110.77000  # cp,c1,c,hc
dihedral_coeff	18 at    0.22510    0.65480    0.12370    4.62660    0.16320    0.04610  120.05000  111.00000  # cp,cp,c,hc
dihedral_coeff	19 at    0.22510    0.65480    0.12370    4.62660    0.16320    0.04610  120.05000  111.00000  # cp,cp,c1,hc
dihedral_coeff	20 at    1.97670    1.02390    0.00000    1.97670    1.02390    0.00000  118.90000  118.90000  # cp,cp,cp,cp
dihedral_coeff	21 at    0.00000    2.50140    0.00000    0.00000    2.71470    0.00000  118.90000  117.94000  # cp,cp,cp,hc
dihedral_coeff	22 at   -0.80850    0.55690   -0.24660   -0.80850    0.55690   -0.24660  110.77000  110.77000  # hc,c,c,hc
dihedral_coeff	23 at   -0.80850    0.55690   -0.24660   -0.80850    0.55690   -0.24660  110.77000  110.77000  # hc,c,c1,hc
dihedral_coeff	24 at    0.00000    2.45010    0.00000    0.00000    2.45010    0.00000  117.94000  117.94000  # hc,cp,cp,hc

# AngleAngleTorsion Coeffs

dihedral_coeff	 1 aat  -22.04500  112.67000  112.67000  # c,c,c1,c
dihedral_coeff	 2 aat    0.00000  112.67000  108.40000  # c,c,c1,cp
dihedral_coeff	 3 aat  -16.16400  112.67000  110.77000  # c,c,c1,hc
dihedral_coeff	 4 aat    0.00000  108.40000  120.05000  # c,c,cp,cp
dihedral_coeff	 5 aat  -22.04500  112.67000  112.67000  # c,c1,c,c1
dihedral_coeff	 6 aat  -16.16400  112.67000  110.77000  # c,c1,c,hc
dihedral_coeff	 7 aat    0.00000  108.40000  120.05000  # c,c1,cp,cp
dihedral_coeff	 8 aat  -14.40970  120.05000  118.90000  # c,cp,cp,cp
dihedral_coeff	 9 aat    4.44440  120.05000  117.94000  # c,cp,cp,hc
dihedral_coeff	10 aat    0.00000  112.67000  108.40000  # c1,c,c,cp
dihedral_coeff	11 aat  -16.16400  112.67000  110.77000  # c1,c,c,hc
dihedral_coeff	12 aat    0.00000  112.67000  108.40000  # c1,c,c1,cp
dihedral_coeff	13 aat  -16.16400  112.67000  110.77000  # c1,c,c1,hc
dihedral_coeff	14 aat  -14.40970  120.05000  118.90000  # c1,cp,cp,cp
dihedral_coeff	15 aat    4.44440  120.05000  117.94000  # c1,cp,cp,hc
dihedral_coeff	16 aat    0.00000  108.40000  110.77000  # cp,c,c,hc
dihedral_coeff	17 aat    0.00000  108.40000  110.77000  # cp,c1,c,hc
dihedral_coeff	18 aat   -5.88880  120.05000  111.00000  # cp,cp,c,hc
dihedral_coeff	19 aat   -5.88880  120.05000  111.00000  # cp,cp,c1,hc
dihedral_coeff	20 aat    0.00000  118.90000  118.90000  # cp,cp,cp,cp
dihedral_coeff	21 aat   -4.81410  118.90000  117.94000  # cp,cp,cp,hc
dihedral_coeff	22 aat  -12.56400  110.77000  110.77000  # hc,c,c,hc
dihedral_coeff	23 aat  -12.56400  110.77000  110.77000  # hc,c,c1,hc
dihedral_coeff	24 aat    0.35980  117.94000  117.94000  # hc,cp,cp,hc

# BondBond13 Coeffs

dihedral_coeff	 1 bb13    0.00000    1.53000    1.53000  # c,c,c1,c
dihedral_coeff	 2 bb13    0.00000    1.53000    1.50100  # c,c,c1,cp
dihedral_coeff	 3 bb13    0.00000    1.53000    1.10100  # c,c,c1,hc
dihedral_coeff	 4 bb13    0.00000    1.53000    1.41700  # c,c,cp,cp
dihedral_coeff	 5 bb13    0.00000    1.53000    1.53000  # c,c1,c,c1
dihedral_coeff	 6 bb13    0.00000    1.53000    1.10100  # c,c1,c,hc
dihedral_coeff	 7 bb13    0.00000    1.53000    1.41700  # c,c1,cp,cp
dihedral_coeff	 8 bb13    2.50850    1.50100    1.41700  # c,cp,cp,cp
dihedral_coeff	 9 bb13    0.87430    1.50100    1.09820  # c,cp,cp,hc
dihedral_coeff	10 bb13    0.00000    1.53000    1.50100  # c1,c,c,cp
dihedral_coeff	11 bb13    0.00000    1.53000    1.10100  # c1,c,c,hc
dihedral_coeff	12 bb13    0.00000    1.53000    1.50100  # c1,c,c1,cp
dihedral_coeff	13 bb13    0.00000    1.53000    1.10100  # c1,c,c1,hc
dihedral_coeff	14 bb13    2.50850    1.50100    1.41700  # c1,cp,cp,cp
dihedral_coeff	15 bb13    0.87430    1.50100    1.09820  # c1,cp,cp,hc
dihedral_coeff	16 bb13    0.00000    1.50100    1.10100  # cp,c,c,hc
dihedral_coeff	17 bb13    0.00000    1.50100    1.10100  # cp,c1,c,hc
dihedral_coeff	18 bb13   -3.48260    1.41700    1.10100  # cp,cp,c,hc
dihedral_coeff	19 bb13   -3.48260    1.41700    1.10100  # cp,cp,c1,hc
dihedral_coeff	20 bb13   53.00000    1.41700    1.41700  # cp,cp,cp,cp
dihedral_coeff	21 bb13   -6.27410    1.41700    1.09820  # cp,cp,cp,hc
dihedral_coeff	22 bb13    0.00000    1.10100    1.10100  # hc,c,c,hc
dihedral_coeff	23 bb13    0.00000    1.10100    1.10100  # hc,c,c1,hc
dihedral_coeff	24 bb13   -1.70770    1.09820    1.09820  # hc,cp,cp,hc

# Improper Coeffs

improper_coeff	 1    0.00000    0.00000  # c,c,cp,hc
improper_coeff	 2    0.00000    0.00000  # c,c,hc,c1
improper_coeff	 3    0.00000    0.00000  # c,c,hc,cp
improper_coeff	 4    0.00000    0.00000  # c,c,hc,hc
improper_coeff	 5    0.00000    0.00000  # c,c1,c1,hc
improper_coeff	 6    0.00000    0.00000  # c,c1,hc,hc
improper_coeff	 7    0.00000    0.00000  # c,cp,hc,hc
improper_coeff	 8    0.00000    0.00000  # c,hc,hc,hc
improper_coeff	 9    0.00000    0.00000  # c1,c,c,cp
improper_coeff	10    0.00000    0.00000  # c1,c,c,hc
improper_coeff	11    0.00000    0.00000  # c1,c,cp,hc
improper_coeff	12    7.81530    0.00000  # cp,c,cp,cp
improper_coeff	13    7.81530    0.00000  # cp,c1,cp,cp
improper_coeff	14    4.89120    0.00000  # cp,cp,cp,hc

# AngleAngle Coeffs

improper_coeff	 1 aa    2.04030   -1.82020    1.08270  108.40000  110.77000  111.00000  # c,c,cp,hc
improper_coeff	 2 aa    0.11840   -1.31990   -1.31990  110.77000  112.67000  110.77000  # c,c,hc,c1
improper_coeff	 3 aa    1.08270   -1.82020    2.04030  110.77000  108.40000  111.00000  # c,c,hc,cp
improper_coeff	 4 aa    0.27380   -0.48250    0.27380  110.77000  110.77000  107.66000  # c,c,hc,hc
improper_coeff	 5 aa   -1.31990   -1.31990    0.11840  112.67000  110.77000  110.77000  # c,c1,c1,hc
improper_coeff	 6 aa    0.27380   -0.48250    0.27380  110.77000  110.77000  107.66000  # c,c1,hc,hc
improper_coeff	 7 aa    2.37940    3.01180    2.37940  111.00000  111.00000  107.66000  # c,cp,hc,hc
improper_coeff	 8 aa   -0.31570   -0.31570   -0.31570  107.66000  107.66000  107.66000  # c,hc,hc,hc
improper_coeff	 9 aa    0.00000    0.00000    0.00000  112.67000  108.40000  108.40000  # c1,c,c,cp
improper_coeff	10 aa   -1.31990   -1.31990    0.11840  112.67000  110.77000  110.77000  # c1,c,c,hc
improper_coeff	11 aa    2.04030   -1.82020    1.08270  108.40000  110.77000  111.00000  # c1,c,cp,hc
improper_coeff	12 aa    0.00000    0.00000    0.00000  120.05000  120.05000  118.90000  # cp,c,cp,cp
improper_coeff	13 aa    0.00000    0.00000    0.00000  120.05000  120.05000  118.90000  # cp,c1,cp,cp
improper_coeff	14 aa    0.00000    0.00000    0.00000  118.90000  117.94000  117.94000  # cp,cp,cp,hc


# --- Thermo Output ---
thermo_style custom step time temp press enthalpy etotal ke pe ebond eangle edihed eimp evdwl ecoul elong etail vol lx ly lz density pxx pyy pzz
thermo_modify flush yes
thermo 1000

# --- Trajectory ---
dump dump_nvt all custom 1000 nvt_production.dump id type mol x y z ix iy iz vx vy vz

# --- Restart Checkpointing ---
# No restart checkpointing

# --- Initial Velocities (optional) ---
# Velocities read from data file

# --- SHAKE Constraints ---
# Constrains H-X bonds to allow 2fs timestep
# SHAKE disabled

# --- NVT Thermostat (Nose-Hoover) ---
# T_damp = 100.0 fs  (coupling timescale for heat exchange)
# Ramp: 550.0 K -> 550.0 K over 2000000 steps
timestep 1.0
fix nvt_fix all nvt temp 550.0 550.0 100.0

run 2000000
PPPM Kokkos initialization ...
  using 12-bit tables for long-range coulomb
  G vector (1/distance) = 0.29977411
  grid = 30 30 30
  stencil order = 5
  estimated absolute RMS force accuracy = 0.00030114692
  estimated relative force accuracy = 9.06895e-07
  using double precision cuFFT
  3d grid and FFT values/proc = 50653 27000
Generated 6 of 6 mixed pair_coeff terms from sixthpower/sixthpower mixing rule
Neighbor list info ...
  update: every = 1 steps, delay = 0 steps, check = yes
  max neighbors/atom: 4000, page size: 100000
  master list distance cutoff = 11.5
  ghost atom cutoff = 11.5
  binsize = 11.5, bins = 4 4 4
  1 neighbor lists, perpetual/occasional/extra = 1 0 0
  (1) pair lj/class2/coul/long/kk, perpetual
      attributes: full, newton off, kokkos_device
      pair build: full/bin/kk/device
      stencil: full/bin/3d
      bin: kk/device
Per MPI rank memory allocation (min/avg/max) = 40.75 | 40.75 | 40.75 Mbytes
   Step          Time           Temp          Press         Enthalpy        TotEng         KinEng         PotEng         E_bond        E_angle        E_dihed        E_impro         E_vdwl         E_coul         E_long         E_tail         Volume           Lx             Ly             Lz          Density          Pxx            Pyy            Pzz      
         0   0              548.20274     -189.43087      19256.269      19471.317      10489.212      8982.1044      4645.2841      4150.0671     -1004.2811      363.24617      896.75755      3834.0428     -3903.0122     -369.50121      77840.873      42.697512      42.697512      42.697512      0.88916645    -172.54987     -643.15474      247.412      
      1000   1000           542.15212      807.16553      20296.366      19380.048      10373.441      9006.6075      4702.0476      4147.5516     -997.33816      372.76892      858.67765      3826.4724     -3903.5725     -369.50121      77840.873      42.697512      42.697512      42.697512      0.88916645     354.40301      599.72673      1467.3668    
      2000   2000           556.10283      1847.0259      21657.689      19560.891      10640.371      8920.5196      4641.883       4165.3979     -1068.5459      360.70723      910.04282      3817.8787     -3906.8442     -369.50121      77840.873      42.697512      42.697512      42.697512      0.88916645     3219.1634      951.25988      1370.6544    
      3000   3000           550.24942      725.79108      20537.32       19713.381      10528.373      9185.0078      4727.7706      4228.1729     -988.59109      377.25719      912.25832      3829.9323     -3901.7924     -369.50121      77840.873      42.697512      42.697512      42.697512      0.88916645    -758.26098      4443.4324     -1507.7982    
      4000   4000           543.57551     -1345.0612      18031.072      19558.025      10400.676      9157.3488      4855.2806      4200.9544     -1017.9655      372.41662      821.52198      3828.3752     -3903.2345     -369.50121      77840.873      42.697512      42.697512      42.697512      0.88916645    -410.70158     -1583.0639     -2041.4182    
      5000   5000           552.26477      1596.3214      21663.01       19850.82       10566.935      9283.885       4877.5701      4195.5337     -995.58602      389.33038      890.36562      3831.3867     -3904.7155     -369.50121      77840.873      42.697512      42.697512      42.697512      0.88916645     262.05195      1609.4132      2917.4991    
      6000   6000           547.17208      1136.9122      21014.969      19724.313      10469.492      9254.821       4835.7715      4342.3672     -1065.2136      372.44468      852.48055      3822.3425     -3905.3718     -369.50121      77840.873      42.697512      42.697512      42.697512      0.88916645     134.44155      1324.2828      1952.0121    
      7000   7000           543.69871     -62.016343      19314.231      19384.634      10403.033      8981.6004      4731.2612      4263.2642     -1159.8567      362.19068      857.24468      3831.7634     -3904.267      -369.50121      77840.873      42.697512      42.697512      42.697512      0.88916645    -210.69676     -189.52655      214.17428    
      8000   8000           550.31184     -1510.1803      17944.62       19659.021      10529.568      9129.4536      4816.2898      4211.6603     -1010.8695      358.78086      833.26798      3829.6138     -3909.2897     -369.50121      77840.873      42.697512      42.697512      42.697512      0.88916645    -1222.2183     -1912.9985     -1395.324     
      9000   9000           552.5193      -743.81108      18847.028      19691.424      10571.805      9119.6198      4798.4357      4229.6213     -1055.3144      367.87516      860.50847      3825.8353     -3907.3417     -369.50121      77840.873      42.697512      42.697512      42.697512      0.88916645    -1973.3617     -19.33285      -238.73869    
     10000   10000          547.4225       259.57179      19911.312      19616.638      10474.283      9142.3546      4688.6899      4257.8871     -1021.3559      362.32457      915.85503      3839.4364     -3900.4826     -369.50121      77840.873      42.697512      42.697512      42.697512      0.88916645    -464.75434      163.48204      1079.9877    
     11000   11000          560.74909     -1411.7329      18131.553      19734.193      10729.272      9004.9214      4670.7037      4239.8669     -984.82563      369.33256      789.23967      3828.0325     -3907.4283     -369.50121      77840.873      42.697512      42.697512      42.697512      0.88916645    -1046.1106      218.02729     -3407.1154    
     12000   12000          549.34681      52.000386      19340.572      19281.54       10511.103      8770.437       4777.736       4011.9883     -1129.1257      353.92876      836.17959      3824.5116     -3904.7815     -369.50121      77840.873      42.697512      42.697512      42.697512      0.88916645    -943.54939      1276.9699     -177.41933    
     13000   13000          547.59521      1944.8543      21700.376      19492.521      10477.588      9014.9328      4679.6234      4235.8611     -1141.6823      380.11755      944.32623      3828.0395     -3911.3527     -369.50121      77840.873      42.697512      42.697512      42.697512      0.88916645     1264.6088      3392.0121      1177.942     
     14000   14000          547.35062      1185.668       21108.391      19762.386      10472.908      9289.4781      4754.8986      4394.2633     -1044.4212      378.61659      882.50178      3828.656      -3905.0369     -369.50121      77840.873      42.697512      42.697512      42.697512      0.88916645     2750.2996     -334.72684      1141.4312    
     15000   15000          542.65787     -2121.714       17089.36       19497.992      10383.118      9114.8739      4681.7458      4292.3042     -964.08007      378.72841      798.66245      3831.5086     -3903.9955     -369.50121      77840.873      42.697512      42.697512      42.697512      0.88916645    -3753.9451     -119.90512     -2491.2918    
     16000   16000          545.36084      637.93565      20113.918      19389.715      10434.836      8954.8789      4755.0382      4176.8508     -1120.2043      368.76737      865.0148       3820.7937     -3911.3816     -369.50121      77840.873      42.697512      42.697512      42.697512      0.88916645     129.666        1810.9983     -26.857381    
     17000   17000          548.55489      361.36287      19984.034      19573.804      10495.95       9077.8534      4785.1267      4268.5249     -1113.0701      363.9312       858.23077      3824.8765     -3909.7666     -369.50121      77840.873      42.697512      42.697512      42.697512      0.88916645    -231.25488      849.38282      465.96068    
     18000   18000          557.57676     -203.25537      19376.504      19607.246      10668.573      8938.6726      4653.1979      4236.1767     -1082.7523      368.0491       837.69309      3829.1438     -3902.8357     -369.50121      77840.873      42.697512      42.697512      42.697512      0.88916645    -414.49994     -161.98711     -33.279073    
     19000   19000          545.44358      338.30315      19905.462      19521.41       10436.419      9084.9912      4639.5367      4262.5843     -1009.4418      376.77166      911.71321      3808.1679     -3904.3408     -369.50121      77840.873      42.697512      42.697512      42.697512      0.88916645     1597.8741     -1621.6275      1038.6628    
     20000   20000          545.69915     -49.873948      19111.666      19168.285      10441.309      8726.9758      4583.2704      4019.071      -1028.4252      371.93299      855.92394      3825.9811     -3900.7783     -369.50121      77840.873      42.697512      42.697512      42.697512      0.88916645     1224.4426     -886.77893     -487.28552    
     21000   21000          550.52852     -837.41657      18669.999      19620.658      10533.713      9086.9451      4717.2742      4257.2041     -1046.7989      369.31534      868.91148      3828.8666     -3907.8278     -369.50121      77840.873      42.697512      42.697512      42.697512      0.88916645    -163.09218     -480.43345     -1868.7241    
     22000   22000          541.7811      -111.00932      19283.945      19409.966      10366.342      9043.6244      4692.9941      4257.3874     -1057.2895      366.11608      871.94836      3817.9664     -3905.4984     -369.50121      77840.873      42.697512      42.697512      42.697512      0.88916645    -748.44845      1223.127      -807.70649    
     23000   23000          558.54044     -748.7522       18974.229      19824.235      10687.012      9137.2226      4765.7725      4290.3018     -1017.9183      369.34784      816.65026      3820.0803     -3907.0118     -369.50121      77840.873      42.697512      42.697512      42.697512      0.88916645    -1468.4715     -883.78398      105.99889    
     24000   24000          551.38957     -194.82533      19412.372      19633.543      10550.189      9083.3548      4714.7956      4238.8494     -1008.5124      378.06203      848.95251      3821.4471     -3910.2395     -369.50121      77840.873      42.697512      42.697512      42.697512      0.88916645    -850.42994      412.27875     -146.32481    
     25000   25000          547.57965      1260.9433      20898.186      19466.726      10477.29       8989.436       4819.4478      4162.9129     -1119.2172      365.12086      842.50808      3826.6568     -3907.9933     -369.50121      77840.873      42.697512      42.697512      42.697512      0.88916645     2596.2022      1089.0477      97.580073    
     26000   26000          552.65078     -456.8936       19271.568      19790.247      10574.32       9215.9268      4725.8124      4258.4495     -960.20149      376.5457       905.54275      3816.8197     -3907.0417     -369.50121      77840.873      42.697512      42.697512      42.697512      0.88916645    -120.79774      72.865182     -1322.7482    
     27000   27000          543.15217     -525.52179      19057.796      19654.383      10392.576      9261.8075      4900.5295      4288.2369     -1022.2709      366.44189      830.51234      3809.6929     -3911.3351     -369.50121      77840.873      42.697512      42.697512      42.697512      0.88916645     853.24675     -1995.2419     -434.57022    
     28000   28000          551.41944      314.68835      19907.095      19549.852      10550.76       8999.0915      4740.6005      4195.0689     -1014.421       362.15268      797.95475      3828.0239     -3910.2882     -369.50121      77840.873      42.697512      42.697512      42.697512      0.88916645     1371.591      -634.23616      206.71017    
     29000   29000          558.83625     -771.66829      18815.16       19691.181      10692.672      8998.5087      4791.4269      4140.7068     -1072.9164      369.52515      841.30885      3832.1818     -3903.7245     -369.50121      77840.873      42.697512      42.697512      42.697512      0.88916645    -1372.288      -852.43797     -90.27893     
     30000   30000          545.65382      503.45485      20124.814      19553.277      10440.442      9112.8351      4633.9164      4297.4517     -966.74471      371.69089      860.88026      3823.6261     -3907.9855     -369.50121      77840.873      42.697512      42.697512      42.697512      0.88916645    -1078.152       2535.9295      52.587107    
     31000   31000          551.55057     -307.6721       19361.345      19710.623      10553.269      9157.3542      4846.4348      4326.4735     -1112.3694      362.82446      825.62656      3813.4189     -3905.0546     -369.50121      77840.873      42.697512      42.697512      42.697512      0.88916645    -173.56899     -1443.7124      694.2651     
     32000   32000          549.4184      -1532.741       17875.238      19615.251      10512.473      9102.7782      4634.6689      4297.4625     -976.67383      368.69091      855.30424      3830.1437     -3906.8183     -369.50121      77840.873      42.697512      42.697512      42.697512      0.88916645    -1262.2839     -4431.5909      1095.6518    
     33000   33000          547.01594      2012.9547      21760.667      19475.502      10466.504      9008.9971      4728.5817      4179.7789     -1103.0447      371.62468      916.25539      3821.8362     -3906.0351     -369.50121      77840.873      42.697512      42.697512      42.697512      0.88916645     1130.3372      3396.145       1512.3818    
     34000   34000          547.17817     -1555.1285      17700.319      19465.747      10469.608      8996.1383      4788.5771      4205.7002     -1100.5897      355.21349      823.77175      3828.1182     -3904.6528     -369.50121      77840.873      42.697512      42.697512      42.697512      0.88916645    -2909.5612     -159.75154     -1596.0727    
     35000   35000          549.60338      1286.8959      21024.72       19563.798      10516.012      9047.7861      4693.3272      4266.4058     -1107.0198      371.2007       892.37449      3831.2814     -3899.7836     -369.50121      77840.873      42.697512      42.697512      42.697512      0.88916645     1609.0906      1792.2514      459.34579    
     36000   36000          553.87918      2152.5867      22024.708      19581.028      10597.824      8983.2039      4720.0386      4259.3709     -1120.4896      361.49864      846.33573      3823.2707     -3906.821      -369.50121      77840.873      42.697512      42.697512      42.697512      0.88916645     3874.8667      1896.7373      686.15623    
     37000   37000          541.83452     -740.51367      18503.936      19344.588      10367.364      8977.2245      4733.1639      4101.0102     -994.51859      371.90643      840.18768      3827.9783     -3902.5034     -369.50121      77840.873      42.697512      42.697512      42.697512      0.88916645    -1109.1702      1287.4588     -2399.8296    
     38000   38000          552.54434      1.3759954      19386.934      19385.371      10572.284      8813.0876      4693.2039      4161.773      -1145.6219      357.31852      819.90825      3828.6319     -3902.1262     -369.50121      77840.873      42.697512      42.697512      42.697512      0.88916645    -527.83359     -751.67313      1283.6347    
     39000   39000          555.87436     -152.78947      19550.824      19724.275      10636          9088.2754      4674.3931      4252.4705     -972.59858      379.28537      829.6762       3830.3419     -3905.2931     -369.50121      77840.873      42.697512      42.697512      42.697512      0.88916645    -106.38522     -220.96232     -131.02085    
     40000   40000          557.20025      668.73259      20444.663      19685.498      10661.369      9024.1288      4714.6506      4258.5208     -1089.6846      373.84659      839.56324      3830.3946     -3903.1625     -369.50121      77840.873      42.697512      42.697512      42.697512      0.88916645    -869.58276      312.19832      2563.5822    
     41000   41000          553.36674     -937.1684       18508.562      19572.463      10588.019      8984.4435      4748.7255      4177.6375     -1066.1486      357.92649      836.02024      3832.1704     -3901.888      -369.50121      77840.873      42.697512      42.697512      42.697512      0.88916645    -1490.0789     -1109.0206     -212.40572    
     42000   42000          544.42821     -1022.5177      18150.548      19311.34       10416.991      8894.3485      4632.5822      4214.9134     -1029.4493      367.25505      778.51836      3833.6006     -3903.0718     -369.50121      77840.873      42.697512      42.697512      42.697512      0.88916645    -1416.2139     -2148.6859      497.34682    
     43000   43000          552.98017     -139.06602      19339.084      19496.956      10580.623      8916.3326      4560.3189      4152.3161     -924.86687      376.58465      827.46438      3827.3235     -3902.8081     -369.50121      77840.873      42.697512      42.697512      42.697512      0.88916645     499.72039     -1521.3885      604.47005    
     44000   44000          549.70929      2149.7871      21921.637      19481.136      10518.038      8963.0974      4694.1193      4183.5404     -1105.0962      381.24493      881.35138      3835.1909     -3907.2533     -369.50121      77840.873      42.697512      42.697512      42.697512      0.88916645    -30.604482      3853.8191      2626.1468    
     45000   45000          549.55089     -425.76175      19116.497      19599.834      10515.008      9084.8265      4806.0176      4192.9527     -1022.24        373.68315      801.61566      3834.5235     -3901.7261     -369.50121      77840.873      42.697512      42.697512      42.697512      0.88916645    -409.25964     -97.684367     -770.34123    
     46000   46000          546.18737      1136.1184      20852.732      19562.977      10450.651      9112.3264      4727.695       4288.8405     -1071.1738      376.74778      878.05913      3815.4907     -3903.3328     -369.50121      77840.873      42.697512      42.697512      42.697512      0.88916645     1088.9172      2262.0132      57.424829    
     47000   47000          547.56415     -1234.1604      18025.38       19426.435      10476.994      8949.4412      4715.4049      4222.9108     -1082.1018      354.17408      816.2297       3822.2412     -3899.4177     -369.50121      77840.873      42.697512      42.697512      42.697512      0.88916645    -1290.5492     -329.04286     -2082.8891    
     48000   48000          549.5155       521.05733      20101.89       19510.37       10514.331      8996.0399      4751.8795      4219.2689     -1079.6004      362.21516      823.53634      3825.7378     -3906.9974     -369.50121      77840.873      42.697512      42.697512      42.697512      0.88916645    -492.05044      231.97782      1823.2446    
     49000   49000          552.35017     -960.2418       18512.991      19603.086      10568.569      9034.5171      4652.8527      4235.3032     -966.83499      360.95407      811.76074      3837.9999     -3897.5185     -369.50121      77840.873      42.697512      42.697512      42.697512      0.88916645     1436.3931     -3503.3666     -813.75191    
     50000   50000          538.12504     -1426.2461      17736.285      19355.401      10296.388      9059.0136      4732.1374      4200.0263     -935.67803      389.43942      738.29079      3834.2981     -3899.5003     -369.50121      77840.873      42.697512      42.697512      42.697512      0.88916645    -578.59853     -3231.7428     -468.39703    
     51000   51000          554.54439     -1376.608       18018.956      19581.722      10610.552      8971.1698      4636.8538      4222.5511     -1028.9095      375.86973      826.56245      3835.7839     -3897.5417     -369.50121      77840.873      42.697512      42.697512      42.697512      0.88916645    -3217.6807     -215.47022     -696.67322    
     52000   52000          558.0133      -1807.5516      17490.976      19542.961      10676.926      8866.0357      4773.5286      4068.1162     -1040.7213      351.43133      809.28635      3808.8555     -3904.4609     -369.50121      77840.873      42.697512      42.697512      42.697512      0.88916645    -2515.6372     -811.69739     -2095.3203    
     53000   53000          542.33073      1790.1244      21289.551      19257.349      10376.858      8880.4909      4605.8616      4243.5807     -1154.95        365.98271      887.34075      3830.0067     -3897.3316     -369.50121      77840.873      42.697512      42.697512      42.697512      0.88916645     2269.125       1211.174       1890.0742    
     54000   54000          551.05305      1402.0944      21061.375      19469.677      10543.75       8925.9268      4530.2873      4223.0733     -1036.5398      386.68556      895.43116      3828.2651     -3901.2757     -369.50121      77840.873      42.697512      42.697512      42.697512      0.88916645     1939.6976      1029.5503      1237.0352    
     55000   55000          550.83021     -924.72385      18630.386      19680.159      10539.486      9140.6733      4709.6525      4226.8719     -930.80737      390.91626      827.13881      3820.2693     -3903.3681     -369.50121      77840.873      42.697512      42.697512      42.697512      0.88916645    -2894.4653     -289.67745      409.97116    
     56000   56000          546.26247     -675.71899      18396.19       19163.286      10452.088      8711.1979      4669.5435      4072.7727     -1154.6758      350.20243      850.23781      3825.1834     -3902.0661     -369.50121      77840.873      42.697512      42.697512      42.697512      0.88916645    -1054.6664     -888.1775      -84.313123    
     57000   57000          551.49153     -523.38888      19143.364      19737.531      10552.14       9185.3912      4816.0251      4189.3782     -984.30306      384.22163      844.74946      3830.9061     -3895.5862     -369.50121      77840.873      42.697512      42.697512      42.697512      0.88916645    -1569.8189      645.33588     -645.68358    
     58000   58000          546.94222     -1042.3504      18281.905      19465.211      10465.094      9000.1176      4688.0867      4254.8025     -1005.0696      366.61545      772.68423      3827.2781     -3904.2797     -369.50121      77840.873      42.697512      42.697512      42.697512      0.88916645    -377.78868     -201.58938     -2547.6731    
     59000   59000          558.88505     -408.40205      19184.574      19648.204      10693.606      8954.5984      4602.9056      4166.9258     -996.25392      388.51511      862.72577      3831.5174     -3901.7374     -369.50121      77840.873      42.697512      42.697512      42.697512      0.88916645    -271.43995     -34.585466     -919.18074    
     60000   60000          550.44214     -1505.701       17996.749      19706.065      10532.061      9174.0038      4702.5162      4286.5168     -999.92586      362.34101      908.13934      3817.9979     -3903.5816     -369.50121      77840.873      42.697512      42.697512      42.697512      0.88916645    -2304.8172     -1653.9888     -558.29705    
     61000   61000          550.24515     -555.45995      18852.108      19482.682      10528.291      8954.3907      4716.9714      4229.1258     -1091.4273      352.16015      803.53734      3841.3041     -3897.2808     -369.50121      77840.873      42.697512      42.697512      42.697512      0.88916645    -487.48201     -206.94501     -971.95284    
     62000   62000          543.50732      253.43805      19705.998      19418.287      10399.371      9018.9161      4675.9083      4212.8214     -993.89701      356.40805      849.74591      3819.0324     -3901.1029     -369.50121      77840.873      42.697512      42.697512      42.697512      0.88916645    -197.20763     -201.78877      1159.3105    
     63000   63000          552.97564     -28.38115       19584.456      19616.675      10580.536      9036.1392      4620.515       4293.9037     -1033.7099      369.45644      870.82633      3818.1544     -3903.0067     -369.50121      77840.873      42.697512      42.697512      42.697512      0.88916645     1002.8512      108.67929     -1196.674     
     64000   64000          544.43815      485.55364      19802.548      19251.333      10417.181      8834.1522      4593.5652      4133.0002     -1082.36        371.03699      904.63043      3819.5747     -3905.2953     -369.50121      77840.873      42.697512      42.697512      42.697512      0.88916645    -108.49804      1497.3254      67.833539    
     65000   65000          540.78608     -450.26451      19070.171      19581.324      10347.303      9234.0209      4624.1581      4361.866      -944.9788       371.31672      907.83499      3816.3338     -3902.5099     -369.50121      77840.873      42.697512      42.697512      42.697512      0.88916645     124.29921     -1329.051      -146.04171    
     66000   66000          559.73063     -928.15783      18739.433      19793.105      10709.785      9083.3196      4705.8414      4310.6937     -974.25039      379.01096      729.97463      3833.0798     -3901.0304     -369.50121      77840.873      42.697512      42.697512      42.697512      0.88916645    -1486.5967     -1050.3605     -247.51633    
     67000   67000          549.49373      750.52136      20269.17       19417.156      10513.914      8903.2418      4685.9282      4170.6291     -1029.9988      381.65198      792.00737      3812.1356     -3909.1116     -369.50121      77840.873      42.697512      42.697512      42.697512      0.88916645    -1031.2841      769.46238      2513.3858    
     68000   68000          558.33994     -1135.5668      18673.765      19962.893      10683.176      9279.7176      4800.2283      4388.9373     -1049.6887      373.06296      844.03835      3827.8476     -3904.7082     -369.50121      77840.873      42.697512      42.697512      42.697512      0.88916645    -1472.1125     -80.868295     -1853.7195    
     69000   69000          547.21138     -1102.8847      18179.759      19431.786      10470.244      8961.5422      4753.8397      4150.0321     -1053.0821      370.2195       829.09294      3817.5313     -3906.0913     -369.50121      77840.873      42.697512      42.697512      42.697512      0.88916645    -1615.29       -1249.973      -443.39122    
     70000   70000          545.94211      356.9121       19954.197      19549.02       10445.958      9103.0623      4838.5942      4202.1805     -1085.9497      366.03954      847.75758      3833.9957     -3899.5555     -369.50121      77840.873      42.697512      42.697512      42.697512      0.88916645     402.70027     -1186.5081      1854.5441    
     71000   71000          543.30446     -1831.7035      17083.729      19163.133      10395.49       8767.6431      4592.4394      4212.9351     -1062.7201      352.23949      742.81528      3836.5783     -3906.6444     -369.50121      77840.873      42.697512      42.697512      42.697512      0.88916645    -2120.7618     -1386.5808     -1987.768     
     72000   72000          560.45439     -1625.5117      18108.452      19953.781      10723.633      9230.1473      4786.7439      4245.4182     -943.23933      380.22183      842.96203      3820.9352     -3902.8945     -369.50121      77840.873      42.697512      42.697512      42.697512      0.88916645    -1204.0018     -1161.9147     -2510.6187    
     73000   73000          544.15852     -1262.886       18153.794      19587.459      10411.831      9175.6281      4814.9982      4233.4381     -1029.6572      372.83122      854.96126      3828.0888     -3899.0323     -369.50121      77840.873      42.697512      42.697512      42.697512      0.88916645     785.92738     -4153.3966     -421.18887    
     74000   74000          546.51951     -1875.9338      17345.791      19475.406      10457.006      9018.4003      4753.5394      4152.7603     -981.07981      360.60777      825.54384      3807.5056     -3900.4768     -369.50121      77840.873      42.697512      42.697512      42.697512      0.88916645    -4368.168      -1357.1679      97.534623    
     75000   75000          550.64047     -1469.7898      17731.753      19400.302      10535.855      8864.4464      4662.4416      4201.1782     -1050.6135      354.66671      780.44735      3819.8346     -3903.5086     -369.50121      77840.873      42.697512      42.697512      42.697512      0.88916645    -2409.7816     -2049.5149      49.927139    
     76000   76000          550.01325     -574.81122      18960.186      19612.728      10523.854      9088.8738      4760.5162      4252.2402     -1096.383       362.45447      874.22862      3839.1322     -3903.3149     -369.50121      77840.873      42.697512      42.697512      42.697512      0.88916645     93.190215     -895.78543     -921.83845    
     77000   77000          555.57648     -70.668033      19569.347      19649.572      10630.3        9019.2718      4721.3507      4172.7208     -1047.8345      388.64088      869.93701      3819.1657     -3904.7087     -369.50121      77840.873      42.697512      42.697512      42.697512      0.88916645    -947.65027     -209.00476      944.65093    
     78000   78000          546.10281     -339.65777      19127.487      19513.076      10449.033      9064.0433      4748.0092      4236.5263     -1052.5186      364.89403      837.48244      3831.962      -3902.3121     -369.50121      77840.873      42.697512      42.697512      42.697512      0.88916645    -44.548051     -961.74196     -12.683304    
     79000   79000          544.98632     -1857.7097      17241.306      19350.232      10427.67       8922.5623      4634.4355      4233.439      -1021.8474      374.61109      775.63361      3828.2735     -3901.983      -369.50121      77840.873      42.697512      42.697512      42.697512      0.88916645    -1900.6262     -2647.8166     -1024.6864    
     80000   80000          554.72092      986.79935      20835.947      19715.704      10613.93       9101.7734      4760.7168      4229.2624     -1097.9172      379.74175      905.75114      3829.2416     -3905.0232     -369.50121      77840.873      42.697512      42.697512      42.697512      0.88916645     1207.9408      346.89714      1405.56      
     81000   81000          549.19427      761.56644      20625.11       19760.558      10508.184      9252.3736      4801.551       4377.7572     -1067.5417      363.38016      852.11944      3829.8739     -3904.7664     -369.50121      77840.873      42.697512      42.697512      42.697512      0.88916645     56.240905      1357.3286      871.1298     
     82000   82000          551.00103      247.21981      19822.899      19542.248      10542.754      8999.4935      4720.4065      4188.8376     -1051.0742      357.58703      845.01891      3838.1657     -3899.448      -369.50121      77840.873      42.697512      42.697512      42.697512      0.88916645     2384.2762     -1385.5648     -257.05197    
     83000   83000          537.64477     -241.02399      19064.853      19338.471      10287.198      9051.2725      4743.3396      4234.0394     -1041.9969      365.68199      833.88873      3824.4662     -3908.1465     -369.50121      77840.873      42.697512      42.697512      42.697512      0.88916645    -947.07349     -823.34027      1047.3418    
     84000   84000          559.70791     -1136.9558      18359.352      19650.058      10709.35       8940.7075      4624.9792      4168.4988     -948.11823      348.49359      836.37986      3817.4455     -3906.9712     -369.50121      77840.873      42.697512      42.697512      42.697512      0.88916645    -1655.5984     -112.87312     -1642.396     
     85000   85000          552.7877       352.77044      19747.568      19347.093      10576.94       8770.1524      4565.0766      4172.8435     -1081.3479      362.11201      834.42063      3818.9644     -3901.9169     -369.50121      77840.873      42.697512      42.697512      42.697512      0.88916645     392.32321      11.494408      654.4937     
     86000   86000          552.49679     -1426.7392      17962.542      19582.218      10571.374      9010.8444      4710.8232      4191.7394     -1010.2968      367.25749      838.18163      3818.2506     -3905.1112     -369.50121      77840.873      42.697512      42.697512      42.697512      0.88916645    -1674.4374     -983.25509     -1622.5252    
     87000   87000          546.61907     -713.29982      18593.971      19403.73       10458.911      8944.8196      4681.016       4180.9172     -1037.5667      365.37436      831.88479      3827.2198     -3904.0258     -369.50121      77840.873      42.697512      42.697512      42.697512      0.88916645    -1034.1669     -1188.0411      82.308441    
     88000   88000          545.03364     -1735.0052      17383.53       19353.158      10428.575      8924.5829      4609.2846      4227.2301     -1012.8637      361.41806      820.76168      3823.7513     -3904.9991     -369.50121      77840.873      42.697512      42.697512      42.697512      0.88916645    -1312.2927     -2822.538      -1070.1847    
     89000   89000          548.75203     -2280.9897      16965.064      19554.51       10499.722      9054.7876      4645.8544      4262.8706     -942.54251      369.95456      820.84716      3806.9864     -3909.1829     -369.50121      77840.873      42.697512      42.697512      42.697512      0.88916645    -3418.8453     -439.58335     -2984.5404    
     90000   90000          550.87544     -2286.2301      17034.072      19629.467      10540.351      9089.1159      4666.6323      4340.0938     -953.98607      375.22092      733.45501      3832.7642     -3905.0642     -369.50121      77840.873      42.697512      42.697512      42.697512      0.88916645    -3583.4167     -2533.5215     -741.75221    
     91000   91000          552.08837      224.91186      19808.453      19553.126      10563.559      8989.5667      4640.6859      4236.3585     -1074.8621      368.4338       890.79075      3827.858      -3899.6982     -369.50121      77840.873      42.697512      42.697512      42.697512      0.88916645    -117.02876     -783.9018       1575.6661    
     92000   92000          559.4111      -2288.8677      17052.524      19650.914      10703.671      8947.243       4764.4364      4188.7731     -1082.8855      373.95402      770.6796       3831.2146     -3898.9292     -369.50121      77840.873      42.697512      42.697512      42.697512      0.88916645    -1979.6287     -1760.5902     -3126.3842    
     93000   93000          550.47406      647.22206      20187.809      19453.063      10532.671      8920.3918      4617.6884      4170.9361     -1014.0367      386.82369      821.05985      3838.1784     -3900.2579     -369.50121      77840.873      42.697512      42.697512      42.697512      0.88916645    -197.51164      1340.1594      799.01836    
     94000   94000          548.57369     -656.37475      18836.246      19581.382      10496.31       9085.0721      4764.5999      4201.9026     -1011.8563      375.22436      830.23415      3830.5764     -3905.609      -369.50121      77840.873      42.697512      42.697512      42.697512      0.88916645    -490.78489      216.68316     -1695.0225    
     95000   95000          544.49631      590.00074      20062.224      19392.438      10418.294      8974.1433      4721.6235      4144.2529     -1063.8431      371.36374      861.22453      3837.9082     -3898.3865     -369.50121      77840.873      42.697512      42.697512      42.697512      0.88916645     344.79014     -827.52899      2252.7411    
     96000   96000          556.45196     -1646.8539      17883.66       19753.217      10647.051      9106.1657      4684.816       4259.1862     -933.30059      377.88649      796.42377      3825.3766     -3904.2227     -369.50121      77840.873      42.697512      42.697512      42.697512      0.88916645    -1269.139      -1428.1271     -2243.2958    
     97000   97000          549.32382     -619.59563      18684.582      19387.965      10510.663      8877.302       4577.3867      4351.7246     -1098.1996      360.43768      756.33039      3831.4444     -3901.8223     -369.50121      77840.873      42.697512      42.697512      42.697512      0.88916645     74.070035     -426.34793     -1506.509     
     98000   98000          558.34389      731.41776      20539.989      19709.662      10683.251      9026.4107      4831.355       4243.566      -1118.8095      363.78495      786.04741      3822.2087     -3901.7418     -369.50121      77840.873      42.697512      42.697512      42.697512      0.88916645     1062.3822      1567.6465     -435.77543    
     99000   99000          545.36598      728.62432      20271.294      19444.138      10434.934      9009.2035      4629.3717      4243.1476     -1041.6245      379.06365      882.66013      3820.5428     -3903.9579     -369.50121      77840.873      42.697512      42.697512      42.697512      0.88916645     575.56732      611.80023      998.50541    
    100000   100000         548.52066     -535.16738      18944.29       19551.827      10495.295      9056.5319      4727.7595      4245.8106     -1022.1375      376.03227      797.12657      3831.4796     -3899.5391     -369.50121      77840.873      42.697512      42.697512      42.697512      0.88916645     107.65767     -2307.294       594.13417    
    101000   101000         550.01726     -22.777015      19845.546      19871.403      10523.931      9347.472       4994.4886      4224.0418     -1042.5435      391.59555      842.94685      3835.2601     -3898.3174     -369.50121      77840.873      42.697512      42.697512      42.697512      0.88916645     676.25011     -399.06838     -345.51277    
    102000   102000         549.54123     -424.18518      19163.878      19645.426      10514.823      9130.603       4695.3782      4264.5432     -1021.0379      376.65896      879.75795      3831.1594     -3895.8569     -369.50121      77840.873      42.697512      42.697512      42.697512      0.88916645    -1705.7101      936.56166     -503.40708    
    103000   103000         553.85465     -795.10227      18781.441      19684.064      10597.355      9086.7093      4681.5537      4268.366      -1021.2225      373.01221      867.99375      3818.9568     -3901.9508     -369.50121      77840.873      42.697512      42.697512      42.697512      0.88916645    -95.937229      1832.2503     -4121.6198    
    104000   104000         539.09938      1566.1242      21197.345      19419.435      10315.03       9104.405       4670.2518      4224.4114     -1012.7316      360.48276      937.88897      3820.4475     -3896.3457     -369.50121      77840.873      42.697512      42.697512      42.697512      0.88916645     2788.5389      1401.0843      508.74944    
    105000   105000         546.57672     -245.35844      19278.859      19557.397      10458.1        9099.2965      4783.376       4291.3394     -1068.3085      368.21154      796.29         3825.3418     -3896.9537     -369.50121      77840.873      42.697512      42.697512      42.697512      0.88916645    -127.92191     -596.89718     -11.256234    
    106000   106000         554.16867     -1463.1214      18089.204      19750.182      10603.363      9146.8188      4716.3022      4220.8829     -912.09662      391.25429      811.44068      3817.6456     -3898.6102     -369.50121      77840.873      42.697512      42.697512      42.697512      0.88916645    -3210.3037     -932.25314     -246.80743    
    107000   107000         546.4327      -1578.5879      17683.321      19475.38       10455.345      9020.0357      4695.9005      4201.985      -958.47984      379.70848      770.32809      3832.1455     -3901.5521     -369.50121      77840.873      42.697512      42.697512      42.697512      0.88916645    -2578.7501     -1480.1311     -676.88265    
    108000   108000         546.22031      0.71990135     19700.538      19699.721      10451.281      9248.4398      4845.5564      4271.5753     -1022.2701      372.67301      850.71831      3829.9826     -3899.7957     -369.50121      77840.873      42.697512      42.697512      42.697512      0.88916645     737.61783      427.15117     -1162.6093    
    109000   109000         561.76369     -1004.3574      18612.232      19752.408      10748.685      9003.7226      4832.1755      4178.193      -1045.6711      376.14736      737.75127      3829.6207     -3904.4942     -369.50121      77840.873      42.697512      42.697512      42.697512      0.88916645    -2042.3599     -1924.5535      953.84116    
    110000   110000         543.27805      1822.3233      21579.517      19510.762      10394.984      9115.778       4672.9908      4247.5619     -1033.137       382.73031      938.69261      3814.0643     -3907.125      -369.50121      77840.873      42.697512      42.697512      42.697512      0.88916645     1282.19        1522.7591      2662.0209    
    111000   111000         552.83346     -603.18955      19039.974      19724.733      10577.816      9146.9171      4721.022       4288.6126     -995.7969       365.97643      835.38651      3836.1902     -3904.4737     -369.50121      77840.873      42.697512      42.697512      42.697512      0.88916645    -1742.9286     -970.09432      903.4543     
    112000   112000         547.86451     -936.25864      18291.587      19354.455      10482.741      8871.7146      4645.1846      4173.398      -1018.8188      366.77388      791.1379       3818.7213     -3904.6822     -369.50121      77840.873      42.697512      42.697512      42.697512      0.88916645    -1876.6897     -69.996799     -862.08947    
    113000   113000         550.24549      170.70596      19812.851      19619.06       10528.298      9090.7624      4719.981       4325.2803     -1040.9425      365.00675      802.51139      3823.0142     -3904.0887     -369.50121      77840.873      42.697512      42.697512      42.697512      0.88916645     584.40704     -469.84681      397.55764    
    114000   114000         548.50008      148.6957       19771.497      19602.693      10494.902      9107.7914      4662.9279      4246.427      -978.79964      367.23973      887.03762      3824.1671     -3901.2083     -369.50121      77840.873      42.697512      42.697512      42.697512      0.88916645    -470.86768      2170.4076     -1253.4529    
    115000   115000         549.63863     -96.828451      19403.118      19513.04       10516.686      8996.3537      4639.5154      4187.1355     -961.76357      374.34571      830.39529      3829.8223     -3903.0969     -369.50121      77840.873      42.697512      42.697512      42.697512      0.88916645     848.91315     -991.63043     -147.76807    
    116000   116000         559.26202      623.14748      20518.19       19810.774      10700.819      9109.9557      4767.3182      4274.0397     -1127.2961      371.56534      897.83186      3829.2634     -3902.7668     -369.50121      77840.873      42.697512      42.697512      42.697512      0.88916645     268.31462      993.7307       607.39714    
    117000   117000         551.07192     -1737.8122      17530.801      19503.616      10544.111      8959.5051      4730.3871      4202.8232     -1026.3185      362.41593      790.12692      3811.4439     -3911.3735     -369.50121      77840.873      42.697512      42.697512      42.697512      0.88916645     35.316338     -2221.5968     -3027.1561    
    118000   118000         552.98885      478.00817      20235.032      19692.383      10580.789      9111.5939      4701.6189      4272.1047     -989.2633       379.18599      824.21646      3825.1305     -3901.3993     -369.50121      77840.873      42.697512      42.697512      42.697512      0.88916645     425.67946      1376.8154     -368.47031    
    119000   119000         544.60188     -333.31594      19049.251      19427.641      10420.314      9007.3272      4679.0945      4215.8052     -989.85441      374.04086      808.98575      3825.2616     -3906.0063     -369.50121      77840.873      42.697512      42.697512      42.697512      0.88916645    -1253.5686      1508.1791     -1254.5583    
    120000   120000         546.64375     -1217.7324      17988.013      19370.418      10459.383      8911.0351      4738.2651      4173.1627     -1099.3476      373.25332      818.78768      3811.8936     -3904.9797     -369.50121      77840.873      42.697512      42.697512      42.697512      0.88916645    -145.11754     -357.61795     -3150.4617    
    121000   121000         554.5305       916.70043      20680.061      19639.396      10610.287      9029.1091      4815.9626      4267.8066     -1155.0529      341.89698      832.5152       3829.7791     -3903.7985     -369.50121      77840.873      42.697512      42.697512      42.697512      0.88916645    -624.63735      933.54367      2441.195     
    122000   122000         548.69892     -1185.7234      18142.326      19488.394      10498.706      8989.688       4714.7355      4129.9659     -969.79206      375.38005      802.44732      3833.1868     -3896.2354     -369.50121      77840.873      42.697512      42.697512      42.697512      0.88916645    -2291.3302      1106.5916     -2372.4315    
    123000   123000         547.81886      425.42561      20006.686      19523.73       10481.867      9041.8629      4763.4185      4143.2628     -1019.512       344.67145      888.78797      3821.4639     -3900.2298     -369.50121      77840.873      42.697512      42.697512      42.697512      0.88916645    -1359.3177      1856.2976      779.29687    
    124000   124000         558.13251      1365.7347      21137.393      19586.971      10679.207      8907.7639      4599.5442      4200.7151     -1066.5825      367.68814      875.04528      3830.2143     -3898.8606     -369.50121      77840.873      42.697512      42.697512      42.697512      0.88916645     2167.6757      1571.5383      357.99012    
    125000   125000         542.38401      827.38099      20140.842      19201.575      10377.878      8823.697       4630.0362      4085.0346     -1014.6186      363.17619      823.01325      3837.503      -3900.4477     -369.50121      77840.873      42.697512      42.697512      42.697512      0.88916645     643.05824      1980.5061     -141.42142    
    126000   126000         552.28832      1101.6624      20905.572      19654.932      10567.385      9087.547       4702.8852      4251.2453     -1093.3382      360.47116      934.24872      3835.2334     -3903.1985     -369.50121      77840.873      42.697512      42.697512      42.697512      0.88916645     673.20408      1105.6021      1526.181     
    127000   127000         541.623       -2253.9083      16938.853      19497.555      10363.317      9134.2386      4618.8714      4267.1701     -948.9706       370.47906      904.07817      3820.9934     -3898.3831     -369.50121      77840.873      42.697512      42.697512      42.697512      0.88916645    -1723.3127     -3800.8981     -1237.5142    
    128000   128000         549.98156      157.53234      19781.505      19602.669      10523.248      9079.4213      4695.9768      4301.3733     -1031.9947      373.89771      823.84474      3818.6522     -3902.3288     -369.50121      77840.873      42.697512      42.697512      42.697512      0.88916645     1523.7246     -765.55231     -285.57525    
    129000   129000         540.54408     -621.96686      18457.273      19163.348      10342.673      8820.6753      4658.8564      4096.61       -1090.7673      354.80309      869.18982      3833.4579     -3901.4745     -369.50121      77840.873      42.697512      42.697512      42.697512      0.88916645    -699.433       -913.78501     -252.68258    
    130000   130000         550.77869     -1731.1612      17530.936      19496.201      10538.5        8957.7004      4711.01        4179.3645     -1041.0319      365.96451      821.49609      3821.7177     -3900.8206     -369.50121      77840.873      42.697512      42.697512      42.697512      0.88916645    -2497.514      -1231.5502     -1464.4193    
    131000   131000         546.05191      541.38997      20123.704      19509.103      10448.059      9061.0438      4686.3516      4294.1501     -1094.4604      371.20171      886.27719      3822.6489     -3905.1253     -369.50121      77840.873      42.697512      42.697512      42.697512      0.88916645     957.53218      956.78719     -290.14945    
    132000   132000         549.26433     -1205.1394      18185.264      19553.373      10509.525      9043.8487      4682.9925      4323.8928     -1055.5689      365.67927      791.53167      3829.5287     -3894.2073     -369.50121      77840.873      42.697512      42.697512      42.697512      0.88916645    -1118.0933     -1268.782      -1228.5428    
    133000   133000         559.10048      16.29866       19830.454      19811.951      10697.728      9114.2236      4765.6999      4252.031      -1062.167       375.30875      852.01978      3825.0892     -3893.758      -369.50121      77840.873      42.697512      42.697512      42.697512      0.88916645     888.31435      643.66803     -1483.0864    
    134000   134000         551.23762      1313.402       21051.399      19560.387      10547.281      9013.1058      4659.9718      4262.2851     -1058.849       380.59787      843.66384      3819.8906     -3894.4544     -369.50121      77840.873      42.697512      42.697512      42.697512      0.88916645     1551.4812      1435.5033      953.2215     
    135000   135000         545.4719       194.31047      19768.461      19547.874      10436.961      9110.9127      4702.1004      4283.2997     -1104.0675      369.78259      920.27595      3837.7289     -3898.2072     -369.50121      77840.873      42.697512      42.697512      42.697512      0.88916645     1420.9924      764.40128     -1602.4623    
    136000   136000         553.31173      1021.2589      20797.454      19638.092      10586.967      9051.1247      4751.6455      4231.2175     -1111.2571      381.53554      873.71234      3823.5424     -3899.2715     -369.50121      77840.873      42.697512      42.697512      42.697512      0.88916645     1329.5339      29.914617      1704.3281    
    137000   137000         546.60856     -1494.9687      17622.087      19319.219      10458.71       8860.5098      4609.5747      4194.1939     -1022.1821      369.50998      778.15901      3829.0606     -3897.8063     -369.50121      77840.873      42.697512      42.697512      42.697512      0.88916645    -1454.8006     -1295.4189     -1734.6867    
    138000   138000         550.00013     -912.98876      18571.752      19608.203      10523.603      9084.6001      4656.968       4289.7307     -985.92328      363.46529      835.5715       3826.4036     -3901.6158     -369.50121      77840.873      42.697512      42.697512      42.697512      0.88916645     1310.4986     -2882.8587     -1166.6062    
    139000   139000         556.77216     -651.44218      18986.122      19725.658      10653.178      9072.4803      4687.227       4268.9138     -988.62184      387.1092       776.98855      3834.215      -3893.3514     -369.50121      77840.873      42.697512      42.697512      42.697512      0.88916645    -335.81601     -475.80966     -1142.7009    
    140000   140000         552.31854     -1307.1354      18087.328      19571.227      10567.963      9003.2635      4784.2869      4233.9976     -1132.2074      364.47469      817.52331      3827.5794     -3892.391      -369.50121      77840.873      42.697512      42.697512      42.697512      0.88916645    -618.70882     -564.29012     -2738.4072    
    141000   141000         546.47071     -848.08619      18573.676      19536.448      10456.072      9080.3761      4694.6762      4231.9222     -978.51989      373.0717       848.59278      3813.6724     -3903.0393     -369.50121      77840.873      42.697512      42.697512      42.697512      0.88916645    -874.95355     -1553.22       -116.08503    
    142000   142000         538.50486      248.60529      19448.491      19166.267      10303.655      8862.6122      4814.6596      4088.9874     -1145.6157      359.83555      817.59508      3822.0161     -3894.8658     -369.50121      77840.873      42.697512      42.697512      42.697512      0.88916645    -540.31472      2097.1287     -810.99807    
    143000   143000         551.49829      1259.9461      21089.959      19659.631      10552.269      9107.3623      4715.3201      4267.0497     -1043.8219      373.74488      874.32676      3820.7819     -3900.0393     -369.50121      77840.873      42.697512      42.697512      42.697512      0.88916645     521.11897      2790.9277      467.79172    
    144000   144000         554.72002     -635.57224      18746.419      19467.939      10613.913      8854.0263      4587.1503      4150.4121     -1063.6199      370.34974      896.2239       3818.6808     -3905.1706     -369.50121      77840.873      42.697512      42.697512      42.697512      0.88916645    -664.54911     -872.96185     -369.20575    
    145000   145000         555.07838      191.82301      19815.703      19597.94       10620.77       8977.1701      4677.1488      4137.9735     -1002.6357      375.29385      873.03097      3820.9689     -3904.6102     -369.50121      77840.873      42.697512      42.697512      42.697512      0.88916645    -1317.9348      676.50818      1216.8957    
    146000   146000         546.9751      -1104.6835      18331.917      19585.986      10465.723      9120.263       4660.3743      4229.1969     -933.82014      375.99844      852.49709      3832.1357     -3896.1191     -369.50121      77840.873      42.697512      42.697512      42.697512      0.88916645    -1363.9432     -1372.2144     -577.89283    
    147000   147000         545.62111      18.757083      19627.624      19606.33       10439.816      9166.514       4744.7142      4272.7146     -1002.0952      377.96884      862.70521      3816.3893     -3905.8829     -369.50121      77840.873      42.697512      42.697512      42.697512      0.88916645     786.78206     -931.12082      200.61001    
    148000   148000         547.39385      94.554005      19524.34       19417          10473.735      8943.2645      4684.1821      4135.3796     -977.46332      382.43847      806.97222      3818.5931     -3906.8376     -369.50121      77840.873      42.697512      42.697512      42.697512      0.88916645     574.07986     -247.57666     -42.841187    
    149000   149000         537.76216      667.85039      19940.781      19182.618      10289.444      8893.1734      4752.8742      4165.3786     -1177.4086      355.86582      870.69699      3820.606      -3894.8397     -369.50121      77840.873      42.697512      42.697512      42.697512      0.88916645     2019.3151     -783.4814       767.71748    
    150000   150000         552.80215      288.52211      20011.804      19684.266      10577.217      9107.0489      4766.3707      4204.2069     -986.14358      392.16208      794.83305      3833.4633     -3897.8436     -369.50121      77840.873      42.697512      42.697512      42.697512      0.88916645     421.64772      1269.326      -825.40739    
[...]
   1955000   1955000        558.61998      1506.8972      21383.039      19672.365      10688.534      8983.8313      4631.7467      4257.6325     -1081.3605      381.04404      867.93061      3825.3235     -3898.4856     -369.50121      77840.873      42.697512      42.697512      42.697512      0.88916645     3001.9915     -244.40286      1763.1031    
   1956000   1956000        548.86067      1369.8372      21018.695      19463.616      10501.801      8961.8151      4636.6561      4160.7313     -1022.4916      374.84048      880.47775      3830.4362     -3898.8351     -369.50121      77840.873      42.697512      42.697512      42.697512      0.88916645     986.78632      1264.8493      1857.8758    
   1957000   1957000        555.41525     -1559.7174      18048.692      19819.329      10627.215      9192.1133      4797.8189      4262.5944     -973.81418      377.95145      803.57656      3822.9577     -3898.9715     -369.50121      77840.873      42.697512      42.697512      42.697512      0.88916645    -14.345815     -1506.5309     -3158.2755    
   1958000   1958000        546.42692      1435.91        21032.552      19402.465      10455.234      8947.2304      4623.55        4236.87       -1037.6756      353.19056      854.5763       3818.5961     -3901.8769     -369.50121      77840.873      42.697512      42.697512      42.697512      0.88916645     1475.2251      1335.7456      1496.7593    
   1959000   1959000        552.41118     -1043.412       18504.783      19689.295      10569.736      9119.559       4848.7817      4125.3681     -947.68202      364.49216      813.52257      3818.6861     -3903.6097     -369.50121      77840.873      42.697512      42.697512      42.697512      0.88916645    -1098.9162     -775.93195     -1255.3877    
   1960000   1960000        553.931       -2109.0049      17152.499      19546.704      10598.816      8947.8876      4649.2441      4192.6945     -988.69022      372.95758      804.80666      3819.393      -3902.518      -369.50121      77840.873      42.697512      42.697512      42.697512      0.88916645    -2024.6689     -2787.8331     -1514.5128    
   1961000   1961000        542.79845     -672.76037      18709.463      19473.2        10385.808      9087.3927      4656.2449      4302.289      -946.99439      375.67922      772.01309      3821.9948     -3893.8339     -369.50121      77840.873      42.697512      42.697512      42.697512      0.88916645    -1814.2154     -416.79667      212.73094    
   1962000   1962000        545.58248     -1440.6417      17899.809      19535.267      10439.077      9096.1904      4791.3566      4234.5902     -1007.8281      383.57735      777.53771      3818.1465     -3901.19       -369.50121      77840.873      42.697512      42.697512      42.697512      0.88916645    -1303.4027     -260.29295     -2758.2294    
   1963000   1963000        544.9873       1298.7234      20887.548      19413.199      10427.689      8985.5106      4743.5844      4106.5552     -1047.3377      380.17065      879.37943      3825.9248     -3902.7661     -369.50121      77840.873      42.697512      42.697512      42.697512      0.88916645     291.41474      1864.7193      1740.036     
   1964000   1964000        560.00521      633.56413      20421.72       19702.479      10715.039      8987.4407      4755.8012      4099.4252     -1004.8008      376.113        847.22713      3816.7019     -3903.0271     -369.50121      77840.873      42.697512      42.697512      42.697512      0.88916645    -239.37117      552.30175      1587.7618    
   1965000   1965000        550.87323      543.67652      20310.059      19692.862      10540.309      9152.5525      4697.9076      4348.3623     -987.6876       358.26049      818.02106      3824.9094     -3907.2207     -369.50121      77840.873      42.697512      42.697512      42.697512      0.88916645     324.47718      2753.6239     -1447.0715    
   1966000   1966000        549.39138      473.62539      19975.465      19437.791      10511.956      8925.8355      4654.8665      4273.3527     -1100.9534      362.31922      818.14937      3824.0479     -3905.9468     -369.50121      77840.873      42.697512      42.697512      42.697512      0.88916645     206.2589       1010.9822      203.63512    
   1967000   1967000        549.4595       340.42142      19996.305      19609.849      10513.259      9096.5897      4704.2934      4247.1646     -1097.1821      375.71268      944.7915       3823.3483     -3901.5387     -369.50121      77840.873      42.697512      42.697512      42.697512      0.88916645     533.91019      1331.735      -844.38097    
   1968000   1968000        539.89073     -375.33879      18953.539      19379.634      10330.172      9049.4625      4769.2453      4125.2814     -999.94425      368.83171      873.45842      3815.2711     -3902.6812     -369.50121      77840.873      42.697512      42.697512      42.697512      0.88916645     262.39292      382.55595     -1770.9652    
   1969000   1969000        556.51049      149.18833      19835.085      19665.722      10648.171      9017.5505      4688.7841      4230.4028     -1041.4745      354.04215      862.1413       3826.7884     -3903.1337     -369.50121      77840.873      42.697512      42.697512      42.697512      0.88916645     1017.6293     -757.90794      187.84366    
   1970000   1970000        548.72214      1472.8229      21462.291      19790.299      10499.151      9291.1489      4790.9823      4285.6875     -1018.4865      367.33546      937.00166      3828.579      -3899.9505     -369.50121      77840.873      42.697512      42.697512      42.697512      0.88916645     1856.6273      1235.0867      1326.7547    
   1971000   1971000        542.80803     -1777.6174      17449.742      19467.746      10385.991      9081.7547      4624.1193      4243.5904     -907.09008      376.56422      834.8513       3811.8121     -3902.0927     -369.50121      77840.873      42.697512      42.697512      42.697512      0.88916645    -2034.8343     -1714.2356     -1583.7821    
   1972000   1972000        557.15532      1297.2693      21000.99       19528.292      10660.509      8867.7827      4568.5511      4246.6038     -1108.3168      373.2476       879.49518      3809.6021     -3901.4004     -369.50121      77840.873      42.697512      42.697512      42.697512      0.88916645     237.98346      711.14674      2942.6778    
   1973000   1973000        547.5276       377.73345      19840.585      19411.771      10476.294      8935.4763      4702.1658      4222.6376     -1071.3972      362.98672      805.31706      3818.649      -3904.8827     -369.50121      77840.873      42.697512      42.697512      42.697512      0.88916645    -1062.3112      802.51827      1392.9933    
   1974000   1974000        545.44059     -76.804725      19272.282      19359.473      10436.362      8923.1111      4628.2636      4188.5574     -1040.8273      372.77358      844.30952      3831.0026     -3900.9683     -369.50121      77840.873      42.697512      42.697512      42.697512      0.88916645     498.2061       1246.8886     -1975.5088    
   1975000   1975000        549.28676     -1425.4558      18143.694      19761.913      10509.954      9251.9594      4744.3053      4337.1877     -925.40009      366.79975      805.3248       3826.1896     -3902.4477     -369.50121      77840.873      42.697512      42.697512      42.697512      0.88916645    -753.37778     -2665.9024     -857.08714    
   1976000   1976000        547.75634      285.66516      19892.652      19568.356      10480.671      9087.6852      4731.8099      4261.2591     -998.71209      348.54077      837.73778      3813.3978     -3906.3481     -369.50121      77840.873      42.697512      42.697512      42.697512      0.88916645    -104.31649      918.68336      42.628621    
   1977000   1977000        545.67247      42.752166      19483.673      19435.139      10440.799      8994.3405      4590.6943      4165.7276     -986.91149      382.8047       914.97598      3825.0509     -3898.0015     -369.50121      77840.873      42.697512      42.697512      42.697512      0.88916645    -272.6181       1666.484      -1265.6094    
   1978000   1978000        559.19671      78.565621      19813.841      19724.651      10699.569      9025.0816      4700.455       4267.61       -1109.2286      372.59378      864.06987      3826.4081     -3896.8266     -369.50121      77840.873      42.697512      42.697512      42.697512      0.88916645    -404.21933      1438.9669     -799.05069    
   1979000   1979000        539.85071     -852.53594      18385.145      19352.969      10329.406      9023.5629      4661.5353      4275.5009     -1063.3833      358.53642      889.27171      3806.4645     -3904.3626     -369.50121      77840.873      42.697512      42.697512      42.697512      0.88916645    -553.78816      1.7273347     -2005.547     
   1980000   1980000        558.70903      909.91814      20706.286      19673.32       10690.238      8983.0825      4681.154       4283.7115     -1127.8267      368.63737      843.08218      3830.1871     -3895.863      -369.50121      77840.873      42.697512      42.697512      42.697512      0.88916645     3823.5679      1520.3241     -2614.1376    
   1981000   1981000        544.55071      404.16255      19848.353      19389.536      10419.335      8970.2009      4669.5869      4176.0726     -1120.0254      370.78866      954.27802      3820.4329     -3900.9328     -369.50121      77840.873      42.697512      42.697512      42.697512      0.88916645    -1716.1655      955.60164      1973.0515    
   1982000   1982000        552.97547      399.68808      20149.225      19695.487      10580.533      9114.9543      4759.4054      4220.6496     -1020.6727      384.33692      835.87976      3830.2405     -3894.8852     -369.50121      77840.873      42.697512      42.697512      42.697512      0.88916645    -796.97375     -293.74538      2289.7834    
   1983000   1983000        538.72333      190.57483      19604.951      19388.605      10307.835      9080.7697      4788.9206      4221.0369     -989.38536      354.73685      784.78661      3821.3969     -3900.7228     -369.50121      77840.873      42.697512      42.697512      42.697512      0.88916645     183.21819     -504.70296      893.20927    
   1984000   1984000        537.61395     -1568.2038      17391.744      19172.015      10286.608      8885.4064      4569.0682      4175.3853     -995.09999      366.70344      866.30435      3803.0035     -3899.9583     -369.50121      77840.873      42.697512      42.697512      42.697512      0.88916645    -1399.41       -2262.7194     -1042.4819    
   1985000   1985000        550.39018      2067.8895      21916.473      19568.944      10531.066      9037.8781      4678.6876      4158.6432     -1046.7939      364.96267      962.93365      3817.1788     -3897.734      -369.50121      77840.873      42.697512      42.697512      42.697512      0.88916645     1651.9889      3764.2577      787.42191    
   1986000   1986000        536.90123     -259.05832      19024.484      19318.574      10272.971      9045.6029      4679.3352      4354.0387     -1105.2453      345.72726      854.34497      3819.0183     -3901.6163     -369.50121      77840.873      42.697512      42.697512      42.697512      0.88916645     346.33681      298.2569      -1421.7687    
   1987000   1987000        541.89433     -1595.8541      17584.318      19395.978      10368.508      9027.47        4730.1663      4200.9115     -1018.3231      371.08029      835.60037      3816.1262     -3908.0915     -369.50121      77840.873      42.697512      42.697512      42.697512      0.88916645    -1264.3363     -1022.0531     -2501.1729    
   1988000   1988000        544.18419     -516.60604      19007.101      19593.568      10412.322      9181.2456      4769.2938      4200.5157     -925.91972      366.67961      860.77461      3812.1092     -3902.2076     -369.50121      77840.873      42.697512      42.697512      42.697512      0.88916645     736.18998     -261.021       -2024.9871    
   1989000   1989000        546.47682      547.02304      20091.189      19470.193      10456.189      9014.0036      4738.001       4264.5211     -1065.5373      361.13685      800.97436      3815.0452     -3900.1376     -369.50121      77840.873      42.697512      42.697512      42.697512      0.88916645    -514.34123      1131.7395      1023.6708    
   1990000   1990000        550.36059     -208.40797      19240.128      19476.719      10530.5        8946.2183      4720.6583      4145.7118     -1036.0294      371.23446      842.18064      3807.3424     -3904.8799     -369.50121      77840.873      42.697512      42.697512      42.697512      0.88916645     835.8548      -1230.6945     -230.38422    
   1991000   1991000        549.02983     -1057.2708      18362.445      19562.69       10505.038      9057.6524      4819.8536      4124.8921     -1019.45        377.86639      837.17196      3817.9563     -3900.6379     -369.50121      77840.873      42.697512      42.697512      42.697512      0.88916645     515.61651     -2207.5629     -1479.8659    
   1992000   1992000        547.17677     -743.4179       18550.351      19394.301      10469.582      8924.719       4678.2192      4160.8494     -997.72475      367.9923       802.43703      3811.2357     -3898.2898     -369.50121      77840.873      42.697512      42.697512      42.697512      0.88916645    -2649.9853      834.2863      -414.55474    
   1993000   1993000        557.30908     -461.28377      19079.665      19603.328      10663.451      8939.8762      4755.9021      4037.8582     -973.85925      364.74425      841.57958      3813.133      -3899.4818     -369.50121      77840.873      42.697512      42.697512      42.697512      0.88916645    -172.55609     -784.09357     -427.20164    
   1994000   1994000        546.73351     -1596.3945      17779.42       19591.694      10461.1        9130.5936      4817.3562      4222.4929     -1016.3165      358.324        833.57465      3816.9739     -3901.8114     -369.50121      77840.873      42.697512      42.697512      42.697512      0.88916645    -2475.6961     -1634.5708     -678.91675    
   1995000   1995000        543.88475     -216.76115      19293.119      19539.193      10406.593      9132.6004      4847.4842      4157.3428     -982.80053      367.07106      817.4393       3823.7621     -3897.6985     -369.50121      77840.873      42.697512      42.697512      42.697512      0.88916645     272.35428     -49.774097     -872.86364    
   1996000   1996000        559.67209     -29.83848       19892.618      19926.492      10708.665      9217.8269      4885.1509      4323.2981     -1063.2318      373.51145      782.49874      3819.0799     -3902.4804     -369.50121      77840.873      42.697512      42.697512      42.697512      0.88916645    -6.0887051      503.97736     -587.4041     
   1997000   1997000        552.61104      465.11145      20083.707      19555.698      10573.56       8982.1384      4690.6482      4198.7769     -1063.7692      376.25692      855.67992      3819.2581     -3894.7124     -369.50121      77840.873      42.697512      42.697512      42.697512      0.88916645    -556.24078      2367.8331     -416.25794    
   1998000   1998000        545.19518     -56.027041      19253.788      19317.391      10431.666      8885.7248      4776.5713      4129.3973     -1116.6036      361.24339      823.7817       3813.9306     -3902.5958     -369.50121      77840.873      42.697512      42.697512      42.697512      0.88916645     993.29906     -198.65394     -962.72625    
   1999000   1999000        555.12402     -317.81439      19215.393      19576.185      10621.643      8954.5423      4524.2479      4296.1235     -960.45415      364.82876      816.97818      3810.2823     -3897.4642     -369.50121      77840.873      42.697512      42.697512      42.697512      0.88916645     986.42375     -1780.1722     -159.69468    
   2000000   2000000        548.3875      -503.22699      18726.779      19298.057      10492.748      8805.3095      4570.45        4223.3807     -1037.1853      355.40022      765.86336      3820.9428     -3893.5423     -369.50121      77840.873      42.697512      42.697512      42.697512      0.88916645    -1317.7536     -510.1752       318.24782    
Loop time of 3661.51 on 1 procs for 2000000 steps with 6420 atoms

Performance: 47.194 ns/day, 0.509 hours/ns, 546.223 timesteps/s, 3.507 Matom-step/s
99.9% CPU use with 1 MPI tasks x 1 OpenMP threads

MPI task timing breakdown:
Section |  min time  |  avg time  |  max time  |%varavg| %total
---------------------------------------------------------------
Pair    | 35.822     | 35.822     | 35.822     |   0.0 |  0.98
Bond    | 563.09     | 563.09     | 563.09     |   0.0 | 15.38
Kspace  | 1952.3     | 1952.3     | 1952.3     |   0.0 | 53.32
Neigh   | 624.76     | 624.76     | 624.76     |   0.0 | 17.06
Comm    | 108.51     | 108.51     | 108.51     |   0.0 |  2.96
Output  | 20.146     | 20.146     | 20.146     |   0.0 |  0.55
Modify  | 285.81     | 285.81     | 285.81     |   0.0 |  7.81
Other   |            | 71.09      |            |       |  1.94

Nlocal:           6420 ave        6420 max        6420 min
Histogram: 1 0 0 0 0 0 0 0 0 0
Nghost:          16977 ave       16977 max       16977 min
Histogram: 1 0 0 0 0 0 0 0 0 0
Neighs:              0 ave           0 max           0 min
Histogram: 1 0 0 0 0 0 0 0 0 0
FullNghs:  3.37219e+06 ave 3.37219e+06 max 3.37219e+06 min
Histogram: 1 0 0 0 0 0 0 0 0 0

Total # of neighbors = 3372190
Ave neighs/atom = 525.26324
Ave special neighs/atom = 5.8598131
Neighbor list builds = 119671
Dangerous builds = 0

# --- Cleanup ---
unfix nvt_fix

undump dump_nvt

# --- Write Output ---
write_dump all custom nvt_production_last.dump id type mol x y z xu yu zu vx vy vz modify sort id
write_data /home/alexzhao/PolyJarvis/data/PS4/lammps/equil/nvt_production/nvt_production_out.data
System init for write_data ...
PPPM Kokkos initialization ...
  using 12-bit tables for long-range coulomb
  G vector (1/distance) = 0.29977411
  grid = 30 30 30
  stencil order = 5
  estimated absolute RMS force accuracy = 0.00030114692
  estimated relative force accuracy = 9.06895e-07
  using double precision cuFFT
  3d grid and FFT values/proc = 50653 27000
Generated 6 of 6 mixed pair_coeff terms from sixthpower/sixthpower mixing rule

print "STAGE COMPLETE: NVT T=550.0->550.0K steps=2000000"
STAGE COMPLETE: NVT T=550.0->550.0K steps=2000000
quit
      |            |       |  1.94

Nlocal:           6420 ave        6420 max        6420 min
Histogram: 1 0 0 0 0 0 0 0 0 0
Nghost:          16977 ave       16977 max       16977 min
Histogram: 1 0 0 0 0 0 0 0 0 0
Neighs:              0 ave           0 max           0 min
Histogram: 1 0 0 0 0 0 0 0 0 0
FullNghs:  3.37219e+06 ave 3.37219e+06 max 3.37219e+06 min
Histogram: 1 0 0 0 0 0 0 0 0 0

Total # of neighbors = 3372190
Ave neighs/atom = 525.26324
Ave special neighs/atom = 5.8598131
Neighbor list builds = 119671
Dangerous builds = 0
System init for write_data ...
PPPM Kokkos initialization ...
  using 12-bit tables for long-range coulomb
  G vector (1/distance) = 0.29977411
  grid = 30 30 30
  stencil order = 5
  estimated absolute RMS force accuracy = 0.00030114692
  estimated relative force accuracy = 9.06895e-07
  using double precision cuFFT
  3d grid and FFT values/proc = 50653 27000
Generated 6 of 6 mixed pair_coeff terms from sixthpower/sixthpower mixing rule
STAGE COMPLETE: NVT T=550.0->550.0K steps=2000000
